 *******************************************************************************
 **                                                                           **
 **                              MOPAC v23.2                                  **
 **                                                                           **
 *******************************************************************************
 **          Digital Object Identifier (DOI): 10.5281/zenodo.6511958          **
 **    Visit the DOI location for information on how to cite this program.    **
 *******************************************************************************

                              PM7 CALCULATION RESULTS

 *******************************************************************************
 *  CALCULATION DONE: (MAX THREADS = 40)             Fri Sep 19 21:30:31 2025  *
 *  PM7        - The PM7 Hamiltonian to be used
 *
 *
 *
 *                 CHARGE ON SYSTEM = +1
 *
 *
 *
 *  1SCF       - DO 1 SCF AND THEN STOP 
 *  T=         - A TIME OF 172800.0 SECONDS REQUESTED
 *  DUMP=N     - RESTART FILE WRITTEN EVERY 7200.0 SECONDS REQUESTED
 *  RELSCF     - DEFAULT SCF CRITERION MULTIPLIED BY 0.0001
 *              (DEFAULT SCF CRITERION = 0.00010)
 *  GRADIENTS  - ALL GRADIENTS TO BE PRINTED
 *  DISP       - PRINT DISPERSION AND HYDROGEN BOND ENERGIES
 *******************************************************************************
PM7 1SCF GRADIENTS DISP RELSCF=0.0001 CHARGE=1
 Title: ASE calculation

   ATOM   CHEMICAL          X               Y               Z
  NUMBER   SYMBOL      (ANGSTROMS)     (ANGSTROMS)     (ANGSTROMS)

     1       C          0.06542903  *  -1.26793835  *  -0.78996210  *
     2       O          0.80114949  *  -0.30823409  *  -1.53290058  *
     3       C          0.70426912  *   0.98805071  *  -1.01784564  *
     4       C          1.30071344  *   0.96222105  *   0.43650060  *
     5       N          0.52401044  *   0.02829540  *   1.19193595  *
     6       C         -0.56799831  *  -0.58227703  *   0.45864388  *
     7       C         -1.42914932  *   0.58694175  *  -0.10400252  *
     8       O         -0.62281087  *   1.41528300  *  -0.92916716  *
     9       H          0.78451033  *  -2.07156609  *  -0.53831388  *
    10       H         -0.71536478  *  -1.67004379  *  -1.47075570  *
    11       H          1.20689093  *   1.65933586  *  -1.74821203  *
    12       H          1.28012346  *   1.99215935  *   0.89454314  *
    13       H          2.39288721  *   0.68615365  *   0.42126011  *
    14       H          0.72619565  *  -0.18856752  *   2.15923978  *
    15       H         -1.16688276  *  -1.29553535  *   1.07700088  *
    16       H         -1.84357691  *   1.24835880  *   0.68144373  *
    17       H         -2.25598325  *   0.21434490  *  -0.74525301  *



          CARTESIAN COORDINATES 

    NO.       ATOM           X           Y           Z

     1         C          0.0654     -1.2679     -0.7900
     2         O          0.8011     -0.3082     -1.5329
     3         C          0.7043      0.9881     -1.0178
     4         C          1.3007      0.9622      0.4365
     5         N          0.5240      0.0283      1.1919
     6         C         -0.5680     -0.5823      0.4586
     7         C         -1.4291      0.5869     -0.1040
     8         O         -0.6228      1.4153     -0.9292
     9         H          0.7845     -2.0716     -0.5383
    10         H         -0.7154     -1.6700     -1.4708
    11         H          1.2069      1.6593     -1.7482
    12         H          1.2801      1.9922      0.8945
    13         H          2.3929      0.6862      0.4213
    14         H          0.7262     -0.1886      2.1592
    15         H         -1.1669     -1.2955      1.0770
    16         H         -1.8436      1.2484      0.6814
    17         H         -2.2560      0.2143     -0.7453

 General Reference for PM7:
 "Optimization of Parameters for Semiempirical Methods VI: More Modifications to the 
 NDDO Approximations and Re-optimization of Parameters", J. J. P. Stewart, J. Mol. Mod., 1:32, 19 (2013)
 https://link.springer.com/article/10.1007/s00894-012-1667-x

           Empirical Formula: C5 H9 N O2  =    17 atoms



      MOLECULAR POINT GROUP   :   Cs  


          UHF CALCULATION, NO. OF ALPHA ELECTRONS =   23
                           NO. OF BETA  ELECTRONS =   22
  SCF CRITERION =    0.1000E-07

 -------------------------------------------------------------------------------
 PM7 1SCF GRADIENTS DISP RELSCF=0.0001 CHARGE=1
 Title: ASE calculation



     1SCF WAS SPECIFIED, SO BFGS WAS NOT USED                 
     SCF FIELD WAS ACHIEVED                                   


                              PM7 CALCULATION
                                                       MOPAC v23.2 Linux
                                                       Fri Sep 19 21:30:32 2025




          FINAL HEAT OF FORMATION =        116.87494 KCAL/MOL =     489.00474 KJ/MOL

          TOTAL ENERGY            =     -34682.21115 KCAL/MOL = ELECTRONIC ENERGY + CORE-CORE REPULSION
          ENERGY OF ATOMS         =      34800.19765 KCAL/MOL
                              SUM =        117.98650 KCAL/MOL
          DISPERSION ENERGY       =         -1.11156 KCAL/MOL
                              SUM =        116.87494 KCAL/MOL = FINAL HEAT OF FORMATION



          TOTAL ENERGY            =      -1503.96302 EV
          ELECTRONIC ENERGY       =      -7120.39916 EV 
          CORE-CORE REPULSION     =       5616.43614 EV
          COSMO AREA              =        135.20 SQUARE ANGSTROMS
          COSMO VOLUME            =        130.67 CUBIC ANGSTROMS

          GRADIENT NORM           =          0.98358          =       0.23855 PER ATOM
          IONIZATION POTENTIAL    =         14.996208 EV
          ALPHA SOMO LUMO (EV)    =        -15.028 -4.632
          BETA  SOMO LUMO (EV)    =        -14.996 -7.143
          NO. OF ALPHA ELECTRONS  =         23
          NO. OF BETA  ELECTRONS  =         22
          MOLECULAR WEIGHT        =        115.1316         POINT GROUP:  Cs  

          MOLECULAR DIMENSIONS (Angstroms)

            Atom       Atom       Distance
            H    17    H    13     4.81616
            H    14    H    11     4.33857
            H     9    H    12     4.12053


          SCF CALCULATIONS        =          1

          WALL-CLOCK TIME         =      1.016 SECONDS
          COMPUTATION TIME        =      1.282 SECONDS

          LARGEST ATOMIC GRADIENTS

          Atom     Label                     Cartesian Gradients           Cartesian Coordinates       |Gradient|
                                           X          Y          Z        X          Y          Z

            16       H                   0.319      0.187      0.088   -1.84358    1.24836    0.68144      0.380
            17       H                  -0.093      0.191      0.304   -2.25598    0.21434   -0.74525      0.371
             8       O                  -0.041     -0.120     -0.322   -0.62281    1.41528   -0.92917      0.346
            15       H                  -0.024      0.015     -0.256   -1.16688   -1.29554    1.07700      0.258
             2       O                  -0.209      0.149      0.022    0.80115   -0.30823   -1.53290      0.258
             9       H                   0.212     -0.008      0.074    0.78451   -2.07157   -0.53831      0.225
            10       H                   0.049     -0.199     -0.059   -0.71536   -1.67004   -1.47076      0.213
             5       N                  -0.056     -0.141     -0.147    0.52401    0.02830    1.19194      0.212
            14       H                  -0.068      0.198     -0.027    0.72620   -0.18857    2.15924      0.211
             4       C                  -0.173     -0.094      0.060    1.30071    0.96222    0.43650      0.206



       FINAL  POINT  AND  DERIVATIVES

   PARAMETER     ATOM    TYPE            VALUE        GRADIENT
      1          1  C    CARTESIAN X     0.065429      0.055438  KCAL/ANGSTROM
      2          1  C    CARTESIAN Y    -1.267938     -0.063383  KCAL/ANGSTROM
      3          1  C    CARTESIAN Z    -0.789962      0.056893  KCAL/ANGSTROM
      4          2  O    CARTESIAN X     0.801149     -0.209247  KCAL/ANGSTROM
      5          2  O    CARTESIAN Y    -0.308234      0.148530  KCAL/ANGSTROM
      6          2  O    CARTESIAN Z    -1.532901      0.021546  KCAL/ANGSTROM
      7          3  C    CARTESIAN X     0.704269     -0.008663  KCAL/ANGSTROM
      8          3  C    CARTESIAN Y     0.988051      0.077417  KCAL/ANGSTROM
      9          3  C    CARTESIAN Z    -1.017846      0.189201  KCAL/ANGSTROM
     10          4  C    CARTESIAN X     1.300713     -0.173258  KCAL/ANGSTROM
     11          4  C    CARTESIAN Y     0.962221     -0.094159  KCAL/ANGSTROM
     12          4  C    CARTESIAN Z     0.436501      0.059856  KCAL/ANGSTROM
     13          5  N    CARTESIAN X     0.524010     -0.056454  KCAL/ANGSTROM
     14          5  N    CARTESIAN Y     0.028295     -0.141471  KCAL/ANGSTROM
     15          5  N    CARTESIAN Z     1.191936     -0.146824  KCAL/ANGSTROM
     16          6  C    CARTESIAN X    -0.567998      0.036537  KCAL/ANGSTROM
     17          6  C    CARTESIAN Y    -0.582277     -0.118514  KCAL/ANGSTROM
     18          6  C    CARTESIAN Z     0.458644     -0.146027  KCAL/ANGSTROM
     19          7  C    CARTESIAN X    -1.429149      0.167209  KCAL/ANGSTROM
     20          7  C    CARTESIAN Y     0.586942      0.043300  KCAL/ANGSTROM
     21          7  C    CARTESIAN Z    -0.104003      0.036695  KCAL/ANGSTROM
     22          8  O    CARTESIAN X    -0.622811     -0.041024  KCAL/ANGSTROM
     23          8  O    CARTESIAN Y     1.415283     -0.119844  KCAL/ANGSTROM
     24          8  O    CARTESIAN Z    -0.929167     -0.322075  KCAL/ANGSTROM
     25          9  H    CARTESIAN X     0.784510      0.212494  KCAL/ANGSTROM
     26          9  H    CARTESIAN Y    -2.071566     -0.007830  KCAL/ANGSTROM
     27          9  H    CARTESIAN Z    -0.538314      0.073866  KCAL/ANGSTROM
     28         10  H    CARTESIAN X    -0.715365      0.048930  KCAL/ANGSTROM
     29         10  H    CARTESIAN Y    -1.670044     -0.199239  KCAL/ANGSTROM
     30         10  H    CARTESIAN Z    -1.470756     -0.058682  KCAL/ANGSTROM
     31         11  H    CARTESIAN X     1.206891     -0.102462  KCAL/ANGSTROM
     32         11  H    CARTESIAN Y     1.659336     -0.049236  KCAL/ANGSTROM
     33         11  H    CARTESIAN Z    -1.748212      0.027909  KCAL/ANGSTROM
     34         12  H    CARTESIAN X     1.280123      0.005825  KCAL/ANGSTROM
     35         12  H    CARTESIAN Y     1.992159     -0.160412  KCAL/ANGSTROM
     36         12  H    CARTESIAN Z     0.894543     -0.066414  KCAL/ANGSTROM
     37         13  H    CARTESIAN X     2.392887     -0.069003  KCAL/ANGSTROM
     38         13  H    CARTESIAN Y     0.686154      0.093454  KCAL/ANGSTROM
     39         13  H    CARTESIAN Z     0.421260      0.165507  KCAL/ANGSTROM
     40         14  H    CARTESIAN X     0.726196     -0.068227  KCAL/ANGSTROM
     41         14  H    CARTESIAN Y    -0.188568      0.198302  KCAL/ANGSTROM
     42         14  H    CARTESIAN Z     2.159240     -0.027078  KCAL/ANGSTROM
     43         15  H    CARTESIAN X    -1.166883     -0.023545  KCAL/ANGSTROM
     44         15  H    CARTESIAN Y    -1.295535      0.015225  KCAL/ANGSTROM
     45         15  H    CARTESIAN Z     1.077001     -0.256481  KCAL/ANGSTROM
     46         16  H    CARTESIAN X    -1.843577      0.318719  KCAL/ANGSTROM
     47         16  H    CARTESIAN Y     1.248359      0.186672  KCAL/ANGSTROM
     48         16  H    CARTESIAN Z     0.681444      0.088259  KCAL/ANGSTROM
     49         17  H    CARTESIAN X    -2.255983     -0.093273  KCAL/ANGSTROM
     50         17  H    CARTESIAN Y     0.214345      0.191185  KCAL/ANGSTROM
     51         17  H    CARTESIAN Z    -0.745253      0.303844  KCAL/ANGSTROM




   ATOM   CHEMICAL          X               Y               Z
  NUMBER   SYMBOL      (ANGSTROMS)     (ANGSTROMS)     (ANGSTROMS)

     1       C          0.06542903  *  -1.26793835  *  -0.78996210  *
     2       O          0.80114949  *  -0.30823409  *  -1.53290058  *
     3       C          0.70426912  *   0.98805071  *  -1.01784564  *
     4       C          1.30071344  *   0.96222105  *   0.43650060  *
     5       N          0.52401044  *   0.02829540  *   1.19193595  *
     6       C         -0.56799831  *  -0.58227703  *   0.45864388  *
     7       C         -1.42914932  *   0.58694175  *  -0.10400252  *
     8       O         -0.62281087  *   1.41528300  *  -0.92916716  *
     9       H          0.78451033  *  -2.07156609  *  -0.53831388  *
    10       H         -0.71536478  *  -1.67004379  *  -1.47075570  *
    11       H          1.20689093  *   1.65933586  *  -1.74821203  *
    12       H          1.28012346  *   1.99215935  *   0.89454314  *
    13       H          2.39288721  *   0.68615365  *   0.42126011  *
    14       H          0.72619565  *  -0.18856752  *   2.15923978  *
    15       H         -1.16688276  *  -1.29553535  *   1.07700088  *
    16       H         -1.84357691  *   1.24835880  *   0.68144373  *
    17       H         -2.25598325  *   0.21434490  *  -0.74525301  *

                             CARTESIAN COORDINATES

   1    C        0.065429031    -1.267938348    -0.789962095
   2    O        0.801149485    -0.308234093    -1.532900576
   3    C        0.704269115     0.988050713    -1.017845642
   4    C        1.300713444     0.962221054     0.436500605
   5    N        0.524010439     0.028295397     1.191935955
   6    C       -0.567998306    -0.582277025     0.458643884
   7    C       -1.429149316     0.586941752    -0.104002515
   8    O       -0.622810866     1.415282997    -0.929167165
   9    H        0.784510334    -2.071566093    -0.538313879
  10    H       -0.715364783    -1.670043788    -1.470755696
  11    H        1.206890929     1.659335857    -1.748212034
  12    H        1.280123462     1.992159353     0.894543140
  13    H        2.392887208     0.686153652     0.421260113
  14    H        0.726195652    -0.188567519     2.159239784
  15    H       -1.166882763    -1.295535353     1.077000880
  16    H       -1.843576907     1.248358799     0.681443726
  17    H       -2.255983245     0.214344900    -0.745253014


           Empirical Formula: C5 H9 N O2  =    17 atoms



      MOLECULAR POINT GROUP   :   Cs  


          ALPHA EIGENVALUES  
 -43.62908 -35.92370 -33.88069 -32.64764 -30.21720 -28.61844 -28.31718 -25.29139
 -23.60454 -23.36662 -22.73859 -21.35963 -20.75512 -20.11058 -19.36269 -18.96680
 -18.80896 -18.60585 -18.33692 -17.44378 -16.30659 -15.13846 -15.02760  -4.63243
  -3.02323  -2.76750  -2.35271  -2.27007  -2.22900  -1.69857  -0.74994  -0.70721
  -0.47200  -0.12253  -0.11802   0.09090   0.62330   0.69857   0.82451   1.15591
   1.23534


           BETA EIGENVALUES 
 -42.00344 -35.72517 -33.86789 -32.54389 -29.93209 -28.54945 -28.17781 -24.98648
 -23.44011 -22.86384 -22.62713 -21.19673 -20.08929 -19.96602 -19.13569 -18.92308
 -18.61651 -18.53212 -17.50572 -17.42045 -15.13357 -14.99621  -7.14315  -3.99763
  -2.99696  -2.74560  -2.25977  -2.24508  -1.82909  -1.60915  -0.70561  -0.56971
  -0.31802  -0.06354   0.09325   0.19092   0.63315   0.71344   0.82535   1.15568
   1.23830


              NET ATOMIC CHARGES AND DIPOLE CONTRIBUTIONS

  ATOM NO.   TYPE          CHARGE      No. of ELECS.   s-Pop       p-Pop       
    1          C          -0.043659        4.0437     1.10642     2.93724
    2          O          -0.361676        6.3617     1.87630     4.48538
    3          C           0.316271        3.6837     1.12443     2.55930
    4          C          -0.296891        4.2969     1.10334     3.19355
    5          N          -0.035668        5.0357     1.53641     3.49926
    6          C          -0.124523        4.1245     1.10457     3.01995
    7          C          -0.047264        4.0473     1.10590     2.94136
    8          O          -0.359070        6.3591     1.87648     4.48259
    9          H           0.171793        0.8282     0.82821
   10          H           0.190278        0.8097     0.80972
   11          H           0.211629        0.7884     0.78837
   12          H           0.239776        0.7602     0.76022
   13          H           0.238340        0.7617     0.76166
   14          H           0.330036        0.6700     0.66996
   15          H           0.209166        0.7908     0.79083
   16          H           0.170359        0.8296     0.82964
   17          H           0.191101        0.8089     0.80890
 DIPOLE           X         Y         Z       TOTAL
 POINT-CHG.     0.813    -1.276     5.559     5.761
 HYBRID         0.323    -0.082     0.903     0.963
 SUM            1.136    -1.358     6.462     6.700


          ATOMIC ORBITAL ELECTRON POPULATIONS

     Atom    s        px        py        pz   
    1  C   1.10642   1.06696   0.94262   0.92765
    2  O   1.87630   1.70424   1.24229   1.53885
    3  C   1.12443   0.81581   0.84723   0.89626
    4  C   1.10334   1.08419   1.03828   1.07108
    5  N   1.53641   1.15778   1.15993   1.18155
    6  C   1.10457   0.93102   1.05907   1.02986
    7  C   1.10590   0.96749   0.93728   1.03659
    8  O   1.87648   1.27339   1.51648   1.69272
    9  H   0.82821
   10  H   0.80972
   11  H   0.78837
   12  H   0.76022
   13  H   0.76166
   14  H   0.66996
   15  H   0.79083
   16  H   0.82964
   17  H   0.80890


                    (SZ)    =    0.500000
                    (S**2)  =    0.759757


          ATOMIC ORBITAL SPIN POPULATIONS

    Atom   Total    s     px     py     pz   
         Atomic
    1  C  0.0476  0.004  0.004  0.008  0.031
    2  O  0.0030  0.000 -0.001  0.001  0.003
    3  C  0.0045  0.000  0.001  0.001  0.002
    4  C -0.0390 -0.007 -0.009 -0.010 -0.012
    5  N  0.9412  0.042  0.328  0.463  0.108
    6  C -0.0618 -0.006 -0.025 -0.009 -0.021
    7  C  0.0451  0.004  0.014  0.018  0.008
    8  O  0.0018  0.000  0.001  0.000  0.000
    9  H -0.0013 -0.001
   10  H  0.0009  0.001
   11  H -0.0009 -0.001
   12  H  0.0492  0.049
   13  H  0.0458  0.046
   14  H -0.0371 -0.037
   15  H  0.0018  0.002
   16  H -0.0013 -0.001
   17  H  0.0005  0.001

 **********************
 *                    *
 * JOB ENDED NORMALLY *
 *                    *
 **********************



 TOTAL JOB TIME:             1.54 SECONDS

 == MOPAC DONE ==
