 *******************************************************************************
 **                                                                           **
 **                              MOPAC v23.2                                  **
 **                                                                           **
 *******************************************************************************
 **          Digital Object Identifier (DOI): 10.5281/zenodo.6511958          **
 **    Visit the DOI location for information on how to cite this program.    **
 *******************************************************************************

                              PM7 CALCULATION RESULTS

 *******************************************************************************
 *  CALCULATION DONE: (MAX THREADS = 40)             Fri Sep 19 22:06:20 2025  *
 *  PM7        - The PM7 Hamiltonian to be used
 *  1SCF       - DO 1 SCF AND THEN STOP 
 *  T=         - A TIME OF 172800.0 SECONDS REQUESTED
 *  DUMP=N     - RESTART FILE WRITTEN EVERY 7200.0 SECONDS REQUESTED
 *  RELSCF     - DEFAULT SCF CRITERION MULTIPLIED BY 0.0001
 *              (DEFAULT SCF CRITERION = 0.00010)
 *  GRADIENTS  - ALL GRADIENTS TO BE PRINTED
 *  DISP       - PRINT DISPERSION AND HYDROGEN BOND ENERGIES
 *******************************************************************************
PM7 1SCF GRADIENTS DISP RELSCF=0.0001
 Title: ASE calculation

   ATOM   CHEMICAL          X               Y               Z
  NUMBER   SYMBOL      (ANGSTROMS)     (ANGSTROMS)     (ANGSTROMS)

     1       C         -3.24674500  *  -1.27750280  *  -0.26229017  *
     2       C         -2.56556012  *   0.09992895  *  -0.34900918  *
     3       C         -2.78630799  *   0.89157263  *   0.95241414  *
     4       C         -1.16417902  *  -0.05693339  *  -0.60063828  *
     5       C          0.08571139  *  -0.19481058  *  -0.83309571  *
     6       C          1.47954826  *  -0.34503303  *  -1.09279076  *
     7       C          2.24932571  *  -0.63110237  *   0.20728015  *
     8       C          3.72163794  *  -0.79169861  *  -0.05641834  *
     9       O          4.19418395  *  -0.69990805  *  -1.16155345  *
    10       H         -3.10699880  *  -1.84513832  *  -1.18954095  *
    11       H         -4.32242369  *  -1.17408699  *  -0.08707798  *
    12       H         -2.83019714  *  -1.87699883  *   0.55474700  *
    13       H         -3.03050614  *   0.67494918  *  -1.19939672  *
    14       H         -2.35423353  *   0.37019692  *   1.81366721  *
    15       H         -2.31698166  *   1.88042353  *   0.89723384  *
    16       H         -3.85398083  *   1.03400770  *   1.14900593  *
    17       H          1.89777493  *   0.56771185  *  -1.58632907  *
    18       H          1.66548813  *  -1.16530750  *  -1.83040437  *
    19       H          2.07969807  *   0.18793147  *   0.93691226  *
    20       H          1.84717469  *  -1.54436689  *   0.69314083  *
    21       H          4.36041187  *  -0.99958738  *   0.81200013  *



          CARTESIAN COORDINATES 

    NO.       ATOM           X           Y           Z

     1         C         -3.2467     -1.2775     -0.2623
     2         C         -2.5656      0.0999     -0.3490
     3         C         -2.7863      0.8916      0.9524
     4         C         -1.1642     -0.0569     -0.6006
     5         C          0.0857     -0.1948     -0.8331
     6         C          1.4795     -0.3450     -1.0928
     7         C          2.2493     -0.6311      0.2073
     8         C          3.7216     -0.7917     -0.0564
     9         O          4.1942     -0.6999     -1.1616
    10         H         -3.1070     -1.8451     -1.1895
    11         H         -4.3224     -1.1741     -0.0871
    12         H         -2.8302     -1.8770      0.5547
    13         H         -3.0305      0.6749     -1.1994
    14         H         -2.3542      0.3702      1.8137
    15         H         -2.3170      1.8804      0.8972
    16         H         -3.8540      1.0340      1.1490
    17         H          1.8978      0.5677     -1.5863
    18         H          1.6655     -1.1653     -1.8304
    19         H          2.0797      0.1879      0.9369
    20         H          1.8472     -1.5444      0.6931
    21         H          4.3604     -0.9996      0.8120

 General Reference for PM7:
 "Optimization of Parameters for Semiempirical Methods VI: More Modifications to the 
 NDDO Approximations and Re-optimization of Parameters", J. J. P. Stewart, J. Mol. Mod., 1:32, 19 (2013)
 https://link.springer.com/article/10.1007/s00894-012-1667-x

           Empirical Formula: C8 H12 O  =    21 atoms



      MOLECULAR POINT GROUP   :   C1  


      RHF CALCULATION, NO. OF DOUBLY OCCUPIED LEVELS = 25

  SCF CRITERION =    0.1000E-07

 -------------------------------------------------------------------------------
 PM7 1SCF GRADIENTS DISP RELSCF=0.0001
 Title: ASE calculation



     1SCF WAS SPECIFIED, SO BFGS WAS NOT USED                 
     SCF FIELD WAS ACHIEVED                                   


                              PM7 CALCULATION
                                                       MOPAC v23.2 Linux
                                                       Fri Sep 19 22:06:20 2025




          FINAL HEAT OF FORMATION =         -6.34576 KCAL/MOL =     -26.55068 KJ/MOL

          TOTAL ENERGY            =     -33178.15988 KCAL/MOL = ELECTRONIC ENERGY + CORE-CORE REPULSION
          ENERGY OF ATOMS         =      33167.45855 KCAL/MOL
                              SUM =        -10.70132 KCAL/MOL
          DISPERSION ENERGY       =         -1.66115 KCAL/MOL
                              SUM =        -12.36247 KCAL/MOL = FINAL HEAT OF FORMATION

     *    WARNING - An energy term is incorrect or missing!

     *    FINAL HEAT OF FORMATION     =     -6.34576 KCAL/MOL
     *    SUM OF CONTRIBUTIONS TO HoF =    -12.36247 KCAL/MOL
     *                     DIFFERENCE =      6.01671 KCAL/MOL



          TOTAL ENERGY            =      -1438.74118 EV
          ELECTRONIC ENERGY       =      -6636.89673 EV 
          CORE-CORE REPULSION     =       5198.15555 EV
          COSMO AREA              =        188.60 SQUARE ANGSTROMS
          COSMO VOLUME            =        179.95 CUBIC ANGSTROMS

          GRADIENT NORM           =          0.94438          =       0.20608 PER ATOM
          IONIZATION POTENTIAL    =          9.766353 EV
          HOMO LUMO ENERGIES (EV) =         -9.766  0.630
          NO. OF FILLED LEVELS    =         25
          MOLECULAR WEIGHT        =        124.1822         POINT GROUP:  C1  

          MOLECULAR DIMENSIONS (Angstroms)

            Atom       Atom       Distance
            H    21    H    11     8.73100
            H    15    H    18     4.41375
            H    17    H    12     3.51509


          SCF CALCULATIONS        =          1

          WALL-CLOCK TIME         =      0.195 SECONDS
          COMPUTATION TIME        =      2.923 SECONDS

          LARGEST ATOMIC GRADIENTS

          Atom     Label                     Cartesian Gradients           Cartesian Coordinates       |Gradient|
                                           X          Y          Z        X          Y          Z

            13       H                   0.418     -0.104      0.048   -3.03051    0.67495   -1.19940      0.434
             9       O                  -0.083      0.057     -0.323    4.19418   -0.69991   -1.16155      0.338
            21       H                  -0.105     -0.024      0.263    4.36041   -0.99959    0.81200      0.284
             8       C                   0.029      0.037     -0.226    3.72164   -0.79170   -0.05642      0.231
            19       H                  -0.108      0.168      0.093    2.07970    0.18793    0.93691      0.221
            17       H                  -0.124      0.178      0.004    1.89777    0.56771   -1.58633      0.217
            16       H                  -0.147     -0.137     -0.062   -3.85398    1.03401    1.14901      0.210
             5       C                   0.158     -0.091      0.086    0.08571   -0.19481   -0.83310      0.202
            11       H                  -0.076      0.157      0.100   -4.32242   -1.17409   -0.08708      0.201
            20       H                  -0.153     -0.124      0.035    1.84717   -1.54437    0.69314      0.200



       FINAL  POINT  AND  DERIVATIVES

   PARAMETER     ATOM    TYPE            VALUE        GRADIENT
      1          1  C    CARTESIAN X    -3.246745     -0.049176  KCAL/ANGSTROM
      2          1  C    CARTESIAN Y    -1.277503     -0.005385  KCAL/ANGSTROM
      3          1  C    CARTESIAN Z    -0.262290     -0.041966  KCAL/ANGSTROM
      4          2  C    CARTESIAN X    -2.565560      0.091169  KCAL/ANGSTROM
      5          2  C    CARTESIAN Y     0.099929     -0.030580  KCAL/ANGSTROM
      6          2  C    CARTESIAN Z    -0.349009      0.035504  KCAL/ANGSTROM
      7          3  C    CARTESIAN X    -2.786308     -0.044550  KCAL/ANGSTROM
      8          3  C    CARTESIAN Y     0.891573      0.059687  KCAL/ANGSTROM
      9          3  C    CARTESIAN Z     0.952414     -0.000617  KCAL/ANGSTROM
     10          4  C    CARTESIAN X    -1.164179      0.138738  KCAL/ANGSTROM
     11          4  C    CARTESIAN Y    -0.056933     -0.045994  KCAL/ANGSTROM
     12          4  C    CARTESIAN Z    -0.600638     -0.015276  KCAL/ANGSTROM
     13          5  C    CARTESIAN X     0.085711      0.158006  KCAL/ANGSTROM
     14          5  C    CARTESIAN Y    -0.194811     -0.090918  KCAL/ANGSTROM
     15          5  C    CARTESIAN Z    -0.833096      0.086381  KCAL/ANGSTROM
     16          6  C    CARTESIAN X     1.479548      0.167243  KCAL/ANGSTROM
     17          6  C    CARTESIAN Y    -0.345033     -0.018604  KCAL/ANGSTROM
     18          6  C    CARTESIAN Z    -1.092791     -0.058847  KCAL/ANGSTROM
     19          7  C    CARTESIAN X     2.249326     -0.090385  KCAL/ANGSTROM
     20          7  C    CARTESIAN Y    -0.631102      0.008920  KCAL/ANGSTROM
     21          7  C    CARTESIAN Z     0.207280      0.135892  KCAL/ANGSTROM
     22          8  C    CARTESIAN X     3.721638      0.028579  KCAL/ANGSTROM
     23          8  C    CARTESIAN Y    -0.791699      0.036875  KCAL/ANGSTROM
     24          8  C    CARTESIAN Z    -0.056418     -0.226325  KCAL/ANGSTROM
     25          9  O    CARTESIAN X     4.194184     -0.083496  KCAL/ANGSTROM
     26          9  O    CARTESIAN Y    -0.699908      0.057157  KCAL/ANGSTROM
     27          9  O    CARTESIAN Z    -1.161553     -0.322650  KCAL/ANGSTROM
     28         10  H    CARTESIAN X    -3.106999      0.085406  KCAL/ANGSTROM
     29         10  H    CARTESIAN Y    -1.845138     -0.054475  KCAL/ANGSTROM
     30         10  H    CARTESIAN Z    -1.189541     -0.110322  KCAL/ANGSTROM
     31         11  H    CARTESIAN X    -4.322424     -0.076404  KCAL/ANGSTROM
     32         11  H    CARTESIAN Y    -1.174087      0.156573  KCAL/ANGSTROM
     33         11  H    CARTESIAN Z    -0.087078      0.100454  KCAL/ANGSTROM
     34         12  H    CARTESIAN X    -2.830197     -0.019066  KCAL/ANGSTROM
     35         12  H    CARTESIAN Y    -1.876999     -0.075007  KCAL/ANGSTROM
     36         12  H    CARTESIAN Z     0.554747      0.014939  KCAL/ANGSTROM
     37         13  H    CARTESIAN X    -3.030506      0.418338  KCAL/ANGSTROM
     38         13  H    CARTESIAN Y     0.674949     -0.103797  KCAL/ANGSTROM
     39         13  H    CARTESIAN Z    -1.199397      0.048402  KCAL/ANGSTROM
     40         14  H    CARTESIAN X    -2.354234     -0.026002  KCAL/ANGSTROM
     41         14  H    CARTESIAN Y     0.370197      0.034469  KCAL/ANGSTROM
     42         14  H    CARTESIAN Z     1.813667      0.093659  KCAL/ANGSTROM
     43         15  H    CARTESIAN X    -2.316982      0.075825  KCAL/ANGSTROM
     44         15  H    CARTESIAN Y     1.880424      0.116900  KCAL/ANGSTROM
     45         15  H    CARTESIAN Z     0.897234     -0.002763  KCAL/ANGSTROM
     46         16  H    CARTESIAN X    -3.853981     -0.147113  KCAL/ANGSTROM
     47         16  H    CARTESIAN Y     1.034008     -0.136558  KCAL/ANGSTROM
     48         16  H    CARTESIAN Z     1.149006     -0.062096  KCAL/ANGSTROM
     49         17  H    CARTESIAN X     1.897775     -0.123721  KCAL/ANGSTROM
     50         17  H    CARTESIAN Y     0.567712      0.178356  KCAL/ANGSTROM
     51         17  H    CARTESIAN Z    -1.586329      0.004467  KCAL/ANGSTROM
     52         18  H    CARTESIAN X     1.665488     -0.137027  KCAL/ANGSTROM
     53         18  H    CARTESIAN Y    -1.165307     -0.107177  KCAL/ANGSTROM
     54         18  H    CARTESIAN Z    -1.830404     -0.069757  KCAL/ANGSTROM
     55         19  H    CARTESIAN X     2.079698     -0.108359  KCAL/ANGSTROM
     56         19  H    CARTESIAN Y     0.187931      0.168204  KCAL/ANGSTROM
     57         19  H    CARTESIAN Z     0.936912      0.093270  KCAL/ANGSTROM
     58         20  H    CARTESIAN X     1.847175     -0.152798  KCAL/ANGSTROM
     59         20  H    CARTESIAN Y    -1.544367     -0.124222  KCAL/ANGSTROM
     60         20  H    CARTESIAN Z     0.693141      0.035013  KCAL/ANGSTROM
     61         21  H    CARTESIAN X     4.360412     -0.105217  KCAL/ANGSTROM
     62         21  H    CARTESIAN Y    -0.999587     -0.024428  KCAL/ANGSTROM
     63         21  H    CARTESIAN Z     0.812000      0.262634  KCAL/ANGSTROM




   ATOM   CHEMICAL          X               Y               Z
  NUMBER   SYMBOL      (ANGSTROMS)     (ANGSTROMS)     (ANGSTROMS)

     1       C         -3.24674500  *  -1.27750280  *  -0.26229017  *
     2       C         -2.56556012  *   0.09992895  *  -0.34900918  *
     3       C         -2.78630799  *   0.89157263  *   0.95241414  *
     4       C         -1.16417902  *  -0.05693339  *  -0.60063828  *
     5       C          0.08571139  *  -0.19481058  *  -0.83309571  *
     6       C          1.47954826  *  -0.34503303  *  -1.09279076  *
     7       C          2.24932571  *  -0.63110237  *   0.20728015  *
     8       C          3.72163794  *  -0.79169861  *  -0.05641834  *
     9       O          4.19418395  *  -0.69990805  *  -1.16155345  *
    10       H         -3.10699880  *  -1.84513832  *  -1.18954095  *
    11       H         -4.32242369  *  -1.17408699  *  -0.08707798  *
    12       H         -2.83019714  *  -1.87699883  *   0.55474700  *
    13       H         -3.03050614  *   0.67494918  *  -1.19939672  *
    14       H         -2.35423353  *   0.37019692  *   1.81366721  *
    15       H         -2.31698166  *   1.88042353  *   0.89723384  *
    16       H         -3.85398083  *   1.03400770  *   1.14900593  *
    17       H          1.89777493  *   0.56771185  *  -1.58632907  *
    18       H          1.66548813  *  -1.16530750  *  -1.83040437  *
    19       H          2.07969807  *   0.18793147  *   0.93691226  *
    20       H          1.84717469  *  -1.54436689  *   0.69314083  *
    21       H          4.36041187  *  -0.99958738  *   0.81200013  *

                             CARTESIAN COORDINATES

   1    C       -3.246745002    -1.277502801    -0.262290168
   2    C       -2.565560124     0.099928952    -0.349009182
   3    C       -2.786307994     0.891572630     0.952414139
   4    C       -1.164179015    -0.056933393    -0.600638283
   5    C        0.085711388    -0.194810579    -0.833095708
   6    C        1.479548260    -0.345033032    -1.092790765
   7    C        2.249325707    -0.631102372     0.207280150
   8    C        3.721637941    -0.791698610    -0.056418340
   9    O        4.194183955    -0.699908051    -1.161553454
  10    H       -3.106998796    -1.845138325    -1.189540945
  11    H       -4.322423687    -1.174086991    -0.087077984
  12    H       -2.830197139    -1.876998829     0.554747003
  13    H       -3.030506144     0.674949180    -1.199396720
  14    H       -2.354233525     0.370196923     1.813667211
  15    H       -2.316981657     1.880423532     0.897233840
  16    H       -3.853980826     1.034007698     1.149005929
  17    H        1.897774930     0.567711850    -1.586329070
  18    H        1.665488128    -1.165307495    -1.830404366
  19    H        2.079698066     0.187931472     0.936912258
  20    H        1.847174687    -1.544366886     0.693140835
  21    H        4.360411871    -0.999587378     0.812000129


           Empirical Formula: C8 H12 O  =    21 atoms



      MOLECULAR POINT GROUP   :   C1  


                  EIGENVALUES  
 -31.21181 -28.96660 -28.30025 -25.11462 -24.04174 -23.42333 -20.77529 -19.84266
 -17.45970 -16.53008 -16.30843 -15.50236 -15.03751 -14.49310 -14.26010 -13.85440
 -13.39385 -13.34585 -12.65108 -12.52578 -12.29681 -12.15017 -10.37365  -9.81641
  -9.76635   0.62998   1.39381   1.46897   3.26051   3.83471   4.07708   4.08923
   4.43891   4.75418   4.92273   5.06284   5.18552   5.58249   5.59872   5.76292
   5.77783   5.81806   5.94335   5.96345   6.21992   6.84780   6.87577   6.94503


              NET ATOMIC CHARGES AND DIPOLE CONTRIBUTIONS

  ATOM NO.   TYPE          CHARGE      No. of ELECS.   s-Pop       p-Pop       
    1          C          -0.440606        4.4406     1.05602     3.38459
    2          C          -0.034077        4.0341     1.03578     2.99830
    3          C          -0.440976        4.4410     1.05600     3.38497
    4          C          -0.110921        4.1109     1.11963     2.99129
    5          C          -0.125401        4.1254     1.10896     3.01644
    6          C          -0.211008        4.2110     1.03479     3.17622
    7          C          -0.381127        4.3811     1.07251     3.30862
    8          C           0.345872        3.6541     1.14228     2.51184
    9          O          -0.435303        6.4353     1.87761     4.55769
   10          H           0.149088        0.8509     0.85091
   11          H           0.145895        0.8541     0.85411
   12          H           0.148892        0.8511     0.85111
   13          H           0.152993        0.8470     0.84701
   14          H           0.148340        0.8517     0.85166
   15          H           0.147938        0.8521     0.85206
   16          H           0.146527        0.8535     0.85347
   17          H           0.173691        0.8263     0.82631
   18          H           0.173850        0.8261     0.82615
   19          H           0.170789        0.8292     0.82921
   20          H           0.170855        0.8291     0.82914
   21          H           0.104689        0.8953     0.89531
 DIPOLE           X         Y         Z       TOTAL
 POINT-CHG.    -1.595    -0.178     2.715     3.154
 HYBRID         0.028    -0.025    -0.077     0.086
 SUM           -1.567    -0.203     2.637     3.074


          ATOMIC ORBITAL ELECTRON POPULATIONS

     Atom    s        px        py        pz   
    1  C   1.05602   1.14192   1.06181   1.18086
    2  C   1.03578   0.95451   1.00339   1.04040
    3  C   1.05600   1.16943   1.13861   1.07693
    4  C   1.11963   0.97004   1.02510   0.99615
    5  C   1.10896   0.96448   1.01624   1.03572
    6  C   1.03479   0.96097   1.17963   1.03562
    7  C   1.07251   1.04651   1.17828   1.08383
    8  C   1.14228   0.93051   0.67984   0.90150
    9  O   1.87761   1.80232   1.38506   1.37031
   10  H   0.85091
   11  H   0.85411
   12  H   0.85111
   13  H   0.84701
   14  H   0.85166
   15  H   0.85206
   16  H   0.85347
   17  H   0.82631
   18  H   0.82615
   19  H   0.82921
   20  H   0.82914
   21  H   0.89531

 **********************
 *                    *
 * JOB ENDED NORMALLY *
 *                    *
 **********************



 TOTAL JOB TIME:             0.38 SECONDS

 == MOPAC DONE ==
