 *******************************************************************************
 **                                                                           **
 **                              MOPAC v23.2                                  **
 **                                                                           **
 *******************************************************************************
 **          Digital Object Identifier (DOI): 10.5281/zenodo.6511958          **
 **    Visit the DOI location for information on how to cite this program.    **
 *******************************************************************************

                              PM7 CALCULATION RESULTS

 *******************************************************************************
 *  CALCULATION DONE: (MAX THREADS = 40)             Fri Sep 19 22:03:14 2025  *
 *  PM7        - The PM7 Hamiltonian to be used
 *  EPS=37.5   - USE ANDREAS KLAMT'S COSMO IMPLICIT SOLVATION MODEL
 *  1SCF       - DO 1 SCF AND THEN STOP 
 *  T=         - A TIME OF 172800.0 SECONDS REQUESTED
 *  DUMP=N     - RESTART FILE WRITTEN EVERY 7200.0 SECONDS REQUESTED
 *  RELSCF     - DEFAULT SCF CRITERION MULTIPLIED BY 0.0001
 *              (DEFAULT SCF CRITERION = 0.00010)
 *  GRADIENTS  - ALL GRADIENTS TO BE PRINTED
 *  DISP       - PRINT DISPERSION AND HYDROGEN BOND ENERGIES
 *******************************************************************************
PM7 1SCF GRADIENTS EPS=37.5 DISP RELSCF=0.0001
 Title: ASE calculation

   ATOM   CHEMICAL          X               Y               Z
  NUMBER   SYMBOL      (ANGSTROMS)     (ANGSTROMS)     (ANGSTROMS)

     1       C          2.96556937  *   1.38861016  *   0.12908021  *
     2       C          1.78253484  *   0.59874890  *   0.20432214  *
     3       C          0.74012372  *  -0.09696932  *   0.26250345  *
     4       C         -0.45167454  *  -0.89413440  *   0.31687727  *
     5       C         -0.57235005  *  -1.72659577  *  -0.97121769  *
     6       C         -1.68367968  *   0.01795716  *   0.56977121  *
     7       C         -2.91649830  *  -0.80937003  *   0.93244186  *
     8       C         -1.97574144  *   0.90409903  *  -0.65166476  *
     9       O         -2.94323134  *   1.88619781  *  -0.33781132  *
    10       H          3.79380011  *   0.84116187  *  -0.35854064  *
    11       H          2.80645645  *   2.31581338  *  -0.45257645  *
    12       H          3.32540389  *   1.69301844  *   1.12921775  *
    13       H         -0.38227857  *  -1.60987063  *   1.18585795  *
    14       H          0.27167520  *  -2.42085360  *  -1.06157121  *
    15       H         -0.56711527  *  -1.09508829  *  -1.86637562  *
    16       H         -1.49428977  *  -2.31717627  *  -0.98107769  *
    17       H         -1.43691028  *   0.68360665  *   1.43537162  *
    18       H         -3.16849570  *  -1.53360467  *   0.14969028  *
    19       H         -3.79380011  *  -0.15847804  *   1.05896450  *
    20       H         -2.77399603  *  -1.36239064  *   1.86637562  *
    21       H         -1.06275970  *   1.40619406  *  -1.02019839  *
    22       H         -2.45513766  *   0.34663073  *  -1.47672251  *
    23       H         -2.65865266  *   2.42085360  *   0.42714567  *



          CARTESIAN COORDINATES 

    NO.       ATOM           X           Y           Z

     1         C          2.9656      1.3886      0.1291
     2         C          1.7825      0.5987      0.2043
     3         C          0.7401     -0.0970      0.2625
     4         C         -0.4517     -0.8941      0.3169
     5         C         -0.5724     -1.7266     -0.9712
     6         C         -1.6837      0.0180      0.5698
     7         C         -2.9165     -0.8094      0.9324
     8         C         -1.9757      0.9041     -0.6517
     9         O         -2.9432      1.8862     -0.3378
    10         H          3.7938      0.8412     -0.3585
    11         H          2.8065      2.3158     -0.4526
    12         H          3.3254      1.6930      1.1292
    13         H         -0.3823     -1.6099      1.1859
    14         H          0.2717     -2.4209     -1.0616
    15         H         -0.5671     -1.0951     -1.8664
    16         H         -1.4943     -2.3172     -0.9811
    17         H         -1.4369      0.6836      1.4354
    18         H         -3.1685     -1.5336      0.1497
    19         H         -3.7938     -0.1585      1.0590
    20         H         -2.7740     -1.3624      1.8664
    21         H         -1.0628      1.4062     -1.0202
    22         H         -2.4551      0.3466     -1.4767
    23         H         -2.6587      2.4209      0.4271

 General Reference for PM7:
 "Optimization of Parameters for Semiempirical Methods VI: More Modifications to the 
 NDDO Approximations and Re-optimization of Parameters", J. J. P. Stewart, J. Mol. Mod., 1:32, 19 (2013)
 https://link.springer.com/article/10.1007/s00894-012-1667-x

           Empirical Formula: C8 H14 O  =    23 atoms



      MOLECULAR POINT GROUP   :   C1  


      RHF CALCULATION, NO. OF DOUBLY OCCUPIED LEVELS = 26

  SCF CRITERION =    0.1000E-07

 -------------------------------------------------------------------------------
 PM7 1SCF GRADIENTS EPS=37.5 DISP RELSCF=0.0001
 Title: ASE calculation



     1SCF WAS SPECIFIED, SO BFGS WAS NOT USED                 
     SCF FIELD WAS ACHIEVED                                   


                              PM7 CALCULATION
                                                       MOPAC v23.2 Linux
                                                       Fri Sep 19 22:03:14 2025




          FINAL HEAT OF FORMATION =        -30.27443 KCAL/MOL =    -126.66821 KJ/MOL

          TOTAL ENERGY            =     -33819.53438 KCAL/MOL = ELECTRONIC ENERGY + CORE-CORE REPULSION + SOLVATION ENERGY
          ENERGY OF ATOMS         =      33782.22825 KCAL/MOL
                              SUM =        -37.30613 KCAL/MOL
          DISPERSION ENERGY       =         -2.38700 KCAL/MOL
                              SUM =        -39.69313 KCAL/MOL = FINAL HEAT OF FORMATION

     *    WARNING - An energy term is incorrect or missing!

     *    FINAL HEAT OF FORMATION     =    -30.27443 KCAL/MOL
     *    SUM OF CONTRIBUTIONS TO HoF =    -39.69313 KCAL/MOL
     *                     DIFFERENCE =      9.41870 KCAL/MOL

          VAN DER WAALS AREA      =        186.53 SQUARE ANGSTROMS


          TOTAL ENERGY            =      -1466.55381 EV
          ELECTRONIC ENERGY       =      -2174.01169 EV 
          CORE-CORE REPULSION     =        707.45788 EV

          DIELECTRIC ENERGY       =         -0.31471 EV
          COSMO AREA              =        186.53 SQUARE ANGSTROMS
          COSMO VOLUME            =        186.28 CUBIC ANGSTROMS

          GRADIENT NORM           =          9.28152          =       1.93533 PER ATOM
          IONIZATION POTENTIAL    =          9.988698 EV
          HOMO LUMO ENERGIES (EV) =         -9.989  1.318
          NO. OF FILLED LEVELS    =         26
          MOLECULAR WEIGHT        =        126.1980         POINT GROUP:  C1  

          MOLECULAR DIMENSIONS (Angstroms)

            Atom       Atom       Distance
            H    19    H    10     7.78333
            H    23    H    14     5.28825
            H    20    H    22     3.45360


          SCF CALCULATIONS        =          2

          WALL-CLOCK TIME         =      0.383 SECONDS
          COMPUTATION TIME        =      1.694 SECONDS

          LARGEST ATOMIC GRADIENTS

          Atom     Label                     Cartesian Gradients           Cartesian Coordinates       |Gradient|
                                           X          Y          Z        X          Y          Z

             1       C                   3.808      2.879     -0.273    2.96557    1.38861    0.12908      4.781
            23       H                  -0.090     -2.442     -3.709   -2.65865    2.42085    0.42715      4.442
             8       C                  -0.588      3.631      1.094   -1.97574    0.90410   -0.65166      3.837
             7       C                   0.692     -1.734      0.852   -2.91650   -0.80937    0.93244      2.052
             9       O                  -0.074     -0.275      1.893   -2.94323    1.88620   -0.33781      1.914
             5       C                  -1.238     -0.980     -0.804   -0.57235   -1.72660   -0.97122      1.772
            10       H                  -1.426     -0.629      0.194    3.79380    0.84116   -0.35854      1.571
             2       C                  -1.077     -1.027      0.368    1.78253    0.59875    0.20432      1.533
            12       H                  -1.174     -0.851     -0.455    3.32540    1.69302    1.12922      1.520
            11       H                  -0.901     -1.059      0.247    2.80646    2.31581   -0.45258      1.413



       FINAL  POINT  AND  DERIVATIVES

   PARAMETER     ATOM    TYPE            VALUE        GRADIENT
      1          1  C    CARTESIAN X     2.965569      3.807988  KCAL/ANGSTROM
      2          1  C    CARTESIAN Y     1.388610      2.878551  KCAL/ANGSTROM
      3          1  C    CARTESIAN Z     0.129080     -0.272703  KCAL/ANGSTROM
      4          2  C    CARTESIAN X     1.782535     -1.076773  KCAL/ANGSTROM
      5          2  C    CARTESIAN Y     0.598749     -1.027108  KCAL/ANGSTROM
      6          2  C    CARTESIAN Z     0.204322      0.367912  KCAL/ANGSTROM
      7          3  C    CARTESIAN X     0.740124      0.697253  KCAL/ANGSTROM
      8          3  C    CARTESIAN Y    -0.096969      0.691218  KCAL/ANGSTROM
      9          3  C    CARTESIAN Z     0.262503     -0.156300  KCAL/ANGSTROM
     10          4  C    CARTESIAN X    -0.451675      0.373314  KCAL/ANGSTROM
     11          4  C    CARTESIAN Y    -0.894134     -0.485985  KCAL/ANGSTROM
     12          4  C    CARTESIAN Z     0.316877      1.020839  KCAL/ANGSTROM
     13          5  C    CARTESIAN X    -0.572350     -1.237946  KCAL/ANGSTROM
     14          5  C    CARTESIAN Y    -1.726596     -0.979910  KCAL/ANGSTROM
     15          5  C    CARTESIAN Z    -0.971218     -0.804315  KCAL/ANGSTROM
     16          6  C    CARTESIAN X    -1.683680      0.546744  KCAL/ANGSTROM
     17          6  C    CARTESIAN Y     0.017957     -0.119080  KCAL/ANGSTROM
     18          6  C    CARTESIAN Z     0.569771      0.474949  KCAL/ANGSTROM
     19          7  C    CARTESIAN X    -2.916498      0.692042  KCAL/ANGSTROM
     20          7  C    CARTESIAN Y    -0.809370     -1.734317  KCAL/ANGSTROM
     21          7  C    CARTESIAN Z     0.932442      0.851656  KCAL/ANGSTROM
     22          8  C    CARTESIAN X    -1.975741     -0.587668  KCAL/ANGSTROM
     23          8  C    CARTESIAN Y     0.904099      3.630665  KCAL/ANGSTROM
     24          8  C    CARTESIAN Z    -0.651665      1.094262  KCAL/ANGSTROM
     25          9  O    CARTESIAN X    -2.943231     -0.074437  KCAL/ANGSTROM
     26          9  O    CARTESIAN Y     1.886198     -0.274769  KCAL/ANGSTROM
     27          9  O    CARTESIAN Z    -0.337811      1.892657  KCAL/ANGSTROM
     28         10  H    CARTESIAN X     3.793800     -1.426448  KCAL/ANGSTROM
     29         10  H    CARTESIAN Y     0.841162     -0.629261  KCAL/ANGSTROM
     30         10  H    CARTESIAN Z    -0.358541      0.193866  KCAL/ANGSTROM
     31         11  H    CARTESIAN X     2.806456     -0.901099  KCAL/ANGSTROM
     32         11  H    CARTESIAN Y     2.315813     -1.059260  KCAL/ANGSTROM
     33         11  H    CARTESIAN Z    -0.452576      0.247404  KCAL/ANGSTROM
     34         12  H    CARTESIAN X     3.325404     -1.173917  KCAL/ANGSTROM
     35         12  H    CARTESIAN Y     1.693018     -0.851286  KCAL/ANGSTROM
     36         12  H    CARTESIAN Z     1.129218     -0.454837  KCAL/ANGSTROM
     37         13  H    CARTESIAN X    -0.382279      0.098723  KCAL/ANGSTROM
     38         13  H    CARTESIAN Y    -1.609871      0.312205  KCAL/ANGSTROM
     39         13  H    CARTESIAN Z     1.185858     -0.648406  KCAL/ANGSTROM
     40         14  H    CARTESIAN X     0.271675      0.199357  KCAL/ANGSTROM
     41         14  H    CARTESIAN Y    -2.420854      0.665259  KCAL/ANGSTROM
     42         14  H    CARTESIAN Z    -1.061571      0.410443  KCAL/ANGSTROM
     43         15  H    CARTESIAN X    -0.567115      0.405182  KCAL/ANGSTROM
     44         15  H    CARTESIAN Y    -1.095088      0.018218  KCAL/ANGSTROM
     45         15  H    CARTESIAN Z    -1.866376      0.159802  KCAL/ANGSTROM
     46         16  H    CARTESIAN X    -1.494290      0.441132  KCAL/ANGSTROM
     47         16  H    CARTESIAN Y    -2.317176      0.157351  KCAL/ANGSTROM
     48         16  H    CARTESIAN Z    -0.981078      0.052842  KCAL/ANGSTROM
     49         17  H    CARTESIAN X    -1.436910      0.159920  KCAL/ANGSTROM
     50         17  H    CARTESIAN Y     0.683607     -0.773795  KCAL/ANGSTROM
     51         17  H    CARTESIAN Z     1.435372     -0.397056  KCAL/ANGSTROM
     52         18  H    CARTESIAN X    -3.168496     -0.138972  KCAL/ANGSTROM
     53         18  H    CARTESIAN Y    -1.533605      0.672004  KCAL/ANGSTROM
     54         18  H    CARTESIAN Z     0.149690     -0.001768  KCAL/ANGSTROM
     55         19  H    CARTESIAN X    -3.793800     -0.526483  KCAL/ANGSTROM
     56         19  H    CARTESIAN Y    -0.158478      0.674240  KCAL/ANGSTROM
     57         19  H    CARTESIAN Z     1.058964     -0.437164  KCAL/ANGSTROM
     58         20  H    CARTESIAN X    -2.773996     -0.074673  KCAL/ANGSTROM
     59         20  H    CARTESIAN Y    -1.362391      0.424042  KCAL/ANGSTROM
     60         20  H    CARTESIAN Z     1.866376     -0.232941  KCAL/ANGSTROM
     61         21  H    CARTESIAN X    -1.062760      0.427359  KCAL/ANGSTROM
     62         21  H    CARTESIAN Y     1.406194     -0.590636  KCAL/ANGSTROM
     63         21  H    CARTESIAN Z    -1.020198     -0.097262  KCAL/ANGSTROM
     64         22  H    CARTESIAN X    -2.455138     -0.540312  KCAL/ANGSTROM
     65         22  H    CARTESIAN Y     0.346631      0.843459  KCAL/ANGSTROM
     66         22  H    CARTESIAN Z    -1.476723      0.445432  KCAL/ANGSTROM
     67         23  H    CARTESIAN X    -2.658653     -0.090288  KCAL/ANGSTROM
     68         23  H    CARTESIAN Y     2.420854     -2.441807  KCAL/ANGSTROM
     69         23  H    CARTESIAN Z     0.427146     -3.709315  KCAL/ANGSTROM




   ATOM   CHEMICAL          X               Y               Z
  NUMBER   SYMBOL      (ANGSTROMS)     (ANGSTROMS)     (ANGSTROMS)

     1       C          2.96556937  *   1.38861016  *   0.12908021  *
     2       C          1.78253484  *   0.59874890  *   0.20432214  *
     3       C          0.74012372  *  -0.09696932  *   0.26250345  *
     4       C         -0.45167454  *  -0.89413440  *   0.31687727  *
     5       C         -0.57235005  *  -1.72659577  *  -0.97121769  *
     6       C         -1.68367968  *   0.01795716  *   0.56977121  *
     7       C         -2.91649830  *  -0.80937003  *   0.93244186  *
     8       C         -1.97574144  *   0.90409903  *  -0.65166476  *
     9       O         -2.94323134  *   1.88619781  *  -0.33781132  *
    10       H          3.79380011  *   0.84116187  *  -0.35854064  *
    11       H          2.80645645  *   2.31581338  *  -0.45257645  *
    12       H          3.32540389  *   1.69301844  *   1.12921775  *
    13       H         -0.38227857  *  -1.60987063  *   1.18585795  *
    14       H          0.27167520  *  -2.42085360  *  -1.06157121  *
    15       H         -0.56711527  *  -1.09508829  *  -1.86637562  *
    16       H         -1.49428977  *  -2.31717627  *  -0.98107769  *
    17       H         -1.43691028  *   0.68360665  *   1.43537162  *
    18       H         -3.16849570  *  -1.53360467  *   0.14969028  *
    19       H         -3.79380011  *  -0.15847804  *   1.05896450  *
    20       H         -2.77399603  *  -1.36239064  *   1.86637562  *
    21       H         -1.06275970  *   1.40619406  *  -1.02019839  *
    22       H         -2.45513766  *   0.34663073  *  -1.47672251  *
    23       H         -2.65865266  *   2.42085360  *   0.42714567  *

                             CARTESIAN COORDINATES

   1    C        2.965569371     1.388610163     0.129080211
   2    C        1.782534844     0.598748898     0.204322141
   3    C        0.740123722    -0.096969320     0.262503450
   4    C       -0.451674536    -0.894134400     0.316877266
   5    C       -0.572350053    -1.726595767    -0.971217689
   6    C       -1.683679678     0.017957163     0.569771211
   7    C       -2.916498295    -0.809370026     0.932441861
   8    C       -1.975741436     0.904099028    -0.651664759
   9    O       -2.943231343     1.886197808    -0.337811318
  10    H        3.793800107     0.841161868    -0.358540642
  11    H        2.806456447     2.315813385    -0.452576454
  12    H        3.325403885     1.693018435     1.129217752
  13    H       -0.382278574    -1.609870630     1.185857950
  14    H        0.271675197    -2.420853597    -1.061571214
  15    H       -0.567115271    -1.095088287    -1.866375624
  16    H       -1.494289775    -2.317176265    -0.981077691
  17    H       -1.436910278     0.683606652     1.435371624
  18    H       -3.168495701    -1.533604670     0.149690275
  19    H       -3.793800107    -0.158478038     1.058964496
  20    H       -2.773996028    -1.362390636     1.866375624
  21    H       -1.062759699     1.406194063    -1.020198385
  22    H       -2.455137661     0.346630726    -1.476722508
  23    H       -2.658652661     2.420853597     0.427145674


           Empirical Formula: C8 H14 O  =    23 atoms



      MOLECULAR POINT GROUP   :   C1  


                  EIGENVALUES  
 -30.31918 -28.80301 -26.97973 -25.86658 -24.15454 -23.59559 -22.19832 -19.37658
 -17.30734 -16.78809 -16.13572 -15.53493 -15.18085 -14.68011 -14.59080 -14.24854
 -13.75117 -13.28930 -13.09857 -12.89653 -12.29113 -11.82916 -11.52409 -10.85611
 -10.12415  -9.98870   1.31760   1.37954   2.79591   3.81676   3.90137   4.03059
   4.33809   4.58285   5.04059   5.48153   5.52373   5.53041   5.65111   5.74887
   5.81294   5.90842   5.92988   5.97470   6.13312   6.28478   6.37698   6.93459
   6.94181   7.10976


              NET ATOMIC CHARGES AND DIPOLE CONTRIBUTIONS

  ATOM NO.   TYPE          CHARGE      No. of ELECS.   s-Pop       p-Pop       
    1          C          -0.419844        4.4198     1.03365     3.38619
    2          C          -0.092346        4.0923     1.10370     2.98864
    3          C          -0.153155        4.1532     1.11375     3.03941
    4          C          -0.068744        4.0687     1.04394     3.02480
    5          C          -0.447698        4.4477     1.05586     3.39184
    6          C          -0.137790        4.1378     1.07075     3.06704
    7          C          -0.453420        4.4534     1.05521     3.39821
    8          C           0.005486        3.9945     1.09130     2.90322
    9          O          -0.626403        6.6264     1.84249     4.78392
   10          H           0.178118        0.8219     0.82188
   11          H           0.179810        0.8202     0.82019
   12          H           0.178927        0.8211     0.82107
   13          H           0.166148        0.8339     0.83385
   14          H           0.151929        0.8481     0.84807
   15          H           0.153167        0.8468     0.84683
   16          H           0.157411        0.8426     0.84259
   17          H           0.149503        0.8505     0.85050
   18          H           0.152672        0.8473     0.84733
   19          H           0.154490        0.8455     0.84551
   20          H           0.148697        0.8513     0.85130
   21          H           0.125206        0.8748     0.87479
   22          H           0.146100        0.8539     0.85390
   23          H           0.351737        0.6483     0.64826
 DIPOLE           X         Y         Z       TOTAL
 POINT-CHG.     2.202    -0.867     0.692     2.466
 HYBRID         0.007     0.335     0.231     0.407
 SUM            2.209    -0.531     0.923     2.452


          ATOMIC ORBITAL ELECTRON POPULATIONS

     Atom    s        px        py        pz   
    1  C   1.03365   1.06003   1.13365   1.19251
    2  C   1.10370   0.97767   0.99384   1.01714
    3  C   1.11375   0.99335   1.01694   1.02911
    4  C   1.04394   0.94658   1.01720   1.06102
    5  C   1.05586   1.18200   1.13575   1.07409
    6  C   1.07075   0.97533   1.02686   1.06485
    7  C   1.05521   1.08617   1.13992   1.17212
    8  C   1.09130   0.96861   0.91169   1.02292
    9  O   1.84249   1.56421   1.58322   1.63648
   10  H   0.82188
   11  H   0.82019
   12  H   0.82107
   13  H   0.83385
   14  H   0.84807
   15  H   0.84683
   16  H   0.84259
   17  H   0.85050
   18  H   0.84733
   19  H   0.84551
   20  H   0.85130
   21  H   0.87479
   22  H   0.85390
   23  H   0.64826

 **********************
 *                    *
 * JOB ENDED NORMALLY *
 *                    *
 **********************



 TOTAL JOB TIME:             0.65 SECONDS

 == MOPAC DONE ==
