 *******************************************************************************
 **                                                                           **
 **                              MOPAC v23.2                                  **
 **                                                                           **
 *******************************************************************************
 **          Digital Object Identifier (DOI): 10.5281/zenodo.6511958          **
 **    Visit the DOI location for information on how to cite this program.    **
 *******************************************************************************

                              PM7 CALCULATION RESULTS

 *******************************************************************************
 *  CALCULATION DONE: (MAX THREADS = 40)             Fri Sep 19 21:27:28 2025  *
 *  PM7        - The PM7 Hamiltonian to be used
 *  1SCF       - DO 1 SCF AND THEN STOP 
 *  T=         - A TIME OF 172800.0 SECONDS REQUESTED
 *  DUMP=N     - RESTART FILE WRITTEN EVERY 7200.0 SECONDS REQUESTED
 *  RELSCF     - DEFAULT SCF CRITERION MULTIPLIED BY 0.0001
 *              (DEFAULT SCF CRITERION = 0.00010)
 *  GRADIENTS  - ALL GRADIENTS TO BE PRINTED
 *  DISP       - PRINT DISPERSION AND HYDROGEN BOND ENERGIES
 *******************************************************************************
PM7 1SCF GRADIENTS DISP RELSCF=0.0001
 Title: ASE calculation

   ATOM   CHEMICAL          X               Y               Z
  NUMBER   SYMBOL      (ANGSTROMS)     (ANGSTROMS)     (ANGSTROMS)

     1       C          2.11891657  *   1.59187992  *   0.25836251  *
     2       C          1.60124343  *   0.16750033  *   0.45239731  *
     3       C          0.37283110  *  -0.12347224  *  -0.42213782  *
     4       C         -0.00233221  *  -1.58584090  *  -0.27630030  *
     5       O         -0.27705189  *  -2.25795470  *  -1.23832731  *
     6       C         -0.83875751  *   0.76179359  *  -0.06903484  *
     7       C         -1.30249664  *   0.60306008  *   1.37863507  *
     8       C         -2.00149890  *   0.44748420  *  -1.03036121  *
     9       O         -3.04160131  *   1.38843577  *  -0.87204692  *
    10       H          2.28899588  *   1.82096079  *  -0.79963740  *
    11       H          3.07247600  *   1.73931418  *   0.77980394  *
    12       H          1.41522531  *   2.33579771  *   0.65057969  *
    13       H          2.40661467  *  -0.55327736  *   0.20544113  *
    14       H          1.36419386  *  -0.00232442  *   1.52019993  *
    15       H          0.64531560  *   0.06886866  *  -1.49252018  *
    16       H         -0.01542084  *  -2.01315806  *   0.73221845  *
    17       H         -0.53743121  *   1.82943035  *  -0.22482327  *
    18       H         -1.54434379  *  -0.43366738  *   1.63117962  *
    19       H         -2.21612448  *   1.19101239  *   1.55438242  *
    20       H         -0.54535455  *   0.95603266  *   2.08641110  *
    21       H         -1.67955421  *   0.43576414  *  -2.08623739  *
    22       H         -2.49930543  *  -0.51240639  *  -0.79730154  *
    23       H         -2.72365095  *   2.29284838  *  -1.05607348  *



          CARTESIAN COORDINATES 

    NO.       ATOM           X           Y           Z

     1         C          2.1189      1.5919      0.2584
     2         C          1.6012      0.1675      0.4524
     3         C          0.3728     -0.1235     -0.4221
     4         C         -0.0023     -1.5858     -0.2763
     5         O         -0.2771     -2.2580     -1.2383
     6         C         -0.8388      0.7618     -0.0690
     7         C         -1.3025      0.6031      1.3786
     8         C         -2.0015      0.4475     -1.0304
     9         O         -3.0416      1.3884     -0.8720
    10         H          2.2890      1.8210     -0.7996
    11         H          3.0725      1.7393      0.7798
    12         H          1.4152      2.3358      0.6506
    13         H          2.4066     -0.5533      0.2054
    14         H          1.3642     -0.0023      1.5202
    15         H          0.6453      0.0689     -1.4925
    16         H         -0.0154     -2.0132      0.7322
    17         H         -0.5374      1.8294     -0.2248
    18         H         -1.5443     -0.4337      1.6312
    19         H         -2.2161      1.1910      1.5544
    20         H         -0.5454      0.9560      2.0864
    21         H         -1.6796      0.4358     -2.0862
    22         H         -2.4993     -0.5124     -0.7973
    23         H         -2.7237      2.2928     -1.0561

 General Reference for PM7:
 "Optimization of Parameters for Semiempirical Methods VI: More Modifications to the 
 NDDO Approximations and Re-optimization of Parameters", J. J. P. Stewart, J. Mol. Mod., 1:32, 19 (2013)
 https://link.springer.com/article/10.1007/s00894-012-1667-x

           Empirical Formula: C7 H14 O2  =    23 atoms



      MOLECULAR POINT GROUP   :   C1  


      RHF CALCULATION, NO. OF DOUBLY OCCUPIED LEVELS = 27

  SCF CRITERION =    0.1000E-07

 -------------------------------------------------------------------------------
 PM7 1SCF GRADIENTS DISP RELSCF=0.0001
 Title: ASE calculation



     1SCF WAS SPECIFIED, SO BFGS WAS NOT USED                 
     SCF FIELD WAS ACHIEVED                                   


                              PM7 CALCULATION
                                                       MOPAC v23.2 Linux
                                                       Fri Sep 19 21:27:28 2025




          FINAL HEAT OF FORMATION =       -103.98827 KCAL/MOL =    -435.08691 KJ/MOL

          TOTAL ENERGY            =     -37813.50056 KCAL/MOL = ELECTRONIC ENERGY + CORE-CORE REPULSION
          ENERGY OF ATOMS         =      37712.04263 KCAL/MOL
                              SUM =       -101.45793 KCAL/MOL
          DISPERSION ENERGY       =         -2.53033 KCAL/MOL
                              SUM =       -103.98827 KCAL/MOL = FINAL HEAT OF FORMATION



          TOTAL ENERGY            =      -1639.74858 EV
          ELECTRONIC ENERGY       =      -8278.59604 EV 
          CORE-CORE REPULSION     =       6638.84746 EV
          COSMO AREA              =        175.66 SQUARE ANGSTROMS
          COSMO VOLUME            =        182.48 CUBIC ANGSTROMS

          GRADIENT NORM           =          1.55169          =       0.32355 PER ATOM
          IONIZATION POTENTIAL    =         10.140450 EV
          HOMO LUMO ENERGIES (EV) =        -10.140  0.553
          NO. OF FILLED LEVELS    =         27
          MOLECULAR WEIGHT        =        130.1864         POINT GROUP:  C1  

          MOLECULAR DIMENSIONS (Angstroms)

            Atom       Atom       Distance
            H    11    O     9     6.34300
            O     5    H    19     4.74870
            H    16    H    10     4.04911


          SCF CALCULATIONS        =          1

          WALL-CLOCK TIME         =      0.672 SECONDS
          COMPUTATION TIME        =      0.360 SECONDS

          LARGEST ATOMIC GRADIENTS

          Atom     Label                     Cartesian Gradients           Cartesian Coordinates       |Gradient|
                                           X          Y          Z        X          Y          Z

             9       O                   0.058     -0.173     -0.393   -3.04160    1.38844   -0.87205      0.433
            17       H                   0.173      0.385     -0.069   -0.53743    1.82943   -0.22482      0.428
             8       C                   0.326      0.069      0.263   -2.00150    0.44748   -1.03036      0.424
             2       C                  -0.340      0.044     -0.223    1.60124    0.16750    0.45240      0.409
            13       H                  -0.293      0.150      0.233    2.40661   -0.55328    0.20544      0.403
            12       H                  -0.341      0.114      0.079    1.41523    2.33580    0.65058      0.368
            20       H                   0.123     -0.004     -0.347   -0.54535    0.95603    2.08641      0.368
            19       H                   0.251      0.059      0.234   -2.21612    1.19101    1.55438      0.348
            14       H                  -0.004     -0.027     -0.347    1.36419   -0.00232    1.52020      0.348
            22       H                   0.137      0.108     -0.299   -2.49931   -0.51241   -0.79730      0.346



       FINAL  POINT  AND  DERIVATIVES

   PARAMETER     ATOM    TYPE            VALUE        GRADIENT
      1          1  C    CARTESIAN X     2.118917     -0.186381  KCAL/ANGSTROM
      2          1  C    CARTESIAN Y     1.591880      0.069250  KCAL/ANGSTROM
      3          1  C    CARTESIAN Z     0.258363      0.155871  KCAL/ANGSTROM
      4          2  C    CARTESIAN X     1.601243     -0.339740  KCAL/ANGSTROM
      5          2  C    CARTESIAN Y     0.167500      0.043926  KCAL/ANGSTROM
      6          2  C    CARTESIAN Z     0.452397     -0.223372  KCAL/ANGSTROM
      7          3  C    CARTESIAN X     0.372831     -0.273017  KCAL/ANGSTROM
      8          3  C    CARTESIAN Y    -0.123472     -0.193834  KCAL/ANGSTROM
      9          3  C    CARTESIAN Z    -0.422138      0.045025  KCAL/ANGSTROM
     10          4  C    CARTESIAN X    -0.002332     -0.125090  KCAL/ANGSTROM
     11          4  C    CARTESIAN Y    -1.585841     -0.217333  KCAL/ANGSTROM
     12          4  C    CARTESIAN Z    -0.276300     -0.062815  KCAL/ANGSTROM
     13          5  O    CARTESIAN X    -0.277052      0.182699  KCAL/ANGSTROM
     14          5  O    CARTESIAN Y    -2.257955      0.022561  KCAL/ANGSTROM
     15          5  O    CARTESIAN Z    -1.238327      0.075667  KCAL/ANGSTROM
     16          6  C    CARTESIAN X    -0.838758      0.185002  KCAL/ANGSTROM
     17          6  C    CARTESIAN Y     0.761794      0.207525  KCAL/ANGSTROM
     18          6  C    CARTESIAN Z    -0.069035      0.142090  KCAL/ANGSTROM
     19          7  C    CARTESIAN X    -1.302497      0.091188  KCAL/ANGSTROM
     20          7  C    CARTESIAN Y     0.603060     -0.029941  KCAL/ANGSTROM
     21          7  C    CARTESIAN Z     1.378635     -0.025192  KCAL/ANGSTROM
     22          8  C    CARTESIAN X    -2.001499      0.325889  KCAL/ANGSTROM
     23          8  C    CARTESIAN Y     0.447484      0.069141  KCAL/ANGSTROM
     24          8  C    CARTESIAN Z    -1.030361      0.262813  KCAL/ANGSTROM
     25          9  O    CARTESIAN X    -3.041601      0.057860  KCAL/ANGSTROM
     26          9  O    CARTESIAN Y     1.388436     -0.172968  KCAL/ANGSTROM
     27          9  O    CARTESIAN Z    -0.872047     -0.392588  KCAL/ANGSTROM
     28         10  H    CARTESIAN X     2.288996     -0.061220  KCAL/ANGSTROM
     29         10  H    CARTESIAN Y     1.820961      0.044655  KCAL/ANGSTROM
     30         10  H    CARTESIAN Z    -0.799637      0.198205  KCAL/ANGSTROM
     31         11  H    CARTESIAN X     3.072476      0.187648  KCAL/ANGSTROM
     32         11  H    CARTESIAN Y     1.739314     -0.081610  KCAL/ANGSTROM
     33         11  H    CARTESIAN Z     0.779804     -0.105017  KCAL/ANGSTROM
     34         12  H    CARTESIAN X     1.415225     -0.341306  KCAL/ANGSTROM
     35         12  H    CARTESIAN Y     2.335798      0.114288  KCAL/ANGSTROM
     36         12  H    CARTESIAN Z     0.650580      0.078592  KCAL/ANGSTROM
     37         13  H    CARTESIAN X     2.406615     -0.292776  KCAL/ANGSTROM
     38         13  H    CARTESIAN Y    -0.553277      0.150270  KCAL/ANGSTROM
     39         13  H    CARTESIAN Z     0.205441      0.232855  KCAL/ANGSTROM
     40         14  H    CARTESIAN X     1.364194     -0.004251  KCAL/ANGSTROM
     41         14  H    CARTESIAN Y    -0.002324     -0.027209  KCAL/ANGSTROM
     42         14  H    CARTESIAN Z     1.520200     -0.346838  KCAL/ANGSTROM
     43         15  H    CARTESIAN X     0.645316     -0.162549  KCAL/ANGSTROM
     44         15  H    CARTESIAN Y     0.068869     -0.268183  KCAL/ANGSTROM
     45         15  H    CARTESIAN Z    -1.492520      0.145264  KCAL/ANGSTROM
     46         16  H    CARTESIAN X    -0.015421     -0.060263  KCAL/ANGSTROM
     47         16  H    CARTESIAN Y    -2.013158     -0.067494  KCAL/ANGSTROM
     48         16  H    CARTESIAN Z     0.732218     -0.260681  KCAL/ANGSTROM
     49         17  H    CARTESIAN X    -0.537431      0.173439  KCAL/ANGSTROM
     50         17  H    CARTESIAN Y     1.829430      0.384963  KCAL/ANGSTROM
     51         17  H    CARTESIAN Z    -0.224823     -0.069425  KCAL/ANGSTROM
     52         18  H    CARTESIAN X    -1.544344      0.125361  KCAL/ANGSTROM
     53         18  H    CARTESIAN Y    -0.433667      0.034055  KCAL/ANGSTROM
     54         18  H    CARTESIAN Z     1.631180      0.194870  KCAL/ANGSTROM
     55         19  H    CARTESIAN X    -2.216124      0.251004  KCAL/ANGSTROM
     56         19  H    CARTESIAN Y     1.191012      0.058805  KCAL/ANGSTROM
     57         19  H    CARTESIAN Z     1.554382      0.234251  KCAL/ANGSTROM
     58         20  H    CARTESIAN X    -0.545355      0.123086  KCAL/ANGSTROM
     59         20  H    CARTESIAN Y     0.956033     -0.004464  KCAL/ANGSTROM
     60         20  H    CARTESIAN Z     2.086411     -0.346929  KCAL/ANGSTROM
     61         21  H    CARTESIAN X    -1.679554     -0.144257  KCAL/ANGSTROM
     62         21  H    CARTESIAN Y     0.435764     -0.190053  KCAL/ANGSTROM
     63         21  H    CARTESIAN Z    -2.086237      0.227350  KCAL/ANGSTROM
     64         22  H    CARTESIAN X    -2.499305      0.136895  KCAL/ANGSTROM
     65         22  H    CARTESIAN Y    -0.512406      0.107779  KCAL/ANGSTROM
     66         22  H    CARTESIAN Z    -0.797302     -0.299379  KCAL/ANGSTROM
     67         23  H    CARTESIAN X    -2.723651      0.150782  KCAL/ANGSTROM
     68         23  H    CARTESIAN Y     2.292848     -0.054131  KCAL/ANGSTROM
     69         23  H    CARTESIAN Z    -1.056073      0.139385  KCAL/ANGSTROM




   ATOM   CHEMICAL          X               Y               Z
  NUMBER   SYMBOL      (ANGSTROMS)     (ANGSTROMS)     (ANGSTROMS)

     1       C          2.11891657  *   1.59187992  *   0.25836251  *
     2       C          1.60124343  *   0.16750033  *   0.45239731  *
     3       C          0.37283110  *  -0.12347224  *  -0.42213782  *
     4       C         -0.00233221  *  -1.58584090  *  -0.27630030  *
     5       O         -0.27705189  *  -2.25795470  *  -1.23832731  *
     6       C         -0.83875751  *   0.76179359  *  -0.06903484  *
     7       C         -1.30249664  *   0.60306008  *   1.37863507  *
     8       C         -2.00149890  *   0.44748420  *  -1.03036121  *
     9       O         -3.04160131  *   1.38843577  *  -0.87204692  *
    10       H          2.28899588  *   1.82096079  *  -0.79963740  *
    11       H          3.07247600  *   1.73931418  *   0.77980394  *
    12       H          1.41522531  *   2.33579771  *   0.65057969  *
    13       H          2.40661467  *  -0.55327736  *   0.20544113  *
    14       H          1.36419386  *  -0.00232442  *   1.52019993  *
    15       H          0.64531560  *   0.06886866  *  -1.49252018  *
    16       H         -0.01542084  *  -2.01315806  *   0.73221845  *
    17       H         -0.53743121  *   1.82943035  *  -0.22482327  *
    18       H         -1.54434379  *  -0.43366738  *   1.63117962  *
    19       H         -2.21612448  *   1.19101239  *   1.55438242  *
    20       H         -0.54535455  *   0.95603266  *   2.08641110  *
    21       H         -1.67955421  *   0.43576414  *  -2.08623739  *
    22       H         -2.49930543  *  -0.51240639  *  -0.79730154  *
    23       H         -2.72365095  *   2.29284838  *  -1.05607348  *

                             CARTESIAN COORDINATES

   1    C        2.118916570     1.591879915     0.258362511
   2    C        1.601243427     0.167500327     0.452397312
   3    C        0.372831098    -0.123472240    -0.422137821
   4    C       -0.002332206    -1.585840899    -0.276300299
   5    O       -0.277051886    -2.257954697    -1.238327310
   6    C       -0.838757511     0.761793585    -0.069034841
   7    C       -1.302496639     0.603060075     1.378635066
   8    C       -2.001498900     0.447484196    -1.030361208
   9    O       -3.041601311     1.388435772    -0.872046916
  10    H        2.288995884     1.820960789    -0.799637404
  11    H        3.072476005     1.739314182     0.779803941
  12    H        1.415225305     2.335797712     0.650579692
  13    H        2.406614670    -0.553277359     0.205441125
  14    H        1.364193862    -0.002324416     1.520199931
  15    H        0.645315597     0.068868665    -1.492520175
  16    H       -0.015420837    -2.013158064     0.732218451
  17    H       -0.537431213     1.829430350    -0.224823266
  18    H       -1.544343788    -0.433667383     1.631179620
  19    H       -2.216124481     1.191012394     1.554382418
  20    H       -0.545354549     0.956032656     2.086411104
  21    H       -1.679554210     0.435764143    -2.086237391
  22    H       -2.499305426    -0.512406394    -0.797301539
  23    H       -2.723650946     2.292848381    -1.056073482


           Empirical Formula: C7 H14 O2  =    23 atoms



      MOLECULAR POINT GROUP   :   C1  


                  EIGENVALUES  
 -31.42447 -30.27820 -29.13873 -26.90658 -24.83743 -23.88186 -21.55233 -21.05417
 -19.03533 -17.21550 -16.78072 -16.58946 -15.76617 -15.16664 -14.69660 -14.40917
 -14.07818 -13.81455 -13.20337 -13.02023 -12.95221 -12.68757 -12.11269 -11.82249
 -11.59109 -10.63130 -10.14045   0.55256   2.74254   3.12510   3.41664   3.70017
   3.98464   4.11851   4.21156   4.77601   5.09496   5.10278   5.31174   5.48266
   5.50259   5.59702   5.66616   5.70598   5.77481   5.87023   6.07927   6.25456
   6.65835   6.81891


              NET ATOMIC CHARGES AND DIPOLE CONTRIBUTIONS

  ATOM NO.   TYPE          CHARGE      No. of ELECS.   s-Pop       p-Pop       
    1          C          -0.435316        4.4353     1.05158     3.38374
    2          C          -0.251582        4.2516     1.05604     3.19554
    3          C          -0.243633        4.2436     1.07962     3.16402
    4          C           0.339808        3.6602     1.15087     2.50932
    5          O          -0.440234        6.4402     1.87732     4.56292
    6          C          -0.131366        4.1314     1.06786     3.06351
    7          C          -0.449116        4.4491     1.05409     3.39503
    8          C          -0.020300        4.0203     1.09108     2.92922
    9          O          -0.539298        6.5393     1.84887     4.69043
   10          H           0.146638        0.8534     0.85336
   11          H           0.144633        0.8554     0.85537
   12          H           0.144960        0.8550     0.85504
   13          H           0.139656        0.8603     0.86034
   14          H           0.140952        0.8590     0.85905
   15          H           0.168242        0.8318     0.83176
   16          H           0.110232        0.8898     0.88977
   17          H           0.142821        0.8572     0.85718
   18          H           0.144057        0.8559     0.85594
   19          H           0.164515        0.8355     0.83549
   20          H           0.143499        0.8565     0.85650
   21          H           0.122395        0.8776     0.87760
   22          H           0.151973        0.8480     0.84803
   23          H           0.306465        0.6935     0.69353
 DIPOLE           X         Y         Z       TOTAL
 POINT-CHG.     2.591     1.925     2.061     3.830
 HYBRID        -0.033     0.352    -0.156     0.386
 SUM            2.558     2.277     1.906     3.919


          ATOMIC ORBITAL ELECTRON POPULATIONS

     Atom    s        px        py        pz   
    1  C   1.05158   1.15674   1.05158   1.17542
    2  C   1.05604   1.04558   1.04161   1.10835
    3  C   1.07962   1.01242   1.02572   1.12588
    4  C   1.15087   0.67578   0.89665   0.93690
    5  O   1.87732   1.37462   1.67387   1.51443
    6  C   1.06786   0.97735   1.08862   0.99754
    7  C   1.05409   1.16903   1.18108   1.04492
    8  C   1.09108   0.90214   0.96355   1.06352
    9  O   1.84887   1.43315   1.31364   1.94364
   10  H   0.85336
   11  H   0.85537
   12  H   0.85504
   13  H   0.86034
   14  H   0.85905
   15  H   0.83176
   16  H   0.88977
   17  H   0.85718
   18  H   0.85594
   19  H   0.83549
   20  H   0.85650
   21  H   0.87760
   22  H   0.84803
   23  H   0.69353

 **********************
 *                    *
 * JOB ENDED NORMALLY *
 *                    *
 **********************



 TOTAL JOB TIME:             1.15 SECONDS

 == MOPAC DONE ==
