 *******************************************************************************
 **                                                                           **
 **                              MOPAC v23.2                                  **
 **                                                                           **
 *******************************************************************************
 **          Digital Object Identifier (DOI): 10.5281/zenodo.6511958          **
 **    Visit the DOI location for information on how to cite this program.    **
 *******************************************************************************

                              PM7 CALCULATION RESULTS

 *******************************************************************************
 *  CALCULATION DONE: (MAX THREADS = 40)             Fri Sep 19 21:28:27 2025  *
 *  PM7        - The PM7 Hamiltonian to be used
 *
 *
 *
 *                 CHARGE ON SYSTEM = +1
 *
 *
 *
 *  1SCF       - DO 1 SCF AND THEN STOP 
 *  T=         - A TIME OF 172800.0 SECONDS REQUESTED
 *  DUMP=N     - RESTART FILE WRITTEN EVERY 7200.0 SECONDS REQUESTED
 *  RELSCF     - DEFAULT SCF CRITERION MULTIPLIED BY 0.0001
 *              (DEFAULT SCF CRITERION = 0.00010)
 *  GRADIENTS  - ALL GRADIENTS TO BE PRINTED
 *  DISP       - PRINT DISPERSION AND HYDROGEN BOND ENERGIES
 *******************************************************************************
PM7 1SCF GRADIENTS DISP RELSCF=0.0001 CHARGE=1
 Title: ASE calculation

   ATOM   CHEMICAL          X               Y               Z
  NUMBER   SYMBOL      (ANGSTROMS)     (ANGSTROMS)     (ANGSTROMS)

     1       C         -3.57322329  *   0.64990465  *   0.58897355  *
     2       C         -2.67865960  *   0.65666660  *  -0.63463206  *
     3       O         -1.30410185  *   0.48347856  *  -0.30077154  *
     4       C         -0.98764826  *  -0.81709216  *   0.18173368  *
     5       C          0.42082115  *  -0.77974565  *   0.42826758  *
     6       C          1.69441115  *  -0.67385161  *   0.64217080  *
     7       C          3.04926380  *  -0.65322983  *   0.88922623  *
     8       N          3.63728643  *   0.73683989  *   0.67526384  *
     9       O          3.87512935  *  -1.44486358  *   1.22770809  *
    10       H         -3.18106081  *   1.30385392  *   1.38024611  *
    11       H         -4.57982773  *   1.02384475  *   0.33981623  *
    12       H         -3.70977149  *  -0.34896951  *   1.01768851  *
    13       H         -2.97832640  *  -0.08854997  *  -1.39253777  *
    14       H         -2.62768373  *   1.66146995  *  -1.11119878  *
    15       H         -1.57118117  *  -1.02978576  *   1.11716002  *
    16       H         -1.26977351  *  -1.58906661  *  -0.58110529  *
    17       H          3.06427158  *   1.51460411  *   0.38485647  *
    18       H          4.62480228  *   0.90290649  *   0.82251716  *



          CARTESIAN COORDINATES 

    NO.       ATOM           X           Y           Z

     1         C         -3.5732      0.6499      0.5890
     2         C         -2.6787      0.6567     -0.6346
     3         O         -1.3041      0.4835     -0.3008
     4         C         -0.9876     -0.8171      0.1817
     5         C          0.4208     -0.7797      0.4283
     6         C          1.6944     -0.6739      0.6422
     7         C          3.0493     -0.6532      0.8892
     8         N          3.6373      0.7368      0.6753
     9         O          3.8751     -1.4449      1.2277
    10         H         -3.1811      1.3039      1.3802
    11         H         -4.5798      1.0238      0.3398
    12         H         -3.7098     -0.3490      1.0177
    13         H         -2.9783     -0.0885     -1.3925
    14         H         -2.6277      1.6615     -1.1112
    15         H         -1.5712     -1.0298      1.1172
    16         H         -1.2698     -1.5891     -0.5811
    17         H          3.0643      1.5146      0.3849
    18         H          4.6248      0.9029      0.8225

 General Reference for PM7:
 "Optimization of Parameters for Semiempirical Methods VI: More Modifications to the 
 NDDO Approximations and Re-optimization of Parameters", J. J. P. Stewart, J. Mol. Mod., 1:32, 19 (2013)
 https://link.springer.com/article/10.1007/s00894-012-1667-x

           Empirical Formula: C6 H9 N O2  =    18 atoms



      MOLECULAR POINT GROUP   :   C1  


          UHF CALCULATION, NO. OF ALPHA ELECTRONS =   25
                           NO. OF BETA  ELECTRONS =   24
  SCF CRITERION =    0.1000E-07

 -------------------------------------------------------------------------------
 PM7 1SCF GRADIENTS DISP RELSCF=0.0001 CHARGE=1
 Title: ASE calculation



     1SCF WAS SPECIFIED, SO BFGS WAS NOT USED                 
     SCF FIELD WAS ACHIEVED                                   


                              PM7 CALCULATION
                                                       MOPAC v23.2 Linux
                                                       Fri Sep 19 21:28:28 2025




          FINAL HEAT OF FORMATION =        178.20235 KCAL/MOL =     745.59864 KJ/MOL

          TOTAL ENERGY            =     -37462.31792 KCAL/MOL = ELECTRONIC ENERGY + CORE-CORE REPULSION
          ENERGY OF ATOMS         =      37638.97832 KCAL/MOL
                              SUM =        176.66039 KCAL/MOL
          DISPERSION ENERGY       =         -1.41007 KCAL/MOL
          H-BOND ENERGY           =         -0.08756 KCAL/MOL
          MM CORR. FOR -CO-NH-    =          0.00003 KCAL/MOL
                              SUM =        175.16279 KCAL/MOL = FINAL HEAT OF FORMATION

     *    WARNING - An energy term is incorrect or missing!

     *    FINAL HEAT OF FORMATION     =    178.20235 KCAL/MOL
     *    SUM OF CONTRIBUTIONS TO HoF =    175.16279 KCAL/MOL
     *                     DIFFERENCE =      3.03957 KCAL/MOL



          TOTAL ENERGY            =      -1624.51986 EV
          ELECTRONIC ENERGY       =      -6838.04947 EV 
          CORE-CORE REPULSION     =       5213.52961 EV
          COSMO AREA              =        179.93 SQUARE ANGSTROMS
          COSMO VOLUME            =        163.87 CUBIC ANGSTROMS

          GRADIENT NORM           =          1.01506          =       0.23925 PER ATOM
          IONIZATION POTENTIAL    =         13.864124 EV
          ALPHA SOMO LUMO (EV)    =        -13.870 -5.407
          BETA  SOMO LUMO (EV)    =        -13.864 -7.931
          NO. OF ALPHA ELECTRONS  =         25
          NO. OF BETA  ELECTRONS  =         24
          MOLECULAR WEIGHT        =        127.1426         POINT GROUP:  C1  

          MOLECULAR DIMENSIONS (Angstroms)

            Atom       Atom       Distance
            H    18    H    11     9.21807
            O     9    H    14     3.61892
            H    10    H    16     3.29932


          SCF CALCULATIONS        =          1

          WALL-CLOCK TIME         =      1.305 SECONDS
          COMPUTATION TIME        =      1.027 SECONDS

          LARGEST ATOMIC GRADIENTS

          Atom     Label                     Cartesian Gradients           Cartesian Coordinates       |Gradient|
                                           X          Y          Z        X          Y          Z

             3       O                   0.197     -0.218     -0.260   -1.30410    0.48348   -0.30077      0.392
             7       C                  -0.112     -0.345      0.087    3.04926   -0.65323    0.88923      0.373
            16       H                  -0.275      0.167     -0.051   -1.26977   -1.58907   -0.58111      0.326
            17       H                   0.025      0.295     -0.093    3.06427    1.51460    0.38486      0.310
            15       H                  -0.013      0.279     -0.017   -1.57118   -1.02979    1.11716      0.279
            11       H                  -0.052     -0.197     -0.172   -4.57983    1.02384    0.33982      0.267
            12       H                  -0.013      0.019      0.253   -3.70977   -0.34897    1.01769      0.254
            13       H                   0.212     -0.035      0.075   -2.97833   -0.08855   -1.39254      0.228
            14       H                  -0.041      0.188      0.104   -2.62768    1.66147   -1.11120      0.219
             5       C                   0.167     -0.139     -0.009    0.42082   -0.77975    0.42827      0.217



       FINAL  POINT  AND  DERIVATIVES

   PARAMETER     ATOM    TYPE            VALUE        GRADIENT
      1          1  C    CARTESIAN X    -3.573223      0.036561  KCAL/ANGSTROM
      2          1  C    CARTESIAN Y     0.649905     -0.069134  KCAL/ANGSTROM
      3          1  C    CARTESIAN Z     0.588974     -0.007578  KCAL/ANGSTROM
      4          2  C    CARTESIAN X    -2.678660      0.098007  KCAL/ANGSTROM
      5          2  C    CARTESIAN Y     0.656667      0.049907  KCAL/ANGSTROM
      6          2  C    CARTESIAN Z    -0.634632      0.089700  KCAL/ANGSTROM
      7          3  O    CARTESIAN X    -1.304102      0.196507  KCAL/ANGSTROM
      8          3  O    CARTESIAN Y     0.483479     -0.217781  KCAL/ANGSTROM
      9          3  O    CARTESIAN Z    -0.300772     -0.260390  KCAL/ANGSTROM
     10          4  C    CARTESIAN X    -0.987648      0.096906  KCAL/ANGSTROM
     11          4  C    CARTESIAN Y    -0.817092     -0.122218  KCAL/ANGSTROM
     12          4  C    CARTESIAN Z     0.181734      0.032423  KCAL/ANGSTROM
     13          5  C    CARTESIAN X     0.420821      0.166912  KCAL/ANGSTROM
     14          5  C    CARTESIAN Y    -0.779746     -0.138696  KCAL/ANGSTROM
     15          5  C    CARTESIAN Z     0.428268     -0.009460  KCAL/ANGSTROM
     16          6  C    CARTESIAN X     1.694411     -0.165215  KCAL/ANGSTROM
     17          6  C    CARTESIAN Y    -0.673852     -0.071893  KCAL/ANGSTROM
     18          6  C    CARTESIAN Z     0.642171      0.008068  KCAL/ANGSTROM
     19          7  C    CARTESIAN X     3.049264     -0.111563  KCAL/ANGSTROM
     20          7  C    CARTESIAN Y    -0.653230     -0.345202  KCAL/ANGSTROM
     21          7  C    CARTESIAN Z     0.889226      0.087179  KCAL/ANGSTROM
     22          8  N    CARTESIAN X     3.637286      0.000301  KCAL/ANGSTROM
     23          8  N    CARTESIAN Y     0.736840      0.180065  KCAL/ANGSTROM
     24          8  N    CARTESIAN Z     0.675264     -0.003060  KCAL/ANGSTROM
     25          9  O    CARTESIAN X     3.875129     -0.110600  KCAL/ANGSTROM
     26          9  O    CARTESIAN Y    -1.444864     -0.143825  KCAL/ANGSTROM
     27          9  O    CARTESIAN Z     1.227708     -0.022113  KCAL/ANGSTROM
     28         10  H    CARTESIAN X    -3.181061     -0.052414  KCAL/ANGSTROM
     29         10  H    CARTESIAN Y     1.303854      0.019528  KCAL/ANGSTROM
     30         10  H    CARTESIAN Z     1.380246     -0.004620  KCAL/ANGSTROM
     31         11  H    CARTESIAN X    -4.579828     -0.052168  KCAL/ANGSTROM
     32         11  H    CARTESIAN Y     1.023845     -0.197079  KCAL/ANGSTROM
     33         11  H    CARTESIAN Z     0.339816     -0.172361  KCAL/ANGSTROM
     34         12  H    CARTESIAN X    -3.709771     -0.013267  KCAL/ANGSTROM
     35         12  H    CARTESIAN Y    -0.348970      0.018603  KCAL/ANGSTROM
     36         12  H    CARTESIAN Z     1.017689      0.252714  KCAL/ANGSTROM
     37         13  H    CARTESIAN X    -2.978326      0.212291  KCAL/ANGSTROM
     38         13  H    CARTESIAN Y    -0.088550     -0.035425  KCAL/ANGSTROM
     39         13  H    CARTESIAN Z    -1.392538      0.074529  KCAL/ANGSTROM
     40         14  H    CARTESIAN X    -2.627684     -0.041230  KCAL/ANGSTROM
     41         14  H    CARTESIAN Y     1.661470      0.188121  KCAL/ANGSTROM
     42         14  H    CARTESIAN Z    -1.111199      0.104438  KCAL/ANGSTROM
     43         15  H    CARTESIAN X    -1.571181     -0.013151  KCAL/ANGSTROM
     44         15  H    CARTESIAN Y    -1.029786      0.278663  KCAL/ANGSTROM
     45         15  H    CARTESIAN Z     1.117160     -0.016976  KCAL/ANGSTROM
     46         16  H    CARTESIAN X    -1.269774     -0.275138  KCAL/ANGSTROM
     47         16  H    CARTESIAN Y    -1.589067      0.167054  KCAL/ANGSTROM
     48         16  H    CARTESIAN Z    -0.581105     -0.051086  KCAL/ANGSTROM
     49         17  H    CARTESIAN X     3.064272      0.025084  KCAL/ANGSTROM
     50         17  H    CARTESIAN Y     1.514604      0.294664  KCAL/ANGSTROM
     51         17  H    CARTESIAN Z     0.384856     -0.092589  KCAL/ANGSTROM
     52         18  H    CARTESIAN X     4.624802      0.002172  KCAL/ANGSTROM
     53         18  H    CARTESIAN Y     0.902906      0.144641  KCAL/ANGSTROM
     54         18  H    CARTESIAN Z     0.822517     -0.008811  KCAL/ANGSTROM




   ATOM   CHEMICAL          X               Y               Z
  NUMBER   SYMBOL      (ANGSTROMS)     (ANGSTROMS)     (ANGSTROMS)

     1       C         -3.57322329  *   0.64990465  *   0.58897355  *
     2       C         -2.67865960  *   0.65666660  *  -0.63463206  *
     3       O         -1.30410185  *   0.48347856  *  -0.30077154  *
     4       C         -0.98764826  *  -0.81709216  *   0.18173368  *
     5       C          0.42082115  *  -0.77974565  *   0.42826758  *
     6       C          1.69441115  *  -0.67385161  *   0.64217080  *
     7       C          3.04926380  *  -0.65322983  *   0.88922623  *
     8       N          3.63728643  *   0.73683989  *   0.67526384  *
     9       O          3.87512935  *  -1.44486358  *   1.22770809  *
    10       H         -3.18106081  *   1.30385392  *   1.38024611  *
    11       H         -4.57982773  *   1.02384475  *   0.33981623  *
    12       H         -3.70977149  *  -0.34896951  *   1.01768851  *
    13       H         -2.97832640  *  -0.08854997  *  -1.39253777  *
    14       H         -2.62768373  *   1.66146995  *  -1.11119878  *
    15       H         -1.57118117  *  -1.02978576  *   1.11716002  *
    16       H         -1.26977351  *  -1.58906661  *  -0.58110529  *
    17       H          3.06427158  *   1.51460411  *   0.38485647  *
    18       H          4.62480228  *   0.90290649  *   0.82251716  *

                             CARTESIAN COORDINATES

   1    C       -3.573223287     0.649904647     0.588973547
   2    C       -2.678659602     0.656666601    -0.634632063
   3    O       -1.304101849     0.483478561    -0.300771538
   4    C       -0.987648264    -0.817092163     0.181733679
   5    C        0.420821153    -0.779745650     0.428267579
   6    C        1.694411148    -0.673851605     0.642170796
   7    C        3.049263795    -0.653229829     0.889226232
   8    N        3.637286427     0.736839891     0.675263844
   9    O        3.875129345    -1.444863578     1.227708089
  10    H       -3.181060813     1.303853917     1.380246108
  11    H       -4.579827729     1.023844752     0.339816227
  12    H       -3.709771489    -0.348969515     1.017688511
  13    H       -2.978326403    -0.088549974    -1.392537765
  14    H       -2.627683733     1.661469945    -1.111198778
  15    H       -1.571181170    -1.029785759     1.117160021
  16    H       -1.269773512    -1.589066606    -0.581105292
  17    H        3.064271581     1.514604106     0.384856470
  18    H        4.624802278     0.902906494     0.822517156


           Empirical Formula: C6 H9 N O2  =    18 atoms



      MOLECULAR POINT GROUP   :   C1  


          ALPHA EIGENVALUES  
 -42.73696 -37.19427 -33.78111 -31.63305 -30.41289 -29.34105 -27.33593 -24.86916
 -24.55335 -23.43122 -21.32515 -21.24458 -20.69091 -20.40307 -19.83721 -18.74866
 -18.03300 -17.70554 -16.96051 -16.71788 -15.95075 -15.71043 -15.53658 -14.89872
 -13.87034  -5.40660  -4.90828  -3.70878  -3.07592  -1.61355  -1.42883  -1.21523
  -0.84609  -0.61121   0.11720   0.72533   0.96667   0.97122   1.13060   1.50753
   2.24519   2.67502   2.86342   2.91571   3.95676


           BETA EIGENVALUES 
 -40.53574 -36.77736 -33.78573 -31.61155 -30.32015 -29.32051 -27.22719 -24.57582
 -24.34025 -23.00137 -21.23189 -20.72385 -20.35626 -20.20458 -19.67608 -18.03190
 -17.70448 -16.74255 -16.61724 -15.94671 -15.70519 -15.42294 -14.89006 -13.86412
  -7.93112  -5.04153  -4.67777  -3.42432  -2.99901  -1.56052  -1.36962  -0.87322
  -0.78972  -0.53242   0.41587   0.72850   0.96645   0.96998   1.13042   1.50663
   2.24506   2.67497   2.86336   2.91564   3.95675


              NET ATOMIC CHARGES AND DIPOLE CONTRIBUTIONS

  ATOM NO.   TYPE          CHARGE      No. of ELECS.   s-Pop       p-Pop       
    1          C          -0.488410        4.4884     1.05648     3.43193
    2          C          -0.015343        4.0153     1.09168     2.92367
    3          O          -0.381197        6.3812     1.88783     4.49337
    4          C          -0.090136        4.0901     1.07601     3.01413
    5          C           0.343470        3.6565     1.17576     2.48077
    6          C          -0.429434        4.4294     1.05503     3.37441
    7          C           0.575852        3.4241     1.07957     2.34458
    8          N          -0.137206        5.1372     1.59900     3.53821
    9          O          -0.206397        6.2064     1.88623     4.32017
   10          H           0.165979        0.8340     0.83402
   11          H           0.180848        0.8192     0.81915
   12          H           0.152890        0.8471     0.84711
   13          H           0.133043        0.8670     0.86696
   14          H           0.162228        0.8378     0.83777
   15          H           0.197290        0.8027     0.80271
   16          H           0.194281        0.8057     0.80572
   17          H           0.319532        0.6805     0.68047
   18          H           0.322710        0.6773     0.67729
 DIPOLE           X         Y         Z       TOTAL
 POINT-CHG.     4.727     2.113     0.142     5.179
 HYBRID         0.918     0.555     0.096     1.077
 SUM            5.645     2.667     0.237     6.248


          ATOMIC ORBITAL ELECTRON POPULATIONS

     Atom    s        px        py        pz   
    1  C   1.05648   1.14348   1.19037   1.09808
    2  C   1.09168   0.77359   1.13509   1.01499
    3  O   1.88783   1.35439   1.27030   1.86867
    4  C   1.07601   0.92354   0.95330   1.13729
    5  C   1.17576   0.94879   0.80730   0.72469
    6  C   1.05503   0.96892   1.17761   1.22788
    7  C   1.07957   0.86714   0.72661   0.75083
    8  N   1.59900   1.24154   1.26055   1.03612
    9  O   1.88623   1.49810   1.48506   1.33700
   10  H   0.83402
   11  H   0.81915
   12  H   0.84711
   13  H   0.86696
   14  H   0.83777
   15  H   0.80271
   16  H   0.80572
   17  H   0.68047
   18  H   0.67729


                    (SZ)    =    0.500000
                    (S**2)  =    0.769593


          ATOMIC ORBITAL SPIN POPULATIONS

    Atom   Total    s     px     py     pz   
         Atomic
    1  C  0.0000  0.000  0.000 -0.000 -0.000
    2  C -0.0001  0.000 -0.000 -0.000 -0.000
    3  O -0.0011 -0.000 -0.000 -0.001 -0.000
    4  C  0.0018  0.000  0.001  0.001  0.000
    5  C -0.0382 -0.001 -0.002 -0.017 -0.018
    6  C  0.0299 -0.001 -0.000  0.014  0.018
    7  C -0.0975 -0.003 -0.009 -0.028 -0.058
    8  N  1.0984  0.047  0.078  0.103  0.870
    9  O  0.0899  0.002  0.000 -0.021  0.108
   10  H -0.0000 -0.000
   11  H -0.0000 -0.000
   12  H -0.0000 -0.000
   13  H  0.0000  0.000
   14  H -0.0001 -0.000
   15  H -0.0007 -0.001
   16  H -0.0007 -0.001
   17  H -0.0409 -0.041
   18  H -0.0406 -0.041

 **********************
 *                    *
 * JOB ENDED NORMALLY *
 *                    *
 **********************



 TOTAL JOB TIME:             1.53 SECONDS

 == MOPAC DONE ==
