 *******************************************************************************
 **                                                                           **
 **                              MOPAC v23.2                                  **
 **                                                                           **
 *******************************************************************************
 **          Digital Object Identifier (DOI): 10.5281/zenodo.6511958          **
 **    Visit the DOI location for information on how to cite this program.    **
 *******************************************************************************

                              PM7 CALCULATION RESULTS

 *******************************************************************************
 *  CALCULATION DONE: (MAX THREADS = 40)             Fri Sep 19 21:29:53 2025  *
 *  PM7        - The PM7 Hamiltonian to be used
 *  1SCF       - DO 1 SCF AND THEN STOP 
 *  T=         - A TIME OF 172800.0 SECONDS REQUESTED
 *  DUMP=N     - RESTART FILE WRITTEN EVERY 7200.0 SECONDS REQUESTED
 *  RELSCF     - DEFAULT SCF CRITERION MULTIPLIED BY 0.0001
 *              (DEFAULT SCF CRITERION = 0.00010)
 *  GRADIENTS  - ALL GRADIENTS TO BE PRINTED
 *  DISP       - PRINT DISPERSION AND HYDROGEN BOND ENERGIES
 *******************************************************************************
PM7 1SCF GRADIENTS DISP RELSCF=0.0001
 Title: ASE calculation

   ATOM   CHEMICAL          X               Y               Z
  NUMBER   SYMBOL      (ANGSTROMS)     (ANGSTROMS)     (ANGSTROMS)

     1       C          2.99264903  *  -0.06785308  *   0.58894239  *
     2       C          1.60998696  *  -0.71357221  *   0.51376422  *
     3       C          0.55157269  *   0.31227723  *   0.07948562  *
     4       C         -0.78893993  *  -0.30230335  *  -0.01086687  *
     5       C         -1.24714830  *  -1.51529728  *  -0.93383397  *
     6       C         -2.53794910  *  -1.07330486  *  -0.12935060  *
     7       C         -1.61903884  *  -0.98738292  *   1.15168301  *
     8       C         -2.13768949  *   0.42815847  *  -0.46976883  *
     9       C         -2.70124738  *   1.56070344  *   0.34472025  *
    10       H          3.01257971  *   0.75463189  *   1.31316983  *
    11       H          3.75251484  *  -0.79530944  *   0.89574188  *
    12       H          3.29856866  *   0.33849623  *  -0.38207082  *
    13       H          1.62281967  *  -1.56194533  *  -0.19748309  *
    14       H          1.33416017  *  -1.14280028  *   1.49623512  *
    15       H          0.53208358  *   1.16037039  *   0.79630544  *
    16       H          0.83605112  *   0.75638618  *  -0.89725551  *
    17       H         -1.24340185  *  -1.35469124  *  -2.00484479  *
    18       H         -0.83189065  *  -2.49023748  *  -0.71198550  *
    19       H         -3.50426309  *  -1.50065126  *  -0.18806736  *
    20       H         -1.23361639  *  -1.91899350  *   1.55005592  *
    21       H         -1.94791458  *  -0.36043221  *   1.97093397  *
    22       H         -2.17025194  *   0.67553510  *  -1.53916012  *
    23       H         -2.68319975  *   1.37143177  *   1.42408217  *
    24       H         -3.74670915  *   1.75507002  *   0.07103833  *
    25       H         -2.13531368  *   2.48544915  *   0.17340243  *



          CARTESIAN COORDINATES 

    NO.       ATOM           X           Y           Z

     1         C          2.9926     -0.0679      0.5889
     2         C          1.6100     -0.7136      0.5138
     3         C          0.5516      0.3123      0.0795
     4         C         -0.7889     -0.3023     -0.0109
     5         C         -1.2471     -1.5153     -0.9338
     6         C         -2.5379     -1.0733     -0.1294
     7         C         -1.6190     -0.9874      1.1517
     8         C         -2.1377      0.4282     -0.4698
     9         C         -2.7012      1.5607      0.3447
    10         H          3.0126      0.7546      1.3132
    11         H          3.7525     -0.7953      0.8957
    12         H          3.2986      0.3385     -0.3821
    13         H          1.6228     -1.5619     -0.1975
    14         H          1.3342     -1.1428      1.4962
    15         H          0.5321      1.1604      0.7963
    16         H          0.8361      0.7564     -0.8973
    17         H         -1.2434     -1.3547     -2.0048
    18         H         -0.8319     -2.4902     -0.7120
    19         H         -3.5043     -1.5007     -0.1881
    20         H         -1.2336     -1.9190      1.5501
    21         H         -1.9479     -0.3604      1.9709
    22         H         -2.1703      0.6755     -1.5392
    23         H         -2.6832      1.3714      1.4241
    24         H         -3.7467      1.7551      0.0710
    25         H         -2.1353      2.4854      0.1734

 General Reference for PM7:
 "Optimization of Parameters for Semiempirical Methods VI: More Modifications to the 
 NDDO Approximations and Re-optimization of Parameters", J. J. P. Stewart, J. Mol. Mod., 1:32, 19 (2013)
 https://link.springer.com/article/10.1007/s00894-012-1667-x

           Empirical Formula: C9 H16  =    25 atoms



      MOLECULAR POINT GROUP   :   C1  


      RHF CALCULATION, NO. OF DOUBLY OCCUPIED LEVELS = 26

  SCF CRITERION =    0.1000E-07

 -------------------------------------------------------------------------------
 PM7 1SCF GRADIENTS DISP RELSCF=0.0001
 Title: ASE calculation



     1SCF WAS SPECIFIED, SO BFGS WAS NOT USED                 
     SCF FIELD WAS ACHIEVED                                   


                              PM7 CALCULATION
                                                       MOPAC v23.2 Linux
                                                       Fri Sep 19 21:29:53 2025




          FINAL HEAT OF FORMATION =         44.53766 KCAL/MOL =     186.34556 KJ/MOL

          TOTAL ENERGY            =     -30420.28322 KCAL/MOL = ELECTRONIC ENERGY + CORE-CORE REPULSION
          ENERGY OF ATOMS         =      30467.18356 KCAL/MOL
                              SUM =         46.90034 KCAL/MOL
          DISPERSION ENERGY       =         -2.36268 KCAL/MOL
                              SUM =         44.53766 KCAL/MOL = FINAL HEAT OF FORMATION



          TOTAL ENERGY            =      -1319.14833 EV
          ELECTRONIC ENERGY       =      -7571.19159 EV 
          CORE-CORE REPULSION     =       6252.04325 EV
          COSMO AREA              =        184.34 SQUARE ANGSTROMS
          COSMO VOLUME            =        189.54 CUBIC ANGSTROMS

          GRADIENT NORM           =          1.21530          =       0.24306 PER ATOM
          IONIZATION POTENTIAL    =         10.464920 EV
          HOMO LUMO ENERGIES (EV) =        -10.465  2.955
          NO. OF FILLED LEVELS    =         26
          MOLECULAR WEIGHT        =        124.2254         POINT GROUP:  C1  

          MOLECULAR DIMENSIONS (Angstroms)

            Atom       Atom       Distance
            H    24    H    11     7.96385
            H    18    H    10     4.64996
            H    16    H    21     3.59601


          SCF CALCULATIONS        =          1

          WALL-CLOCK TIME         =      0.719 SECONDS
          COMPUTATION TIME        =      0.744 SECONDS

          LARGEST ATOMIC GRADIENTS

          Atom     Label                     Cartesian Gradients           Cartesian Coordinates       |Gradient|
                                           X          Y          Z        X          Y          Z

            14       H                  -0.027     -0.003      0.408    1.33416   -1.14280    1.49624      0.409
            13       H                   0.103     -0.194     -0.343    1.62282   -1.56195   -0.19748      0.407
             4       C                   0.103     -0.346      0.058   -0.78894   -0.30230   -0.01087      0.366
            19       H                   0.257      0.124      0.200   -3.50426   -1.50065   -0.18807      0.348
            17       H                  -0.091      0.273      0.165   -1.24340   -1.35469   -2.00484      0.331
            12       H                   0.039      0.086     -0.270    3.29857    0.33850   -0.38207      0.286
            22       H                   0.163     -0.038      0.212   -2.17025    0.67554   -1.53916      0.270
            21       H                   0.138      0.009     -0.227   -1.94791   -0.36043    1.97093      0.266
            18       H                  -0.075      0.202     -0.144   -0.83189   -2.49024   -0.71199      0.260
            20       H                   0.012      0.253     -0.045   -1.23362   -1.91899    1.55006      0.257



       FINAL  POINT  AND  DERIVATIVES

   PARAMETER     ATOM    TYPE            VALUE        GRADIENT
      1          1  C    CARTESIAN X     2.992649     -0.040983  KCAL/ANGSTROM
      2          1  C    CARTESIAN Y    -0.067853      0.099440  KCAL/ANGSTROM
      3          1  C    CARTESIAN Z     0.588942     -0.051416  KCAL/ANGSTROM
      4          2  C    CARTESIAN X     1.609987     -0.098840  KCAL/ANGSTROM
      5          2  C    CARTESIAN Y    -0.713572     -0.202293  KCAL/ANGSTROM
      6          2  C    CARTESIAN Z     0.513764      0.039714  KCAL/ANGSTROM
      7          3  C    CARTESIAN X     0.551573     -0.124923  KCAL/ANGSTROM
      8          3  C    CARTESIAN Y     0.312277     -0.100130  KCAL/ANGSTROM
      9          3  C    CARTESIAN Z     0.079486      0.053682  KCAL/ANGSTROM
     10          4  C    CARTESIAN X    -0.788940      0.103301  KCAL/ANGSTROM
     11          4  C    CARTESIAN Y    -0.302303     -0.345949  KCAL/ANGSTROM
     12          4  C    CARTESIAN Z    -0.010867      0.058413  KCAL/ANGSTROM
     13          5  C    CARTESIAN X    -1.247148     -0.068824  KCAL/ANGSTROM
     14          5  C    CARTESIAN Y    -1.515297      0.067362  KCAL/ANGSTROM
     15          5  C    CARTESIAN Z    -0.933834      0.027332  KCAL/ANGSTROM
     16          6  C    CARTESIAN X    -2.537949     -0.013084  KCAL/ANGSTROM
     17          6  C    CARTESIAN Y    -1.073305      0.120101  KCAL/ANGSTROM
     18          6  C    CARTESIAN Z    -0.129351      0.017508  KCAL/ANGSTROM
     19          7  C    CARTESIAN X    -1.619039     -0.013652  KCAL/ANGSTROM
     20          7  C    CARTESIAN Y    -0.987383     -0.010946  KCAL/ANGSTROM
     21          7  C    CARTESIAN Z     1.151683     -0.105239  KCAL/ANGSTROM
     22          8  C    CARTESIAN X    -2.137689     -0.010694  KCAL/ANGSTROM
     23          8  C    CARTESIAN Y     0.428158     -0.152019  KCAL/ANGSTROM
     24          8  C    CARTESIAN Z    -0.469769      0.073905  KCAL/ANGSTROM
     25          9  C    CARTESIAN X    -2.701247     -0.005225  KCAL/ANGSTROM
     26          9  C    CARTESIAN Y     1.560703     -0.135199  KCAL/ANGSTROM
     27          9  C    CARTESIAN Z     0.344720     -0.131685  KCAL/ANGSTROM
     28         10  H    CARTESIAN X     3.012580      0.001191  KCAL/ANGSTROM
     29         10  H    CARTESIAN Y     0.754632      0.165271  KCAL/ANGSTROM
     30         10  H    CARTESIAN Z     1.313170      0.183342  KCAL/ANGSTROM
     31         11  H    CARTESIAN X     3.752515     -0.016293  KCAL/ANGSTROM
     32         11  H    CARTESIAN Y    -0.795309     -0.093790  KCAL/ANGSTROM
     33         11  H    CARTESIAN Z     0.895742      0.013032  KCAL/ANGSTROM
     34         12  H    CARTESIAN X     3.298569      0.038846  KCAL/ANGSTROM
     35         12  H    CARTESIAN Y     0.338496      0.086141  KCAL/ANGSTROM
     36         12  H    CARTESIAN Z    -0.382071     -0.269964  KCAL/ANGSTROM
     37         13  H    CARTESIAN X     1.622820      0.103451  KCAL/ANGSTROM
     38         13  H    CARTESIAN Y    -1.561945     -0.193962  KCAL/ANGSTROM
     39         13  H    CARTESIAN Z    -0.197483     -0.342963  KCAL/ANGSTROM
     40         14  H    CARTESIAN X     1.334160     -0.026778  KCAL/ANGSTROM
     41         14  H    CARTESIAN Y    -1.142800     -0.003312  KCAL/ANGSTROM
     42         14  H    CARTESIAN Z     1.496235      0.408032  KCAL/ANGSTROM
     43         15  H    CARTESIAN X     0.532084     -0.142249  KCAL/ANGSTROM
     44         15  H    CARTESIAN Y     1.160370     -0.018606  KCAL/ANGSTROM
     45         15  H    CARTESIAN Z     0.796305      0.096959  KCAL/ANGSTROM
     46         16  H    CARTESIAN X     0.836051     -0.059401  KCAL/ANGSTROM
     47         16  H    CARTESIAN Y     0.756386     -0.015075  KCAL/ANGSTROM
     48         16  H    CARTESIAN Z    -0.897256      0.036807  KCAL/ANGSTROM
     49         17  H    CARTESIAN X    -1.243402     -0.090989  KCAL/ANGSTROM
     50         17  H    CARTESIAN Y    -1.354691      0.272944  KCAL/ANGSTROM
     51         17  H    CARTESIAN Z    -2.004845      0.164637  KCAL/ANGSTROM
     52         18  H    CARTESIAN X    -0.831891     -0.074786  KCAL/ANGSTROM
     53         18  H    CARTESIAN Y    -2.490237      0.202363  KCAL/ANGSTROM
     54         18  H    CARTESIAN Z    -0.711986     -0.144360  KCAL/ANGSTROM
     55         19  H    CARTESIAN X    -3.504263      0.256941  KCAL/ANGSTROM
     56         19  H    CARTESIAN Y    -1.500651      0.124300  KCAL/ANGSTROM
     57         19  H    CARTESIAN Z    -0.188067      0.199907  KCAL/ANGSTROM
     58         20  H    CARTESIAN X    -1.233616      0.011934  KCAL/ANGSTROM
     59         20  H    CARTESIAN Y    -1.918993      0.253061  KCAL/ANGSTROM
     60         20  H    CARTESIAN Z     1.550056     -0.044945  KCAL/ANGSTROM
     61         21  H    CARTESIAN X    -1.947915      0.138495  KCAL/ANGSTROM
     62         21  H    CARTESIAN Y    -0.360432      0.009014  KCAL/ANGSTROM
     63         21  H    CARTESIAN Z     1.970934     -0.226776  KCAL/ANGSTROM
     64         22  H    CARTESIAN X    -2.170252      0.162969  KCAL/ANGSTROM
     65         22  H    CARTESIAN Y     0.675535     -0.037555  KCAL/ANGSTROM
     66         22  H    CARTESIAN Z    -1.539160      0.211779  KCAL/ANGSTROM
     67         23  H    CARTESIAN X    -2.683200      0.024963  KCAL/ANGSTROM
     68         23  H    CARTESIAN Y     1.371432      0.088828  KCAL/ANGSTROM
     69         23  H    CARTESIAN Z     1.424082     -0.231641  KCAL/ANGSTROM
     70         24  H    CARTESIAN X    -3.746709      0.076908  KCAL/ANGSTROM
     71         24  H    CARTESIAN Y     1.755070     -0.024554  KCAL/ANGSTROM
     72         24  H    CARTESIAN Z     0.071038     -0.080922  KCAL/ANGSTROM
     73         25  H    CARTESIAN X    -2.135314     -0.132281  KCAL/ANGSTROM
     74         25  H    CARTESIAN Y     2.485449     -0.155438  KCAL/ANGSTROM
     75         25  H    CARTESIAN Z     0.173402      0.044859  KCAL/ANGSTROM




   ATOM   CHEMICAL          X               Y               Z
  NUMBER   SYMBOL      (ANGSTROMS)     (ANGSTROMS)     (ANGSTROMS)

     1       C          2.99264903  *  -0.06785308  *   0.58894239  *
     2       C          1.60998696  *  -0.71357221  *   0.51376422  *
     3       C          0.55157269  *   0.31227723  *   0.07948562  *
     4       C         -0.78893993  *  -0.30230335  *  -0.01086687  *
     5       C         -1.24714830  *  -1.51529728  *  -0.93383397  *
     6       C         -2.53794910  *  -1.07330486  *  -0.12935060  *
     7       C         -1.61903884  *  -0.98738292  *   1.15168301  *
     8       C         -2.13768949  *   0.42815847  *  -0.46976883  *
     9       C         -2.70124738  *   1.56070344  *   0.34472025  *
    10       H          3.01257971  *   0.75463189  *   1.31316983  *
    11       H          3.75251484  *  -0.79530944  *   0.89574188  *
    12       H          3.29856866  *   0.33849623  *  -0.38207082  *
    13       H          1.62281967  *  -1.56194533  *  -0.19748309  *
    14       H          1.33416017  *  -1.14280028  *   1.49623512  *
    15       H          0.53208358  *   1.16037039  *   0.79630544  *
    16       H          0.83605112  *   0.75638618  *  -0.89725551  *
    17       H         -1.24340185  *  -1.35469124  *  -2.00484479  *
    18       H         -0.83189065  *  -2.49023748  *  -0.71198550  *
    19       H         -3.50426309  *  -1.50065126  *  -0.18806736  *
    20       H         -1.23361639  *  -1.91899350  *   1.55005592  *
    21       H         -1.94791458  *  -0.36043221  *   1.97093397  *
    22       H         -2.17025194  *   0.67553510  *  -1.53916012  *
    23       H         -2.68319975  *   1.37143177  *   1.42408217  *
    24       H         -3.74670915  *   1.75507002  *   0.07103833  *
    25       H         -2.13531368  *   2.48544915  *   0.17340243  *

                             CARTESIAN COORDINATES

   1    C        2.992649029    -0.067853084     0.588942390
   2    C        1.609986964    -0.713572205     0.513764215
   3    C        0.551572692     0.312277227     0.079485617
   4    C       -0.788939931    -0.302303354    -0.010866871
   5    C       -1.247148302    -1.515297283    -0.933833974
   6    C       -2.537949096    -1.073304857    -0.129350596
   7    C       -1.619038844    -0.987382920     1.151683009
   8    C       -2.137689492     0.428158469    -0.469768835
   9    C       -2.701247381     1.560703441     0.344720248
  10    H        3.012579714     0.754631885     1.313169831
  11    H        3.752514844    -0.795309444     0.895741876
  12    H        3.298568662     0.338496226    -0.382070823
  13    H        1.622819674    -1.561945329    -0.197483087
  14    H        1.334160167    -1.142800278     1.496235121
  15    H        0.532083576     1.160370387     0.796305441
  16    H        0.836051122     0.756386182    -0.897255509
  17    H       -1.243401850    -1.354691236    -2.004844787
  18    H       -0.831890652    -2.490237476    -0.711985504
  19    H       -3.504263089    -1.500651262    -0.188067360
  20    H       -1.233616389    -1.918993500     1.550055921
  21    H       -1.947914583    -0.360432209     1.970933971
  22    H       -2.170251941     0.675535101    -1.539160122
  23    H       -2.683199751     1.371431770     1.424082168
  24    H       -3.746709146     1.755070024     0.071038326
  25    H       -2.135313679     2.485449147     0.173402430


           Empirical Formula: C9 H16  =    25 atoms



      MOLECULAR POINT GROUP   :   C1  


                  EIGENVALUES  
 -32.37600 -28.24948 -25.83861 -24.37564 -22.90689 -21.15546 -20.35796 -19.48355
 -17.51876 -15.99612 -15.92912 -15.69000 -14.75377 -14.51572 -13.99224 -13.50697
 -12.92313 -12.77241 -12.29903 -12.19437 -11.72612 -11.35832 -11.25912 -10.82765
 -10.73397 -10.46492   2.95505   3.03313   3.64382   3.72693   3.77676   4.18788
   4.66556   4.77032   4.97672   5.35085   5.50181   5.75299   5.87247   5.88898
   5.90390   6.03417   6.18421   6.21919   6.33435   6.42544   6.62629   6.70254
   6.73838   6.76168   7.06167   7.11290


              NET ATOMIC CHARGES AND DIPOLE CONTRIBUTIONS

  ATOM NO.   TYPE          CHARGE      No. of ELECS.   s-Pop       p-Pop       
    1          C          -0.439278        4.4393     1.05219     3.38708
    2          C          -0.239958        4.2400     1.05459     3.18537
    3          C          -0.289062        4.2891     1.05213     3.23693
    4          C           0.039538        3.9605     1.08876     2.87170
    5          C          -0.328130        4.3281     1.08773     3.24040
    6          C          -0.114697        4.1147     1.09351     3.02119
    7          C          -0.321905        4.3219     1.08469     3.23721
    8          C          -0.136810        4.1368     1.08662     3.05019
    9          C          -0.450217        4.4502     1.04941     3.40080
   10          H           0.142455        0.8575     0.85754
   11          H           0.140856        0.8591     0.85914
   12          H           0.142460        0.8575     0.85754
   13          H           0.137199        0.8628     0.86280
   14          H           0.136917        0.8631     0.86308
   15          H           0.150125        0.8499     0.84988
   16          H           0.149154        0.8508     0.85085
   17          H           0.138732        0.8613     0.86127
   18          H           0.140558        0.8594     0.85944
   19          H           0.144562        0.8554     0.85544
   20          H           0.137926        0.8621     0.86207
   21          H           0.139998        0.8600     0.86000
   22          H           0.134175        0.8658     0.86582
   23          H           0.149656        0.8503     0.85034
   24          H           0.148533        0.8515     0.85147
   25          H           0.147211        0.8528     0.85279
 DIPOLE           X         Y         Z       TOTAL
 POINT-CHG.     0.354     0.423     0.017     0.552
 HYBRID        -0.009     0.018     0.088     0.090
 SUM            0.344     0.441     0.105     0.569


          ATOMIC ORBITAL ELECTRON POPULATIONS

     Atom    s        px        py        pz   
    1  C   1.05219   1.06395   1.15019   1.17295
    2  C   1.05459   0.97676   1.05826   1.15034
    3  C   1.05213   0.99917   1.07743   1.16033
    4  C   1.08876   0.93514   0.96524   0.97132
    5  C   1.08773   1.05898   1.08916   1.09225
    6  C   1.09351   1.01837   1.00939   0.99342
    7  C   1.08469   1.07505   1.13529   1.02687
    8  C   1.08662   1.01855   0.95457   1.07707
    9  C   1.04941   1.15442   1.10050   1.14589
   10  H   0.85754
   11  H   0.85914
   12  H   0.85754
   13  H   0.86280
   14  H   0.86308
   15  H   0.84988
   16  H   0.85085
   17  H   0.86127
   18  H   0.85944
   19  H   0.85544
   20  H   0.86207
   21  H   0.86000
   22  H   0.86582
   23  H   0.85034
   24  H   0.85147
   25  H   0.85279

 **********************
 *                    *
 * JOB ENDED NORMALLY *
 *                    *
 **********************



 TOTAL JOB TIME:             1.15 SECONDS

 == MOPAC DONE ==
