 *******************************************************************************
 **                                                                           **
 **                              MOPAC v23.2                                  **
 **                                                                           **
 *******************************************************************************
 **          Digital Object Identifier (DOI): 10.5281/zenodo.6511958          **
 **    Visit the DOI location for information on how to cite this program.    **
 *******************************************************************************

                              PM7 CALCULATION RESULTS

 *******************************************************************************
 *  CALCULATION DONE: (MAX THREADS = 40)             Fri Sep 19 21:33:13 2025  *
 *  PM7        - The PM7 Hamiltonian to be used
 *
 *
 *
 *                 CHARGE ON SYSTEM = +1
 *
 *
 *
 *  EPS=37.5   - USE ANDREAS KLAMT'S COSMO IMPLICIT SOLVATION MODEL
 *  1SCF       - DO 1 SCF AND THEN STOP 
 *  T=         - A TIME OF 172800.0 SECONDS REQUESTED
 *  DUMP=N     - RESTART FILE WRITTEN EVERY 7200.0 SECONDS REQUESTED
 *  RELSCF     - DEFAULT SCF CRITERION MULTIPLIED BY 0.0001
 *              (DEFAULT SCF CRITERION = 0.00010)
 *  GRADIENTS  - ALL GRADIENTS TO BE PRINTED
 *  DISP       - PRINT DISPERSION AND HYDROGEN BOND ENERGIES
 *******************************************************************************
PM7 1SCF GRADIENTS EPS=37.5 DISP RELSCF=0.0001 CHARGE=1
 Title: ASE calculation

   ATOM   CHEMICAL          X               Y               Z
  NUMBER   SYMBOL      (ANGSTROMS)     (ANGSTROMS)     (ANGSTROMS)

     1       C         -0.94026490  *  -1.46344948  *   1.58039042  *
     2       C         -0.09420243  *  -0.30099725  *   1.03711168  *
     3       C         -0.81157769  *   0.99962420  *   1.34564175  *
     4       N         -1.20613810  *   1.85954109  *   0.48676663  *
     5       C         -1.00008608  *   1.65543378  *  -0.92509608  *
     6       C         -0.30206412  *   0.45575946  *  -1.35140662  *
     7       C          0.18456232  *  -0.47547380  *  -0.40493516  *
     8       C          0.99743842  *  -1.62420334  *  -0.86484024  *
     9       O          1.12136559  *  -1.47875048  *  -2.26029452  *
    10       H         -1.93462772  *  -1.50715581  *   1.11285818  *
    11       H         -0.45904225  *  -2.44048976  *   1.44428788  *
    12       H         -1.10965390  *  -1.35447832  *   2.66660804  *
    13       H          0.88876684  *  -0.29724455  *   1.60961437  *
    14       H         -1.00581744  *   1.20137591  *   2.41612414  *
    15       H         -2.01777098  *   1.76198009  *  -1.44225458  *
    16       H         -0.51172088  *   2.60435475  *  -1.34659269  *
    17       H         -0.15204871  *   0.28228192  *  -2.43449382  *
    18       H          2.01777098  *  -1.63278527  *  -0.40081915  *
    19       H          0.51191629  *  -2.60435475  *  -0.61976594  *
    20       H          1.58507686  *  -2.25368642  *  -2.66660804  *



          CARTESIAN COORDINATES 

    NO.       ATOM           X           Y           Z

     1         C         -0.9403     -1.4634      1.5804
     2         C         -0.0942     -0.3010      1.0371
     3         C         -0.8116      0.9996      1.3456
     4         N         -1.2061      1.8595      0.4868
     5         C         -1.0001      1.6554     -0.9251
     6         C         -0.3021      0.4558     -1.3514
     7         C          0.1846     -0.4755     -0.4049
     8         C          0.9974     -1.6242     -0.8648
     9         O          1.1214     -1.4788     -2.2603
    10         H         -1.9346     -1.5072      1.1129
    11         H         -0.4590     -2.4405      1.4443
    12         H         -1.1097     -1.3545      2.6666
    13         H          0.8888     -0.2972      1.6096
    14         H         -1.0058      1.2014      2.4161
    15         H         -2.0178      1.7620     -1.4423
    16         H         -0.5117      2.6044     -1.3466
    17         H         -0.1520      0.2823     -2.4345
    18         H          2.0178     -1.6328     -0.4008
    19         H          0.5119     -2.6044     -0.6198
    20         H          1.5851     -2.2537     -2.6666

 General Reference for PM7:
 "Optimization of Parameters for Semiempirical Methods VI: More Modifications to the 
 NDDO Approximations and Re-optimization of Parameters", J. J. P. Stewart, J. Mol. Mod., 1:32, 19 (2013)
 https://link.springer.com/article/10.1007/s00894-012-1667-x

           Empirical Formula: C7 H11 N O  =    20 atoms



      MOLECULAR POINT GROUP   :   C1  


          UHF CALCULATION, NO. OF ALPHA ELECTRONS =   25
                           NO. OF BETA  ELECTRONS =   24
  SCF CRITERION =    0.1000E-07

 -------------------------------------------------------------------------------
 PM7 1SCF GRADIENTS EPS=37.5 DISP RELSCF=0.0001 CHARGE=1
 Title: ASE calculation



     1SCF WAS SPECIFIED, SO BFGS WAS NOT USED                 
     SCF FIELD WAS ACHIEVED                                   


                              PM7 CALCULATION
                                                       MOPAC v23.2 Linux
                                                       Fri Sep 19 21:33:14 2025




          FINAL HEAT OF FORMATION =        120.13022 KCAL/MOL =     502.62486 KJ/MOL

          TOTAL ENERGY            =     -34201.62991 KCAL/MOL = ELECTRONIC ENERGY + CORE-CORE REPULSION + SOLVATION ENERGY
          ENERGY OF ATOMS         =      34323.93363 KCAL/MOL
                              SUM =        122.30372 KCAL/MOL
          DISPERSION ENERGY       =         -2.17350 KCAL/MOL
                              SUM =        120.13022 KCAL/MOL = FINAL HEAT OF FORMATION

          VAN DER WAALS AREA      =        164.34 SQUARE ANGSTROMS


          TOTAL ENERGY            =      -1483.12304 EV
          ELECTRONIC ENERGY       =      -2179.01305 EV 
          CORE-CORE REPULSION     =        695.89000 EV

          DIELECTRIC ENERGY       =         -2.58775 EV
          COSMO AREA              =        164.34 SQUARE ANGSTROMS
          COSMO VOLUME            =        163.06 CUBIC ANGSTROMS

          GRADIENT NORM           =         15.44080          =       3.45267 PER ATOM
          IONIZATION POTENTIAL    =         10.750583 EV
          ALPHA SOMO LUMO (EV)    =        -10.751 -1.704
          BETA  SOMO LUMO (EV)    =        -11.130 -3.651
          NO. OF ALPHA ELECTRONS  =         25
          NO. OF BETA  ELECTRONS  =         24
          MOLECULAR WEIGHT        =        125.1700         POINT GROUP:  C1  

          MOLECULAR DIMENSIONS (Angstroms)

            Atom       Atom       Distance
            H    20    H    14     6.66966
            H    16    H    11     5.74328
            H    15    H    18     3.40309


          SCF CALCULATIONS        =          2

          WALL-CLOCK TIME         =      1.203 SECONDS
          COMPUTATION TIME        =      1.625 SECONDS

          LARGEST ATOMIC GRADIENTS

          Atom     Label                     Cartesian Gradients           Cartesian Coordinates       |Gradient|
                                           X          Y          Z        X          Y          Z

             3       C                  -3.065      6.821     -3.209   -0.81158    0.99962    1.34564      8.137
             8       C                   3.553     -4.498     -1.947    0.99744   -1.62420   -0.86484      6.053
             2       C                   4.971     -0.688     -0.172   -0.09420   -0.30100    1.03711      5.022
             4       N                   1.947     -4.276     -0.339   -1.20614    1.85954    0.48677      4.710
             9       O                  -0.703      0.014      3.259    1.12137   -1.47875   -2.26029      3.334
             5       C                   1.532     -2.395      1.630   -1.00009    1.65543   -0.92510      3.277
             1       C                   1.339     -1.309     -2.341   -0.94026   -1.46345    1.58039      2.997
            16       H                  -1.005      2.212      1.706   -0.51172    2.60435   -1.34659      2.969
            15       H                  -1.361      1.677      1.950   -2.01777    1.76198   -1.44225      2.910
             7       C                  -1.675      2.233     -0.196    0.18456   -0.47547   -0.40494      2.798



       FINAL  POINT  AND  DERIVATIVES

   PARAMETER     ATOM    TYPE            VALUE        GRADIENT
      1          1  C    CARTESIAN X    -0.940265      1.338983  KCAL/ANGSTROM
      2          1  C    CARTESIAN Y    -1.463449     -1.308522  KCAL/ANGSTROM
      3          1  C    CARTESIAN Z     1.580390     -2.340795  KCAL/ANGSTROM
      4          2  C    CARTESIAN X    -0.094202      4.971490  KCAL/ANGSTROM
      5          2  C    CARTESIAN Y    -0.300997     -0.687584  KCAL/ANGSTROM
      6          2  C    CARTESIAN Z     1.037112     -0.172438  KCAL/ANGSTROM
      7          3  C    CARTESIAN X    -0.811578     -3.065373  KCAL/ANGSTROM
      8          3  C    CARTESIAN Y     0.999624      6.820578  KCAL/ANGSTROM
      9          3  C    CARTESIAN Z     1.345642     -3.208806  KCAL/ANGSTROM
     10          4  N    CARTESIAN X    -1.206138      1.946708  KCAL/ANGSTROM
     11          4  N    CARTESIAN Y     1.859541     -4.275896  KCAL/ANGSTROM
     12          4  N    CARTESIAN Z     0.486767     -0.339074  KCAL/ANGSTROM
     13          5  C    CARTESIAN X    -1.000086      1.531590  KCAL/ANGSTROM
     14          5  C    CARTESIAN Y     1.655434     -2.395407  KCAL/ANGSTROM
     15          5  C    CARTESIAN Z    -0.925096      1.630321  KCAL/ANGSTROM
     16          6  C    CARTESIAN X    -0.302064      0.388880  KCAL/ANGSTROM
     17          6  C    CARTESIAN Y     0.455759     -2.008769  KCAL/ANGSTROM
     18          6  C    CARTESIAN Z    -1.351407     -0.696237  KCAL/ANGSTROM
     19          7  C    CARTESIAN X     0.184562     -1.675158  KCAL/ANGSTROM
     20          7  C    CARTESIAN Y    -0.475474      2.233154  KCAL/ANGSTROM
     21          7  C    CARTESIAN Z    -0.404935     -0.196087  KCAL/ANGSTROM
     22          8  C    CARTESIAN X     0.997438      3.552842  KCAL/ANGSTROM
     23          8  C    CARTESIAN Y    -1.624203     -4.497705  KCAL/ANGSTROM
     24          8  C    CARTESIAN Z    -0.864840     -1.947226  KCAL/ANGSTROM
     25          9  O    CARTESIAN X     1.121366     -0.703072  KCAL/ANGSTROM
     26          9  O    CARTESIAN Y    -1.478750      0.014265  KCAL/ANGSTROM
     27          9  O    CARTESIAN Z    -2.260295      3.259310  KCAL/ANGSTROM
     28         10  H    CARTESIAN X    -1.934628     -1.097928  KCAL/ANGSTROM
     29         10  H    CARTESIAN Y    -1.507156      0.169026  KCAL/ANGSTROM
     30         10  H    CARTESIAN Z     1.112858      1.020383  KCAL/ANGSTROM
     31         11  H    CARTESIAN X    -0.459042     -0.806967  KCAL/ANGSTROM
     32         11  H    CARTESIAN Y    -2.440490     -0.188948  KCAL/ANGSTROM
     33         11  H    CARTESIAN Z     1.444288      1.001211  KCAL/ANGSTROM
     34         12  H    CARTESIAN X    -1.109654     -0.655111  KCAL/ANGSTROM
     35         12  H    CARTESIAN Y    -1.354478     -0.200562  KCAL/ANGSTROM
     36         12  H    CARTESIAN Z     2.666608      1.152872  KCAL/ANGSTROM
     37         13  H    CARTESIAN X     0.888767     -2.232295  KCAL/ANGSTROM
     38         13  H    CARTESIAN Y    -0.297245     -0.211367  KCAL/ANGSTROM
     39         13  H    CARTESIAN Z     1.609614     -0.115975  KCAL/ANGSTROM
     40         14  H    CARTESIAN X    -1.005817     -1.089200  KCAL/ANGSTROM
     41         14  H    CARTESIAN Y     1.201376      1.330932  KCAL/ANGSTROM
     42         14  H    CARTESIAN Z     2.416124     -0.037000  KCAL/ANGSTROM
     43         15  H    CARTESIAN X    -2.017771     -1.360645  KCAL/ANGSTROM
     44         15  H    CARTESIAN Y     1.761980      1.676718  KCAL/ANGSTROM
     45         15  H    CARTESIAN Z    -1.442255      1.950453  KCAL/ANGSTROM
     46         16  H    CARTESIAN X    -0.511721     -1.005276  KCAL/ANGSTROM
     47         16  H    CARTESIAN Y     2.604355      2.211637  KCAL/ANGSTROM
     48         16  H    CARTESIAN Z    -1.346593      1.706088  KCAL/ANGSTROM
     49         17  H    CARTESIAN X    -0.152049      1.398397  KCAL/ANGSTROM
     50         17  H    CARTESIAN Y     0.282282     -1.639695  KCAL/ANGSTROM
     51         17  H    CARTESIAN Z    -2.434494     -0.493823  KCAL/ANGSTROM
     52         18  H    CARTESIAN X     2.017771      0.026864  KCAL/ANGSTROM
     53         18  H    CARTESIAN Y    -1.632785      0.579582  KCAL/ANGSTROM
     54         18  H    CARTESIAN Z    -0.400819     -0.354535  KCAL/ANGSTROM
     55         19  H    CARTESIAN X     0.511916     -0.598088  KCAL/ANGSTROM
     56         19  H    CARTESIAN Y    -2.604355      0.559682  KCAL/ANGSTROM
     57         19  H    CARTESIAN Z    -0.619766      0.098451  KCAL/ANGSTROM
     58         20  H    CARTESIAN X     1.585077     -0.866645  KCAL/ANGSTROM
     59         20  H    CARTESIAN Y    -2.253686      1.818878  KCAL/ANGSTROM
     60         20  H    CARTESIAN Z    -2.666608     -1.917094  KCAL/ANGSTROM




   ATOM   CHEMICAL          X               Y               Z
  NUMBER   SYMBOL      (ANGSTROMS)     (ANGSTROMS)     (ANGSTROMS)

     1       C         -0.94026490  *  -1.46344948  *   1.58039042  *
     2       C         -0.09420243  *  -0.30099725  *   1.03711168  *
     3       C         -0.81157769  *   0.99962420  *   1.34564175  *
     4       N         -1.20613810  *   1.85954109  *   0.48676663  *
     5       C         -1.00008608  *   1.65543378  *  -0.92509608  *
     6       C         -0.30206412  *   0.45575946  *  -1.35140662  *
     7       C          0.18456232  *  -0.47547380  *  -0.40493516  *
     8       C          0.99743842  *  -1.62420334  *  -0.86484024  *
     9       O          1.12136559  *  -1.47875048  *  -2.26029452  *
    10       H         -1.93462772  *  -1.50715581  *   1.11285818  *
    11       H         -0.45904225  *  -2.44048976  *   1.44428788  *
    12       H         -1.10965390  *  -1.35447832  *   2.66660804  *
    13       H          0.88876684  *  -0.29724455  *   1.60961437  *
    14       H         -1.00581744  *   1.20137591  *   2.41612414  *
    15       H         -2.01777098  *   1.76198009  *  -1.44225458  *
    16       H         -0.51172088  *   2.60435475  *  -1.34659269  *
    17       H         -0.15204871  *   0.28228192  *  -2.43449382  *
    18       H          2.01777098  *  -1.63278527  *  -0.40081915  *
    19       H          0.51191629  *  -2.60435475  *  -0.61976594  *
    20       H          1.58507686  *  -2.25368642  *  -2.66660804  *

                             CARTESIAN COORDINATES

   1    C       -0.940264903    -1.463449479     1.580390425
   2    C       -0.094202433    -0.300997249     1.037111684
   3    C       -0.811577687     0.999624199     1.345641754
   4    N       -1.206138103     1.859541093     0.486766630
   5    C       -1.000086084     1.655433783    -0.925096083
   6    C       -0.302064125     0.455759456    -1.351406622
   7    C        0.184562325    -0.475473799    -0.404935158
   8    C        0.997438418    -1.624203337    -0.864840244
   9    O        1.121365594    -1.478750483    -2.260294516
  10    H       -1.934627718    -1.507155810     1.112858184
  11    H       -0.459042251    -2.440489764     1.444287877
  12    H       -1.109653901    -1.354478319     2.666608037
  13    H        0.888766843    -0.297244554     1.609614366
  14    H       -1.005817437     1.201375914     2.416124135
  15    H       -2.017770980     1.761980089    -1.442254576
  16    H       -0.511720881     2.604354753    -1.346592695
  17    H       -0.152048711     0.282281917    -2.434493825
  18    H        2.017770980    -1.632785268    -0.400819149
  19    H        0.511916292    -2.604354753    -0.619765939
  20    H        1.585076863    -2.253686423    -2.666608037


           Empirical Formula: C7 H11 N O  =    20 atoms



      MOLECULAR POINT GROUP   :   C1  


          ALPHA EIGENVALUES  
 -36.59117 -31.19786 -29.61731 -28.42468 -25.98621 -24.55792 -22.59469 -21.70464
 -18.79143 -18.15053 -17.56785 -16.99764 -16.87478 -16.09652 -15.66750 -15.20551
 -14.72637 -14.19096 -13.75989 -13.37940 -13.00023 -12.63835 -11.64417 -11.14331
 -10.75058  -1.70415  -0.01310   1.61299   1.90530   2.24905   2.36437   2.58014
   2.77220   3.14001   3.33405   4.07494   4.45476   4.47960   4.50662   4.72557
   4.86710   4.89085   5.16572   5.24866   5.41635   5.51771   6.32037


           BETA EIGENVALUES 
 -36.57672 -31.07235 -29.57538 -28.30036 -25.91657 -24.45651 -22.50359 -21.60036
 -18.74016 -18.08034 -17.37307 -16.85832 -16.66309 -15.89688 -15.52738 -15.13440
 -14.59342 -14.14921 -13.69025 -13.32913 -12.91441 -12.00358 -11.45965 -11.12994
  -3.65146  -0.43533   0.09583   1.65523   1.95564   2.33265   2.48159   2.67731
   2.89473   3.21895   3.40982   4.21023   4.49844   4.55704   4.57414   4.77991
   4.89860   4.93853   5.17407   5.25733   5.43081   5.52077   6.32241


              NET ATOMIC CHARGES AND DIPOLE CONTRIBUTIONS

  ATOM NO.   TYPE          CHARGE      No. of ELECS.   s-Pop       p-Pop       
    1          C          -0.428384        4.4284     1.05625     3.37213
    2          C          -0.235543        4.2355     1.06790     3.16764
    3          C           0.107017        3.8930     1.12074     2.77225
    4          N          -0.420916        5.4209     1.74092     3.67999
    5          C          -0.208152        4.2082     1.06636     3.14180
    6          C           0.081232        3.9188     1.15887     2.75989
    7          C           0.187588        3.8124     1.14387     2.66854
    8          C          -0.041980        4.0420     1.08754     2.95444
    9          O          -0.601244        6.6012     1.84578     4.75546
   10          H           0.172240        0.8278     0.82776
   11          H           0.176037        0.8240     0.82396
   12          H           0.184101        0.8159     0.81590
   13          H           0.245514        0.7545     0.75449
   14          H           0.209215        0.7908     0.79079
   15          H           0.269030        0.7310     0.73097
   16          H           0.270730        0.7293     0.72927
   17          H           0.229177        0.7708     0.77082
   18          H           0.209603        0.7904     0.79040
   19          H           0.207519        0.7925     0.79248
   20          H           0.387213        0.6128     0.61279
 DIPOLE           X         Y         Z       TOTAL
 POINT-CHG.     1.739    -2.813    -0.512     3.347
 HYBRID         0.508    -0.684    -0.726     1.119
 SUM            2.247    -3.497    -1.238     4.337


          ATOMIC ORBITAL ELECTRON POPULATIONS

     Atom    s        px        py        pz   
    1  C   1.05625   1.12829   1.05917   1.18467
    2  C   1.06790   1.13319   1.03960   0.99485
    3  C   1.12074   0.85981   0.87121   1.04123
    4  N   1.74092   1.24266   1.35410   1.08324
    5  C   1.06636   1.15275   1.06452   0.92452
    6  C   1.15887   0.74024   0.90901   1.11065
    7  C   1.14387   0.77565   0.90715   0.98574
    8  C   1.08754   1.10564   1.04527   0.80353
    9  O   1.84578   1.86648   1.60002   1.28896
   10  H   0.82776
   11  H   0.82396
   12  H   0.81590
   13  H   0.75449
   14  H   0.79079
   15  H   0.73097
   16  H   0.72927
   17  H   0.77082
   18  H   0.79040
   19  H   0.79248
   20  H   0.61279


                    (SZ)    =    0.500000
                    (S**2)  =    0.752253


          ATOMIC ORBITAL SPIN POPULATIONS

    Atom   Total    s     px     py     pz   
         Atomic
    1  C  0.0313  0.004  0.008  0.014  0.005
    2  C -0.0089 -0.003  0.006 -0.001 -0.011
    3  C  0.0131  0.000  0.008  0.004  0.001
    4  N -0.0034 -0.000 -0.001 -0.001 -0.001
    5  C  0.0194 -0.004  0.029 -0.004 -0.002
    6  C  0.4121  0.008  0.300  0.096  0.009
    7  C  0.4004  0.008  0.259  0.119  0.014
    8  C -0.0043 -0.004  0.004 -0.004 -0.001
    9  O  0.0031  0.000  0.002  0.001  0.000
   10  H -0.0007 -0.001
   11  H -0.0009 -0.001
   12  H -0.0008 -0.001
   13  H  0.0233  0.023
   14  H -0.0006 -0.001
   15  H  0.0390  0.039
   16  H  0.0388  0.039
   17  H -0.0114 -0.011
   18  H  0.0246  0.025
   19  H  0.0265  0.027
   20  H -0.0006 -0.001

 **********************
 *                    *
 * JOB ENDED NORMALLY *
 *                    *
 **********************



 TOTAL JOB TIME:             1.61 SECONDS

 == MOPAC DONE ==
