 *******************************************************************************
 **                                                                           **
 **                              MOPAC v23.2                                  **
 **                                                                           **
 *******************************************************************************
 **          Digital Object Identifier (DOI): 10.5281/zenodo.6511958          **
 **    Visit the DOI location for information on how to cite this program.    **
 *******************************************************************************

                              PM7 CALCULATION RESULTS

 *******************************************************************************
 *  CALCULATION DONE: (MAX THREADS = 40)             Fri Sep 19 21:35:42 2025  *
 *  PM7        - The PM7 Hamiltonian to be used
 *  EPS=37.5   - USE ANDREAS KLAMT'S COSMO IMPLICIT SOLVATION MODEL
 *  1SCF       - DO 1 SCF AND THEN STOP 
 *  T=         - A TIME OF 172800.0 SECONDS REQUESTED
 *  DUMP=N     - RESTART FILE WRITTEN EVERY 7200.0 SECONDS REQUESTED
 *  RELSCF     - DEFAULT SCF CRITERION MULTIPLIED BY 0.0001
 *              (DEFAULT SCF CRITERION = 0.00010)
 *  GRADIENTS  - ALL GRADIENTS TO BE PRINTED
 *  DISP       - PRINT DISPERSION AND HYDROGEN BOND ENERGIES
 *******************************************************************************
PM7 1SCF GRADIENTS EPS=37.5 DISP RELSCF=0.0001
 Title: ASE calculation

   ATOM   CHEMICAL          X               Y               Z
  NUMBER   SYMBOL      (ANGSTROMS)     (ANGSTROMS)     (ANGSTROMS)

     1       C          2.34250880  *  -0.46418467  *   0.37529970  *
     2       C          0.93156327  *  -0.33655664  *   0.90330023  *
     3       C          0.24801228  *   1.03585705  *   0.56337594  *
     4       O         -0.16319436  *   1.63879879  *   1.75506925  *
     5       C         -0.88089772  *   0.28314581  *  -0.19259321  *
     6       O         -1.07104462  *   0.80215474  *  -1.44937991  *
     7       C         -2.10337800  *  -0.21821904  *   0.59774933  *
     8       C         -1.37866559  *  -1.57743702  *   0.85256938  *
     9       C         -0.13812133  *  -1.09308995  *   0.06835764  *
    10       H          2.40286691  *  -0.24030945  *  -0.69707256  *
    11       H          3.02344580  *   0.22431911  *   0.89219269  *
    12       H          2.72879032  *  -1.48103194  *   0.51788724  *
    13       H          0.88067252  *  -0.55812989  *   1.98529382  *
    14       H          0.82975826  *   1.73546155  *  -0.05079073  *
    15       H         -0.69270417  *   2.44112254  *   1.57076424  *
    16       H         -1.66328237  *   0.23374191  *  -1.98529382  *
    17       H         -3.02344580  *  -0.29099450  *   0.01620032  *
    18       H         -2.31526602  *   0.35322415  *   1.50778064  *
    19       H         -1.87761176  *  -2.44112254  *   0.40739964  *
    20       H         -1.19702330  *  -1.79902067  *   1.90775034  *
    21       H          0.22099237  *  -1.71738616  *  -0.73512580  *



          CARTESIAN COORDINATES 

    NO.       ATOM           X           Y           Z

     1         C          2.3425     -0.4642      0.3753
     2         C          0.9316     -0.3366      0.9033
     3         C          0.2480      1.0359      0.5634
     4         O         -0.1632      1.6388      1.7551
     5         C         -0.8809      0.2831     -0.1926
     6         O         -1.0710      0.8022     -1.4494
     7         C         -2.1034     -0.2182      0.5977
     8         C         -1.3787     -1.5774      0.8526
     9         C         -0.1381     -1.0931      0.0684
    10         H          2.4029     -0.2403     -0.6971
    11         H          3.0234      0.2243      0.8922
    12         H          2.7288     -1.4810      0.5179
    13         H          0.8807     -0.5581      1.9853
    14         H          0.8298      1.7355     -0.0508
    15         H         -0.6927      2.4411      1.5708
    16         H         -1.6633      0.2337     -1.9853
    17         H         -3.0234     -0.2910      0.0162
    18         H         -2.3153      0.3532      1.5078
    19         H         -1.8776     -2.4411      0.4074
    20         H         -1.1970     -1.7990      1.9078
    21         H          0.2210     -1.7174     -0.7351

 General Reference for PM7:
 "Optimization of Parameters for Semiempirical Methods VI: More Modifications to the 
 NDDO Approximations and Re-optimization of Parameters", J. J. P. Stewart, J. Mol. Mod., 1:32, 19 (2013)
 https://link.springer.com/article/10.1007/s00894-012-1667-x

           Empirical Formula: C7 H12 O2  =    21 atoms



      MOLECULAR POINT GROUP   :   C1  


      RHF CALCULATION, NO. OF DOUBLY OCCUPIED LEVELS = 26

  SCF CRITERION =    0.1000E-07

 -------------------------------------------------------------------------------
 PM7 1SCF GRADIENTS EPS=37.5 DISP RELSCF=0.0001
 Title: ASE calculation



     1SCF WAS SPECIFIED, SO BFGS WAS NOT USED                 
     SCF FIELD WAS ACHIEVED                                   


                              PM7 CALCULATION
                                                       MOPAC v23.2 Linux
                                                       Fri Sep 19 21:35:43 2025




          FINAL HEAT OF FORMATION =        -83.88320 KCAL/MOL =    -350.96733 KJ/MOL

          TOTAL ENERGY            =     -37179.11618 KCAL/MOL = ELECTRONIC ENERGY + CORE-CORE REPULSION + SOLVATION ENERGY
          ENERGY OF ATOMS         =      37097.27293 KCAL/MOL
                              SUM =        -81.84325 KCAL/MOL
          DISPERSION ENERGY       =         -2.03995 KCAL/MOL
                              SUM =        -83.88320 KCAL/MOL = FINAL HEAT OF FORMATION

          VAN DER WAALS AREA      =        163.43 SQUARE ANGSTROMS


          TOTAL ENERGY            =      -1612.23907 EV
          ELECTRONIC ENERGY       =      -2570.51508 EV 
          CORE-CORE REPULSION     =        958.27601 EV

          DIELECTRIC ENERGY       =         -0.41028 EV
          COSMO AREA              =        163.43 SQUARE ANGSTROMS
          COSMO VOLUME            =        166.29 CUBIC ANGSTROMS

          GRADIENT NORM           =         10.52684          =       2.29715 PER ATOM
          IONIZATION POTENTIAL    =         10.178249 EV
          HOMO LUMO ENERGIES (EV) =        -10.178  2.489
          NO. OF FILLED LEVELS    =         26
          MOLECULAR WEIGHT        =        128.1706         POINT GROUP:  C1  

          MOLECULAR DIMENSIONS (Angstroms)

            Atom       Atom       Distance
            H    17    H    11     6.13171
            H    19    H    15     4.85269
            H    16    H    20     4.13474


          SCF CALCULATIONS        =          2

          WALL-CLOCK TIME         =      0.836 SECONDS
          COMPUTATION TIME        =      0.907 SECONDS

          LARGEST ATOMIC GRADIENTS

          Atom     Label                     Cartesian Gradients           Cartesian Coordinates       |Gradient|
                                           X          Y          Z        X          Y          Z

            16       H                   3.495      2.565      3.670   -1.66328    0.23374   -1.98529      5.681
            15       H                   3.450     -3.864     -0.074   -0.69270    2.44112    1.57076      5.181
             4       O                  -2.938      1.816      0.718   -0.16319    1.63880    1.75507      3.528
             6       O                  -2.016     -1.564     -2.089   -1.07104    0.80215   -1.44938      3.298
             5       C                  -0.117     -0.013     -2.770   -0.88090    0.28315   -0.19259      2.773
             3       C                  -0.413      2.279     -0.189    0.24801    1.03586    0.56338      2.324
             7       C                  -1.731     -0.373     -0.455   -2.10338   -0.21822    0.59775      1.828
             1       C                   1.233     -0.673     -0.959    2.34251   -0.46418    0.37530      1.701
             8       C                  -0.658     -1.061     -0.246   -1.37867   -1.57744    0.85257      1.272
            14       H                  -0.396     -0.902     -0.554    0.82976    1.73546   -0.05079      1.130



       FINAL  POINT  AND  DERIVATIVES

   PARAMETER     ATOM    TYPE            VALUE        GRADIENT
      1          1  C    CARTESIAN X     2.342509      1.233206  KCAL/ANGSTROM
      2          1  C    CARTESIAN Y    -0.464185     -0.672762  KCAL/ANGSTROM
      3          1  C    CARTESIAN Z     0.375300     -0.958798  KCAL/ANGSTROM
      4          2  C    CARTESIAN X     0.931563     -0.368929  KCAL/ANGSTROM
      5          2  C    CARTESIAN Y    -0.336557      0.118221  KCAL/ANGSTROM
      6          2  C    CARTESIAN Z     0.903300      0.128887  KCAL/ANGSTROM
      7          3  C    CARTESIAN X     0.248012     -0.413043  KCAL/ANGSTROM
      8          3  C    CARTESIAN Y     1.035857      2.278776  KCAL/ANGSTROM
      9          3  C    CARTESIAN Z     0.563376     -0.189412  KCAL/ANGSTROM
     10          4  O    CARTESIAN X    -0.163194     -2.937739  KCAL/ANGSTROM
     11          4  O    CARTESIAN Y     1.638799      1.816413  KCAL/ANGSTROM
     12          4  O    CARTESIAN Z     1.755069      0.718249  KCAL/ANGSTROM
     13          5  C    CARTESIAN X    -0.880898     -0.117287  KCAL/ANGSTROM
     14          5  C    CARTESIAN Y     0.283146     -0.013070  KCAL/ANGSTROM
     15          5  C    CARTESIAN Z    -0.192593     -2.770101  KCAL/ANGSTROM
     16          6  O    CARTESIAN X    -1.071045     -2.016181  KCAL/ANGSTROM
     17          6  O    CARTESIAN Y     0.802155     -1.564159  KCAL/ANGSTROM
     18          6  O    CARTESIAN Z    -1.449380     -2.088715  KCAL/ANGSTROM
     19          7  C    CARTESIAN X    -2.103378     -1.730674  KCAL/ANGSTROM
     20          7  C    CARTESIAN Y    -0.218219     -0.373263  KCAL/ANGSTROM
     21          7  C    CARTESIAN Z     0.597749     -0.454894  KCAL/ANGSTROM
     22          8  C    CARTESIAN X    -1.378666     -0.658226  KCAL/ANGSTROM
     23          8  C    CARTESIAN Y    -1.577437     -1.060529  KCAL/ANGSTROM
     24          8  C    CARTESIAN Z     0.852569     -0.245773  KCAL/ANGSTROM
     25          9  C    CARTESIAN X    -0.138121      0.077296  KCAL/ANGSTROM
     26          9  C    CARTESIAN Y    -1.093090     -0.686217  KCAL/ANGSTROM
     27          9  C    CARTESIAN Z     0.068358     -0.428627  KCAL/ANGSTROM
     28         10  H    CARTESIAN X     2.402867     -0.421898  KCAL/ANGSTROM
     29         10  H    CARTESIAN Y    -0.240309      0.125227  KCAL/ANGSTROM
     30         10  H    CARTESIAN Z    -0.697073      0.440294  KCAL/ANGSTROM
     31         11  H    CARTESIAN X     3.023446     -0.731659  KCAL/ANGSTROM
     32         11  H    CARTESIAN Y     0.224319      0.065590  KCAL/ANGSTROM
     33         11  H    CARTESIAN Z     0.892193      0.107894  KCAL/ANGSTROM
     34         12  H    CARTESIAN X     2.728790     -0.518324  KCAL/ANGSTROM
     35         12  H    CARTESIAN Y    -1.481032      0.518293  KCAL/ANGSTROM
     36         12  H    CARTESIAN Z     0.517887      0.170982  KCAL/ANGSTROM
     37         13  H    CARTESIAN X     0.880673     -0.013112  KCAL/ANGSTROM
     38         13  H    CARTESIAN Y    -0.558130      0.594592  KCAL/ANGSTROM
     39         13  H    CARTESIAN Z     1.985294      0.352523  KCAL/ANGSTROM
     40         14  H    CARTESIAN X     0.829758     -0.395724  KCAL/ANGSTROM
     41         14  H    CARTESIAN Y     1.735462     -0.901749  KCAL/ANGSTROM
     42         14  H    CARTESIAN Z    -0.050791     -0.554085  KCAL/ANGSTROM
     43         15  H    CARTESIAN X    -0.692704      3.449922  KCAL/ANGSTROM
     44         15  H    CARTESIAN Y     2.441123     -3.863975  KCAL/ANGSTROM
     45         15  H    CARTESIAN Z     1.570764     -0.074225  KCAL/ANGSTROM
     46         16  H    CARTESIAN X    -1.663282      3.495426  KCAL/ANGSTROM
     47         16  H    CARTESIAN Y     0.233742      2.565365  KCAL/ANGSTROM
     48         16  H    CARTESIAN Z    -1.985294      3.670326  KCAL/ANGSTROM
     49         17  H    CARTESIAN X    -3.023446      0.739054  KCAL/ANGSTROM
     50         17  H    CARTESIAN Y    -0.290994      0.326077  KCAL/ANGSTROM
     51         17  H    CARTESIAN Z     0.016200      0.780456  KCAL/ANGSTROM
     52         18  H    CARTESIAN X    -2.315266      0.758948  KCAL/ANGSTROM
     53         18  H    CARTESIAN Y     0.353224     -0.278895  KCAL/ANGSTROM
     54         18  H    CARTESIAN Z     1.507781      0.197624  KCAL/ANGSTROM
     55         19  H    CARTESIAN X    -1.877612      0.390366  KCAL/ANGSTROM
     56         19  H    CARTESIAN Y    -2.441123      0.382194  KCAL/ANGSTROM
     57         19  H    CARTESIAN Z     0.407400      0.463780  KCAL/ANGSTROM
     58         20  H    CARTESIAN X    -1.197023      0.060214  KCAL/ANGSTROM
     59         20  H    CARTESIAN Y    -1.799021      0.187153  KCAL/ANGSTROM
     60         20  H    CARTESIAN Z     1.907750     -0.068659  KCAL/ANGSTROM
     61         21  H    CARTESIAN X     0.220992      0.118364  KCAL/ANGSTROM
     62         21  H    CARTESIAN Y    -1.717386      0.436714  KCAL/ANGSTROM
     63         21  H    CARTESIAN Z    -0.735126      0.802270  KCAL/ANGSTROM




   ATOM   CHEMICAL          X               Y               Z
  NUMBER   SYMBOL      (ANGSTROMS)     (ANGSTROMS)     (ANGSTROMS)

     1       C          2.34250880  *  -0.46418467  *   0.37529970  *
     2       C          0.93156327  *  -0.33655664  *   0.90330023  *
     3       C          0.24801228  *   1.03585705  *   0.56337594  *
     4       O         -0.16319436  *   1.63879879  *   1.75506925  *
     5       C         -0.88089772  *   0.28314581  *  -0.19259321  *
     6       O         -1.07104462  *   0.80215474  *  -1.44937991  *
     7       C         -2.10337800  *  -0.21821904  *   0.59774933  *
     8       C         -1.37866559  *  -1.57743702  *   0.85256938  *
     9       C         -0.13812133  *  -1.09308995  *   0.06835764  *
    10       H          2.40286691  *  -0.24030945  *  -0.69707256  *
    11       H          3.02344580  *   0.22431911  *   0.89219269  *
    12       H          2.72879032  *  -1.48103194  *   0.51788724  *
    13       H          0.88067252  *  -0.55812989  *   1.98529382  *
    14       H          0.82975826  *   1.73546155  *  -0.05079073  *
    15       H         -0.69270417  *   2.44112254  *   1.57076424  *
    16       H         -1.66328237  *   0.23374191  *  -1.98529382  *
    17       H         -3.02344580  *  -0.29099450  *   0.01620032  *
    18       H         -2.31526602  *   0.35322415  *   1.50778064  *
    19       H         -1.87761176  *  -2.44112254  *   0.40739964  *
    20       H         -1.19702330  *  -1.79902067  *   1.90775034  *
    21       H          0.22099237  *  -1.71738616  *  -0.73512580  *

                             CARTESIAN COORDINATES

   1    C        2.342508799    -0.464184675     0.375299705
   2    C        0.931563267    -0.336556636     0.903300225
   3    C        0.248012279     1.035857046     0.563375937
   4    O       -0.163194363     1.638798786     1.755069252
   5    C       -0.880897722     0.283145814    -0.192593208
   6    O       -1.071044623     0.802154744    -1.449379910
   7    C       -2.103378005    -0.218219040     0.597749333
   8    C       -1.378665593    -1.577437021     0.852569382
   9    C       -0.138121329    -1.093089945     0.068357638
  10    H        2.402866911    -0.240309450    -0.697072558
  11    H        3.023445801     0.224319107     0.892192686
  12    H        2.728790318    -1.481031941     0.517887244
  13    H        0.880672518    -0.558129890     1.985293825
  14    H        0.829758256     1.735461545    -0.050790734
  15    H       -0.692704166     2.441122536     1.570764244
  16    H       -1.663282368     0.233741912    -1.985293825
  17    H       -3.023445801    -0.290994500     0.016200319
  18    H       -2.315266020     0.353224147     1.507780639
  19    H       -1.877611760    -2.441122536     0.407399637
  20    H       -1.197023303    -1.799020674     1.907750345
  21    H        0.220992373    -1.717386157    -0.735125795


           Empirical Formula: C7 H12 O2  =    21 atoms



      MOLECULAR POINT GROUP   :   C1  


                  EIGENVALUES  
 -32.12344 -29.55159 -29.01478 -27.36361 -24.46741 -22.76114 -21.16034 -20.25996
 -18.42220 -17.72909 -17.18456 -16.44841 -15.77501 -14.80491 -14.46464 -14.10380
 -14.04803 -13.48218 -13.25133 -12.42266 -12.05421 -11.94208 -11.60231 -11.34976
 -10.54841 -10.17825   2.48857   2.71856   3.06909   3.21963   3.27702   3.46769
   3.55310   4.31830   4.67376   5.08413   5.48847   5.60715   5.70604   5.78374
   5.94881   5.96221   6.05013   6.22518   6.35778   6.45613   6.54322   6.93938


              NET ATOMIC CHARGES AND DIPOLE CONTRIBUTIONS

  ATOM NO.   TYPE          CHARGE      No. of ELECS.   s-Pop       p-Pop       
    1          C          -0.460296        4.4603     1.05243     3.40787
    2          C          -0.125043        4.1250     1.07510     3.04994
    3          C           0.117598        3.8824     1.10895     2.77345
    4          O          -0.609226        6.6092     1.83926     4.76997
    5          C           0.222184        3.7778     1.10303     2.67479
    6          O          -0.598842        6.5988     1.83176     4.76708
    7          C          -0.331806        4.3318     1.07635     3.25545
    8          C          -0.279709        4.2797     1.06787     3.21184
    9          C          -0.215479        4.2155     1.09361     3.12187
   10          H           0.155930        0.8441     0.84407
   11          H           0.156384        0.8436     0.84362
   12          H           0.157161        0.8428     0.84284
   13          H           0.159837        0.8402     0.84016
   14          H           0.144386        0.8556     0.85561
   15          H           0.361482        0.6385     0.63852
   16          H           0.367995        0.6320     0.63200
   17          H           0.158063        0.8419     0.84194
   18          H           0.163853        0.8361     0.83615
   19          H           0.149020        0.8510     0.85098
   20          H           0.150822        0.8492     0.84918
   21          H           0.155689        0.8443     0.84431
 DIPOLE           X         Y         Z       TOTAL
 POINT-CHG.    -0.557    -1.369    -0.826     1.693
 HYBRID        -0.533     0.218    -0.278     0.640
 SUM           -1.090    -1.151    -1.104     1.932


          ATOMIC ORBITAL ELECTRON POPULATIONS

     Atom    s        px        py        pz   
    1  C   1.05243   1.05203   1.18491   1.17092
    2  C   1.07510   0.96420   0.98754   1.09820
    3  C   1.10895   0.97390   0.96253   0.83702
    4  O   1.83926   1.79080   1.56188   1.41728
    5  C   1.10303   0.95557   0.94005   0.77916
    6  O   1.83176   1.77035   1.61710   1.37963
    7  C   1.07635   1.06755   1.04560   1.14230
    8  C   1.06787   1.03234   1.04455   1.13496
    9  C   1.09361   1.00029   1.04680   1.07477
   10  H   0.84407
   11  H   0.84362
   12  H   0.84284
   13  H   0.84016
   14  H   0.85561
   15  H   0.63852
   16  H   0.63200
   17  H   0.84194
   18  H   0.83615
   19  H   0.85098
   20  H   0.84918
   21  H   0.84431

 **********************
 *                    *
 * JOB ENDED NORMALLY *
 *                    *
 **********************



 TOTAL JOB TIME:             1.20 SECONDS

 == MOPAC DONE ==
