 *******************************************************************************
 **                                                                           **
 **                              MOPAC v23.2                                  **
 **                                                                           **
 *******************************************************************************
 **          Digital Object Identifier (DOI): 10.5281/zenodo.6511958          **
 **    Visit the DOI location for information on how to cite this program.    **
 *******************************************************************************

                              PM7 CALCULATION RESULTS

 *******************************************************************************
 *  CALCULATION DONE: (MAX THREADS = 40)             Fri Sep 19 21:30:48 2025  *
 *  PM7        - The PM7 Hamiltonian to be used
 *  1SCF       - DO 1 SCF AND THEN STOP 
 *  T=         - A TIME OF 172800.0 SECONDS REQUESTED
 *  DUMP=N     - RESTART FILE WRITTEN EVERY 7200.0 SECONDS REQUESTED
 *  RELSCF     - DEFAULT SCF CRITERION MULTIPLIED BY 0.0001
 *              (DEFAULT SCF CRITERION = 0.00010)
 *  GRADIENTS  - ALL GRADIENTS TO BE PRINTED
 *  DISP       - PRINT DISPERSION AND HYDROGEN BOND ENERGIES
 *******************************************************************************
PM7 1SCF GRADIENTS DISP RELSCF=0.0001
 Title: ASE calculation

   ATOM   CHEMICAL          X               Y               Z
  NUMBER   SYMBOL      (ANGSTROMS)     (ANGSTROMS)     (ANGSTROMS)

     1       C         -2.64352532  *   1.42890268  *  -0.18533436  *
     2       C         -1.57884171  *   0.39410092  *  -0.07080939  *
     3       C         -1.99148409  *  -1.10929594  *  -0.00938636  *
     4       C         -0.57106856  *  -1.76410013  *   0.10280802  *
     5       C          0.30290093  *  -0.47558142  *   0.07788643  *
     6       C          1.79016161  *  -0.62241207  *   0.16509402  *
     7       O          2.31420768  *   0.70087797  *   0.12004737  *
     8       C         -0.49157656  *   0.45142006  *   1.07219122  *
     9       C         -0.37617977  *   0.33121189  *  -1.09134024  *
    10       H         -3.23899388  *   1.29594930  *  -1.09825595  *
    11       H         -3.33457987  *   1.39331268  *   0.66723650  *
    12       H         -2.21819929  *   2.44191787  *  -0.21822697  *
    13       H         -2.62547750  *  -1.32984261  *   0.85545482  *
    14       H         -2.53109618  *  -1.42757483  *  -0.90718730  *
    15       H         -0.44723307  *  -2.33581977  *   1.02747376  *
    16       H         -0.35323456  *  -2.43347760  *  -0.73485666  *
    17       H          2.10307207  *  -1.09380754  *   1.11627418  *
    18       H          2.19895904  *  -1.19316995  *  -0.69047219  *
    19       H          3.28825361  *   0.67031963  *   0.17364224  *
    20       H         -0.03772635  *   1.43030879  *   1.22731942  *
    21       H         -0.76243727  *   0.02619886  *   2.03175480  *
    22       H         -0.54615592  *  -0.19884454  *  -2.02142211  *
    23       H          0.09731357  *   1.28964514  *  -1.30457375  *



          CARTESIAN COORDINATES 

    NO.       ATOM           X           Y           Z

     1         C         -2.6435      1.4289     -0.1853
     2         C         -1.5788      0.3941     -0.0708
     3         C         -1.9915     -1.1093     -0.0094
     4         C         -0.5711     -1.7641      0.1028
     5         C          0.3029     -0.4756      0.0779
     6         C          1.7902     -0.6224      0.1651
     7         O          2.3142      0.7009      0.1200
     8         C         -0.4916      0.4514      1.0722
     9         C         -0.3762      0.3312     -1.0913
    10         H         -3.2390      1.2959     -1.0983
    11         H         -3.3346      1.3933      0.6672
    12         H         -2.2182      2.4419     -0.2182
    13         H         -2.6255     -1.3298      0.8555
    14         H         -2.5311     -1.4276     -0.9072
    15         H         -0.4472     -2.3358      1.0275
    16         H         -0.3532     -2.4335     -0.7349
    17         H          2.1031     -1.0938      1.1163
    18         H          2.1990     -1.1932     -0.6905
    19         H          3.2883      0.6703      0.1736
    20         H         -0.0377      1.4303      1.2273
    21         H         -0.7624      0.0262      2.0318
    22         H         -0.5462     -0.1988     -2.0214
    23         H          0.0973      1.2896     -1.3046

 General Reference for PM7:
 "Optimization of Parameters for Semiempirical Methods VI: More Modifications to the 
 NDDO Approximations and Re-optimization of Parameters", J. J. P. Stewart, J. Mol. Mod., 1:32, 19 (2013)
 https://link.springer.com/article/10.1007/s00894-012-1667-x

           Empirical Formula: C8 H14 O  =    23 atoms



      MOLECULAR POINT GROUP   :   Cs  


      RHF CALCULATION, NO. OF DOUBLY OCCUPIED LEVELS = 26

  SCF CRITERION =    0.1000E-07

 -------------------------------------------------------------------------------
 PM7 1SCF GRADIENTS DISP RELSCF=0.0001
 Title: ASE calculation



     1SCF WAS SPECIFIED, SO BFGS WAS NOT USED                 
     SCF FIELD WAS ACHIEVED                                   


                              PM7 CALCULATION
                                                       MOPAC v23.2 Linux
                                                       Fri Sep 19 21:30:49 2025




          FINAL HEAT OF FORMATION =        -28.74532 KCAL/MOL =    -120.27041 KJ/MOL

          TOTAL ENERGY            =     -33808.81291 KCAL/MOL = ELECTRONIC ENERGY + CORE-CORE REPULSION
          ENERGY OF ATOMS         =      33782.22825 KCAL/MOL
                              SUM =        -26.58467 KCAL/MOL
          DISPERSION ENERGY       =         -2.16065 KCAL/MOL
                              SUM =        -28.74532 KCAL/MOL = FINAL HEAT OF FORMATION



          TOTAL ENERGY            =      -1466.08889 EV
          ELECTRONIC ENERGY       =      -7951.08646 EV 
          CORE-CORE REPULSION     =       6484.99758 EV
          COSMO AREA              =        171.43 SQUARE ANGSTROMS
          COSMO VOLUME            =        178.34 CUBIC ANGSTROMS

          GRADIENT NORM           =          1.29884          =       0.27083 PER ATOM
          IONIZATION POTENTIAL    =         10.380816 EV
          HOMO LUMO ENERGIES (EV) =        -10.381  2.710
          NO. OF FILLED LEVELS    =         26
          MOLECULAR WEIGHT        =        126.1980         POINT GROUP:  Cs  

          MOLECULAR DIMENSIONS (Angstroms)

            Atom       Atom       Distance
            H    19    H    11     6.68044
            H    12    H    15     4.77067
            H    22    H    21     3.90365


          SCF CALCULATIONS        =          1

          WALL-CLOCK TIME         =      0.859 SECONDS
          COMPUTATION TIME        =      0.434 SECONDS

          LARGEST ATOMIC GRADIENTS

          Atom     Label                     Cartesian Gradients           Cartesian Coordinates       |Gradient|
                                           X          Y          Z        X          Y          Z

            17       H                   0.249      0.148      0.306    2.10307   -1.09381    1.11627      0.421
            18       H                   0.279      0.112     -0.291    2.19896   -1.19317   -0.69047      0.419
            16       H                   0.013      0.134      0.372   -0.35323   -2.43348   -0.73486      0.396
            15       H                   0.052      0.093     -0.380   -0.44723   -2.33582    1.02747      0.395
            19       H                   0.001     -0.390      0.020    3.28825    0.67032    0.17364      0.390
             2       C                  -0.210     -0.276      0.005   -1.57884    0.39410   -0.07081      0.347
             3       C                  -0.314     -0.118     -0.010   -1.99148   -1.10930   -0.00939      0.335
            13       H                  -0.272     -0.018      0.166   -2.62548   -1.32984    0.85545      0.319
            14       H                  -0.253     -0.038     -0.190   -2.53110   -1.42757   -0.90719      0.319
             6       C                   0.301      0.027      0.015    1.79016   -0.62241    0.16509      0.302



       FINAL  POINT  AND  DERIVATIVES

   PARAMETER     ATOM    TYPE            VALUE        GRADIENT
      1          1  C    CARTESIAN X    -2.643525      0.089894  KCAL/ANGSTROM
      2          1  C    CARTESIAN Y     1.428903      0.008405  KCAL/ANGSTROM
      3          1  C    CARTESIAN Z    -0.185334      0.004285  KCAL/ANGSTROM
      4          2  C    CARTESIAN X    -1.578842     -0.210028  KCAL/ANGSTROM
      5          2  C    CARTESIAN Y     0.394101     -0.276149  KCAL/ANGSTROM
      6          2  C    CARTESIAN Z    -0.070809      0.004566  KCAL/ANGSTROM
      7          3  C    CARTESIAN X    -1.991484     -0.313703  KCAL/ANGSTROM
      8          3  C    CARTESIAN Y    -1.109296     -0.117852  KCAL/ANGSTROM
      9          3  C    CARTESIAN Z    -0.009386     -0.009748  KCAL/ANGSTROM
     10          4  C    CARTESIAN X    -0.571069     -0.054229  KCAL/ANGSTROM
     11          4  C    CARTESIAN Y    -1.764100      0.249197  KCAL/ANGSTROM
     12          4  C    CARTESIAN Z     0.102808     -0.016001  KCAL/ANGSTROM
     13          5  C    CARTESIAN X     0.302901      0.162868  KCAL/ANGSTROM
     14          5  C    CARTESIAN Y    -0.475581     -0.095256  KCAL/ANGSTROM
     15          5  C    CARTESIAN Z     0.077886      0.014575  KCAL/ANGSTROM
     16          6  C    CARTESIAN X     1.790162      0.300880  KCAL/ANGSTROM
     17          6  C    CARTESIAN Y    -0.622412      0.027084  KCAL/ANGSTROM
     18          6  C    CARTESIAN Z     0.165094      0.014544  KCAL/ANGSTROM
     19          7  O    CARTESIAN X     2.314208      0.065135  KCAL/ANGSTROM
     20          7  O    CARTESIAN Y     0.700878      0.157895  KCAL/ANGSTROM
     21          7  O    CARTESIAN Z     0.120047     -0.008561  KCAL/ANGSTROM
     22          8  C    CARTESIAN X    -0.491577     -0.100211  KCAL/ANGSTROM
     23          8  C    CARTESIAN Y     0.451420      0.033094  KCAL/ANGSTROM
     24          8  C    CARTESIAN Z     1.072191     -0.146889  KCAL/ANGSTROM
     25          9  C    CARTESIAN X    -0.376180     -0.115203  KCAL/ANGSTROM
     26          9  C    CARTESIAN Y     0.331212      0.047628  KCAL/ANGSTROM
     27          9  C    CARTESIAN Z    -1.091340      0.131252  KCAL/ANGSTROM
     28         10  H    CARTESIAN X    -3.238994     -0.001448  KCAL/ANGSTROM
     29         10  H    CARTESIAN Y     1.295949     -0.040809  KCAL/ANGSTROM
     30         10  H    CARTESIAN Z    -1.098256      0.123078  KCAL/ANGSTROM
     31         11  H    CARTESIAN X    -3.334580      0.015213  KCAL/ANGSTROM
     32         11  H    CARTESIAN Y     1.393313     -0.048531  KCAL/ANGSTROM
     33         11  H    CARTESIAN Z     0.667237     -0.114583  KCAL/ANGSTROM
     34         12  H    CARTESIAN X    -2.218199      0.041085  KCAL/ANGSTROM
     35         12  H    CARTESIAN Y     2.441918      0.127636  KCAL/ANGSTROM
     36         12  H    CARTESIAN Z    -0.218227     -0.009344  KCAL/ANGSTROM
     37         13  H    CARTESIAN X    -2.625477     -0.271668  KCAL/ANGSTROM
     38         13  H    CARTESIAN Y    -1.329843     -0.017611  KCAL/ANGSTROM
     39         13  H    CARTESIAN Z     0.855455      0.166449  KCAL/ANGSTROM
     40         14  H    CARTESIAN X    -2.531096     -0.252899  KCAL/ANGSTROM
     41         14  H    CARTESIAN Y    -1.427575     -0.037503  KCAL/ANGSTROM
     42         14  H    CARTESIAN Z    -0.907187     -0.190347  KCAL/ANGSTROM
     43         15  H    CARTESIAN X    -0.447233      0.052025  KCAL/ANGSTROM
     44         15  H    CARTESIAN Y    -2.335820      0.092984  KCAL/ANGSTROM
     45         15  H    CARTESIAN Z     1.027474     -0.379959  KCAL/ANGSTROM
     46         16  H    CARTESIAN X    -0.353235      0.012521  KCAL/ANGSTROM
     47         16  H    CARTESIAN Y    -2.433478      0.134383  KCAL/ANGSTROM
     48         16  H    CARTESIAN Z    -0.734857      0.372386  KCAL/ANGSTROM
     49         17  H    CARTESIAN X     2.103072      0.248984  KCAL/ANGSTROM
     50         17  H    CARTESIAN Y    -1.093808      0.147794  KCAL/ANGSTROM
     51         17  H    CARTESIAN Z     1.116274      0.306310  KCAL/ANGSTROM
     52         18  H    CARTESIAN X     2.198959      0.279061  KCAL/ANGSTROM
     53         18  H    CARTESIAN Y    -1.193170      0.112373  KCAL/ANGSTROM
     54         18  H    CARTESIAN Z    -0.690472     -0.291255  KCAL/ANGSTROM
     55         19  H    CARTESIAN X     3.288254      0.000604  KCAL/ANGSTROM
     56         19  H    CARTESIAN Y     0.670320     -0.389911  KCAL/ANGSTROM
     57         19  H    CARTESIAN Z     0.173642      0.019637  KCAL/ANGSTROM
     58         20  H    CARTESIAN X    -0.037726      0.000155  KCAL/ANGSTROM
     59         20  H    CARTESIAN Y     1.430309      0.049088  KCAL/ANGSTROM
     60         20  H    CARTESIAN Z     1.227319     -0.063768  KCAL/ANGSTROM
     61         21  H    CARTESIAN X    -0.762437      0.037111  KCAL/ANGSTROM
     62         21  H    CARTESIAN Y     0.026199     -0.117404  KCAL/ANGSTROM
     63         21  H    CARTESIAN Z     2.031755     -0.146975  KCAL/ANGSTROM
     64         22  H    CARTESIAN X    -0.546156      0.020346  KCAL/ANGSTROM
     65         22  H    CARTESIAN Y    -0.198845     -0.101373  KCAL/ANGSTROM
     66         22  H    CARTESIAN Z    -2.021422      0.162316  KCAL/ANGSTROM
     67         23  H    CARTESIAN X     0.097314     -0.006494  KCAL/ANGSTROM
     68         23  H    CARTESIAN Y     1.289645      0.054835  KCAL/ANGSTROM
     69         23  H    CARTESIAN Z    -1.304574      0.058029  KCAL/ANGSTROM




   ATOM   CHEMICAL          X               Y               Z
  NUMBER   SYMBOL      (ANGSTROMS)     (ANGSTROMS)     (ANGSTROMS)

     1       C         -2.64352532  *   1.42890268  *  -0.18533436  *
     2       C         -1.57884171  *   0.39410092  *  -0.07080939  *
     3       C         -1.99148409  *  -1.10929594  *  -0.00938636  *
     4       C         -0.57106856  *  -1.76410013  *   0.10280802  *
     5       C          0.30290093  *  -0.47558142  *   0.07788643  *
     6       C          1.79016161  *  -0.62241207  *   0.16509402  *
     7       O          2.31420768  *   0.70087797  *   0.12004737  *
     8       C         -0.49157656  *   0.45142006  *   1.07219122  *
     9       C         -0.37617977  *   0.33121189  *  -1.09134024  *
    10       H         -3.23899388  *   1.29594930  *  -1.09825595  *
    11       H         -3.33457987  *   1.39331268  *   0.66723650  *
    12       H         -2.21819929  *   2.44191787  *  -0.21822697  *
    13       H         -2.62547750  *  -1.32984261  *   0.85545482  *
    14       H         -2.53109618  *  -1.42757483  *  -0.90718730  *
    15       H         -0.44723307  *  -2.33581977  *   1.02747376  *
    16       H         -0.35323456  *  -2.43347760  *  -0.73485666  *
    17       H          2.10307207  *  -1.09380754  *   1.11627418  *
    18       H          2.19895904  *  -1.19316995  *  -0.69047219  *
    19       H          3.28825361  *   0.67031963  *   0.17364224  *
    20       H         -0.03772635  *   1.43030879  *   1.22731942  *
    21       H         -0.76243727  *   0.02619886  *   2.03175480  *
    22       H         -0.54615592  *  -0.19884454  *  -2.02142211  *
    23       H          0.09731357  *   1.28964514  *  -1.30457375  *

                             CARTESIAN COORDINATES

   1    C       -2.643525319     1.428902676    -0.185334358
   2    C       -1.578841714     0.394100919    -0.070809391
   3    C       -1.991484092    -1.109295942    -0.009386357
   4    C       -0.571068562    -1.764100130     0.102808018
   5    C        0.302900934    -0.475581416     0.077886431
   6    C        1.790161609    -0.622412070     0.165094024
   7    O        2.314207676     0.700877970     0.120047365
   8    C       -0.491576555     0.451420056     1.072191218
   9    C       -0.376179775     0.331211894    -1.091340242
  10    H       -3.238993876     1.295949302    -1.098255948
  11    H       -3.334579873     1.393312678     0.667236501
  12    H       -2.218199295     2.441917872    -0.218226971
  13    H       -2.625477496    -1.329842613     0.855454823
  14    H       -2.531096184    -1.427574832    -0.907187302
  15    H       -0.447233069    -2.335819774     1.027473756
  16    H       -0.353234563    -2.433477604    -0.734856656
  17    H        2.103072066    -1.093807542     1.116274184
  18    H        2.198959044    -1.193169947    -0.690472192
  19    H        3.288253613     0.670319627     0.173642244
  20    H       -0.037726353     1.430308786     1.227319422
  21    H       -0.762437267     0.026198859     2.031754804
  22    H       -0.546155916    -0.198844535    -2.021422111
  23    H        0.097313574     1.289645138    -1.304573745


           Empirical Formula: C8 H14 O  =    23 atoms



      MOLECULAR POINT GROUP   :   Cs  


                  EIGENVALUES  
 -32.08876 -29.18551 -26.27570 -25.02934 -24.01912 -22.64467 -21.14732 -18.16973
 -17.96359 -16.90518 -15.65664 -15.53498 -15.45588 -15.42947 -14.17007 -13.68693
 -12.94776 -12.55150 -12.47153 -12.18129 -11.68928 -11.32836 -11.06010 -10.69888
 -10.64043 -10.38082   2.71025   3.43509   3.59672   3.81012   3.90651   3.95794
   4.43975   4.90074   5.10114   5.44099   5.54521   5.62709   5.80791   5.90872
   5.94374   6.11338   6.21376   6.29924   6.41443   6.53867   6.69897   6.99442
   7.01881   7.09139


              NET ATOMIC CHARGES AND DIPOLE CONTRIBUTIONS

  ATOM NO.   TYPE          CHARGE      No. of ELECS.   s-Pop       p-Pop       
    1          C          -0.459952        4.4600     1.04837     3.41158
    2          C           0.075586        3.9244     1.07082     2.85360
    3          C          -0.288234        4.2882     1.07406     3.21417
    4          C          -0.288460        4.2885     1.07291     3.21555
    5          C           0.019297        3.9807     1.07547     2.90523
    6          C          -0.020373        4.0204     1.08100     2.93937
    7          O          -0.536743        6.5367     1.85324     4.68350
    8          C          -0.310091        4.3101     1.08469     3.22540
    9          C          -0.310182        4.3102     1.08469     3.22550
   10          H           0.151630        0.8484     0.84837
   11          H           0.151631        0.8484     0.84837
   12          H           0.155387        0.8446     0.84461
   13          H           0.135990        0.8640     0.86401
   14          H           0.135984        0.8640     0.86402
   15          H           0.135427        0.8646     0.86457
   16          H           0.135417        0.8646     0.86458
   17          H           0.118818        0.8812     0.88118
   18          H           0.118819        0.8812     0.88118
   19          H           0.304182        0.6958     0.69582
   20          H           0.152678        0.8473     0.84732
   21          H           0.135262        0.8647     0.86474
   22          H           0.135255        0.8647     0.86474
   23          H           0.152673        0.8473     0.84733
 DIPOLE           X         Y         Z       TOTAL
 POINT-CHG.     0.116    -1.555     0.092     1.562
 HYBRID         0.388     0.116     0.014     0.405
 SUM            0.503    -1.439     0.105     1.528


          ATOMIC ORBITAL ELECTRON POPULATIONS

     Atom    s        px        py        pz   
    1  C   1.04837   1.11470   1.12036   1.17652
    2  C   1.07082   0.92933   0.94248   0.98179
    3  C   1.07406   1.03011   1.02809   1.15597
    4  C   1.07291   1.01425   1.04643   1.15486
    5  C   1.07547   0.93107   0.96406   1.01011
    6  C   1.08100   0.98918   0.83522   1.11497
    7  O   1.85324   1.35592   1.34298   1.98461
    8  C   1.08469   1.05401   1.12154   1.04985
    9  C   1.08469   1.05161   1.13129   1.04259
   10  H   0.84837
   11  H   0.84837
   12  H   0.84461
   13  H   0.86401
   14  H   0.86402
   15  H   0.86457
   16  H   0.86458
   17  H   0.88118
   18  H   0.88118
   19  H   0.69582
   20  H   0.84732
   21  H   0.86474
   22  H   0.86474
   23  H   0.84733

 **********************
 *                    *
 * JOB ENDED NORMALLY *
 *                    *
 **********************



 TOTAL JOB TIME:             1.38 SECONDS

 == MOPAC DONE ==
