 *******************************************************************************
 **                                                                           **
 **                              MOPAC v23.2                                  **
 **                                                                           **
 *******************************************************************************
 **          Digital Object Identifier (DOI): 10.5281/zenodo.6511958          **
 **    Visit the DOI location for information on how to cite this program.    **
 *******************************************************************************

                              PM7 CALCULATION RESULTS

 *******************************************************************************
 *  CALCULATION DONE: (MAX THREADS = 40)             Fri Sep 19 21:58:15 2025  *
 *  PM7        - The PM7 Hamiltonian to be used
 *
 *
 *
 *                 CHARGE ON SYSTEM = +1
 *
 *
 *
 *  1SCF       - DO 1 SCF AND THEN STOP 
 *  T=         - A TIME OF 172800.0 SECONDS REQUESTED
 *  DUMP=N     - RESTART FILE WRITTEN EVERY 7200.0 SECONDS REQUESTED
 *  RELSCF     - DEFAULT SCF CRITERION MULTIPLIED BY 0.0001
 *              (DEFAULT SCF CRITERION = 0.00010)
 *  GRADIENTS  - ALL GRADIENTS TO BE PRINTED
 *  DISP       - PRINT DISPERSION AND HYDROGEN BOND ENERGIES
 *******************************************************************************
PM7 1SCF GRADIENTS DISP RELSCF=0.0001 CHARGE=1
 Title: ASE calculation

   ATOM   CHEMICAL          X               Y               Z
  NUMBER   SYMBOL      (ANGSTROMS)     (ANGSTROMS)     (ANGSTROMS)

     1       O          2.17306561  *  -0.49326285  *  -0.53372819  *
     2       C          1.08359161  *  -0.34301579  *   0.31434925  *
     3       C          0.19118012  *   0.85647417  *  -0.18332128  *
     4       C         -1.13938571  *   0.34202075  *  -0.34657182  *
     5       C         -1.22400404  *  -1.07743494  *  -0.02485383  *
     6       C          0.14476857  *  -1.49757630  *   0.34225735  *
     7       H          1.99162115  *  -1.08715559  *  -1.29938979  *
     8       H          1.55793783  *  -0.12266890  *   1.30633649  *
     9       H          0.64617869  *   1.31779114  *  -1.11202770  *
    10       H          0.28163799  *   1.75942307  *   0.48080107  *
    11       H         -1.99944042  *   0.94120013  *  -0.67297534  *
    12       H         -1.67787544  *  -1.70888247  *  -0.84848109  *
    13       H         -1.97660709  *  -1.31128538  *   0.79384988  *
    14       H          0.43521614  *  -2.49666138  *   0.59546723  *



          CARTESIAN COORDINATES 

    NO.       ATOM           X           Y           Z

     1         O          2.1731     -0.4933     -0.5337
     2         C          1.0836     -0.3430      0.3143
     3         C          0.1912      0.8565     -0.1833
     4         C         -1.1394      0.3420     -0.3466
     5         C         -1.2240     -1.0774     -0.0249
     6         C          0.1448     -1.4976      0.3423
     7         H          1.9916     -1.0872     -1.2994
     8         H          1.5579     -0.1227      1.3063
     9         H          0.6462      1.3178     -1.1120
    10         H          0.2816      1.7594      0.4808
    11         H         -1.9994      0.9412     -0.6730
    12         H         -1.6779     -1.7089     -0.8485
    13         H         -1.9766     -1.3113      0.7938
    14         H          0.4352     -2.4967      0.5955

 General Reference for PM7:
 "Optimization of Parameters for Semiempirical Methods VI: More Modifications to the 
 NDDO Approximations and Re-optimization of Parameters", J. J. P. Stewart, J. Mol. Mod., 1:32, 19 (2013)
 https://link.springer.com/article/10.1007/s00894-012-1667-x

           Empirical Formula: C5 H8 O  =    14 atoms



      MOLECULAR POINT GROUP   :   C1  


          UHF CALCULATION, NO. OF ALPHA ELECTRONS =   17
                           NO. OF BETA  ELECTRONS =   16
  SCF CRITERION =    0.1000E-07

 -------------------------------------------------------------------------------
 PM7 1SCF GRADIENTS DISP RELSCF=0.0001 CHARGE=1
 Title: ASE calculation



     1SCF WAS SPECIFIED, SO BFGS WAS NOT USED                 
     SCF FIELD WAS ACHIEVED                                   


                              PM7 CALCULATION
                                                       MOPAC v23.2 Linux
                                                       Fri Sep 19 21:58:15 2025




          FINAL HEAT OF FORMATION =        181.32278 KCAL/MOL =     758.65452 KJ/MOL

          TOTAL ENERGY            =     -23239.58228 KCAL/MOL = ELECTRONIC ENERGY + CORE-CORE REPULSION
          ENERGY OF ATOMS         =      23421.57716 KCAL/MOL
                              SUM =        181.99488 KCAL/MOL
          DISPERSION ENERGY       =         -0.67209 KCAL/MOL
                              SUM =        181.32278 KCAL/MOL = FINAL HEAT OF FORMATION



          TOTAL ENERGY            =      -1007.76367 EV
          ELECTRONIC ENERGY       =      -4062.01457 EV 
          CORE-CORE REPULSION     =       3054.25090 EV
          COSMO AREA              =        123.15 SQUARE ANGSTROMS
          COSMO VOLUME            =        111.98 CUBIC ANGSTROMS

          GRADIENT NORM           =          1.01915          =       0.27238 PER ATOM
          IONIZATION POTENTIAL    =         14.310488 EV
          ALPHA SOMO LUMO (EV)    =        -14.310 -7.315
          BETA  SOMO LUMO (EV)    =        -15.269 -7.237
          NO. OF ALPHA ELECTRONS  =         17
          NO. OF BETA  ELECTRONS  =         16
          MOLECULAR WEIGHT        =         84.1176         POINT GROUP:  C1  

          MOLECULAR DIMENSIONS (Angstroms)

            Atom       Atom       Distance
            H    11    H     7     4.52053
            H    12    H    10     4.19949
            H     9    H    14     2.92096


          SCF CALCULATIONS        =          1

          WALL-CLOCK TIME         =      0.430 SECONDS
          COMPUTATION TIME        =      0.692 SECONDS

          LARGEST ATOMIC GRADIENTS

          Atom     Label                     Cartesian Gradients           Cartesian Coordinates       |Gradient|
                                           X          Y          Z        X          Y          Z

             1       O                  -0.362     -0.176     -0.080    2.17307   -0.49326   -0.53373      0.411
             9       H                  -0.042     -0.200      0.338    0.64618    1.31779   -1.11203      0.394
            10       H                   0.040     -0.290     -0.219    0.28164    1.75942    0.48080      0.365
             7       H                   0.083      0.317      0.071    1.99162   -1.08716   -1.29939      0.335
             4       C                   0.103      0.146     -0.257   -1.13939    0.34202   -0.34657      0.312
            14       H                   0.185     -0.024      0.230    0.43522   -2.49666    0.59547      0.296
             5       C                   0.010      0.128     -0.244   -1.22400   -1.07743   -0.02485      0.276
             8       H                  -0.156     -0.011     -0.213    1.55794   -0.12267    1.30634      0.265
            13       H                  -0.008     -0.071      0.174   -1.97661   -1.31129    0.79385      0.188
             3       C                   0.004      0.159      0.101    0.19118    0.85647   -0.18332      0.188



       FINAL  POINT  AND  DERIVATIVES

   PARAMETER     ATOM    TYPE            VALUE        GRADIENT
      1          1  O    CARTESIAN X     2.173066     -0.362193  KCAL/ANGSTROM
      2          1  O    CARTESIAN Y    -0.493263     -0.176468  KCAL/ANGSTROM
      3          1  O    CARTESIAN Z    -0.533728     -0.080166  KCAL/ANGSTROM
      4          2  C    CARTESIAN X     1.083592      0.005327  KCAL/ANGSTROM
      5          2  C    CARTESIAN Y    -0.343016      0.050597  KCAL/ANGSTROM
      6          2  C    CARTESIAN Z     0.314349     -0.046863  KCAL/ANGSTROM
      7          3  C    CARTESIAN X     0.191180      0.003713  KCAL/ANGSTROM
      8          3  C    CARTESIAN Y     0.856474      0.158620  KCAL/ANGSTROM
      9          3  C    CARTESIAN Z    -0.183321      0.101107  KCAL/ANGSTROM
     10          4  C    CARTESIAN X    -1.139386      0.102519  KCAL/ANGSTROM
     11          4  C    CARTESIAN Y     0.342021      0.145617  KCAL/ANGSTROM
     12          4  C    CARTESIAN Z    -0.346572     -0.256693  KCAL/ANGSTROM
     13          5  C    CARTESIAN X    -1.224004      0.009512  KCAL/ANGSTROM
     14          5  C    CARTESIAN Y    -1.077435      0.128105  KCAL/ANGSTROM
     15          5  C    CARTESIAN Z    -0.024854     -0.244008  KCAL/ANGSTROM
     16          6  C    CARTESIAN X     0.144769      0.092449  KCAL/ANGSTROM
     17          6  C    CARTESIAN Y    -1.497576     -0.054759  KCAL/ANGSTROM
     18          6  C    CARTESIAN Z     0.342257      0.084706  KCAL/ANGSTROM
     19          7  H    CARTESIAN X     1.991621      0.082973  KCAL/ANGSTROM
     20          7  H    CARTESIAN Y    -1.087156      0.316632  KCAL/ANGSTROM
     21          7  H    CARTESIAN Z    -1.299390      0.071348  KCAL/ANGSTROM
     22          8  H    CARTESIAN X     1.557938     -0.156383  KCAL/ANGSTROM
     23          8  H    CARTESIAN Y    -0.122669     -0.011005  KCAL/ANGSTROM
     24          8  H    CARTESIAN Z     1.306336     -0.213335  KCAL/ANGSTROM
     25          9  H    CARTESIAN X     0.646179     -0.041784  KCAL/ANGSTROM
     26          9  H    CARTESIAN Y     1.317791     -0.199741  KCAL/ANGSTROM
     27          9  H    CARTESIAN Z    -1.112028      0.337522  KCAL/ANGSTROM
     28         10  H    CARTESIAN X     0.281638      0.039602  KCAL/ANGSTROM
     29         10  H    CARTESIAN Y     1.759423     -0.289617  KCAL/ANGSTROM
     30         10  H    CARTESIAN Z     0.480801     -0.219344  KCAL/ANGSTROM
     31         11  H    CARTESIAN X    -1.999440      0.145270  KCAL/ANGSTROM
     32         11  H    CARTESIAN Y     0.941200      0.007462  KCAL/ANGSTROM
     33         11  H    CARTESIAN Z    -0.672975      0.100814  KCAL/ANGSTROM
     34         12  H    CARTESIAN X    -1.677875     -0.097868  KCAL/ANGSTROM
     35         12  H    CARTESIAN Y    -1.708882      0.020123  KCAL/ANGSTROM
     36         12  H    CARTESIAN Z    -0.848481     -0.039105  KCAL/ANGSTROM
     37         13  H    CARTESIAN X    -1.976607     -0.007929  KCAL/ANGSTROM
     38         13  H    CARTESIAN Y    -1.311285     -0.071410  KCAL/ANGSTROM
     39         13  H    CARTESIAN Z     0.793850      0.173918  KCAL/ANGSTROM
     40         14  H    CARTESIAN X     0.435216      0.184786  KCAL/ANGSTROM
     41         14  H    CARTESIAN Y    -2.496661     -0.024161  KCAL/ANGSTROM
     42         14  H    CARTESIAN Z     0.595467      0.230095  KCAL/ANGSTROM




   ATOM   CHEMICAL          X               Y               Z
  NUMBER   SYMBOL      (ANGSTROMS)     (ANGSTROMS)     (ANGSTROMS)

     1       O          2.17306561  *  -0.49326285  *  -0.53372819  *
     2       C          1.08359161  *  -0.34301579  *   0.31434925  *
     3       C          0.19118012  *   0.85647417  *  -0.18332128  *
     4       C         -1.13938571  *   0.34202075  *  -0.34657182  *
     5       C         -1.22400404  *  -1.07743494  *  -0.02485383  *
     6       C          0.14476857  *  -1.49757630  *   0.34225735  *
     7       H          1.99162115  *  -1.08715559  *  -1.29938979  *
     8       H          1.55793783  *  -0.12266890  *   1.30633649  *
     9       H          0.64617869  *   1.31779114  *  -1.11202770  *
    10       H          0.28163799  *   1.75942307  *   0.48080107  *
    11       H         -1.99944042  *   0.94120013  *  -0.67297534  *
    12       H         -1.67787544  *  -1.70888247  *  -0.84848109  *
    13       H         -1.97660709  *  -1.31128538  *   0.79384988  *
    14       H          0.43521614  *  -2.49666138  *   0.59546723  *

                             CARTESIAN COORDINATES

   1    O        2.173065611    -0.493262852    -0.533728190
   2    C        1.083591610    -0.343015794     0.314349253
   3    C        0.191180119     0.856474169    -0.183321284
   4    C       -1.139385709     0.342020754    -0.346571820
   5    C       -1.224004044    -1.077434944    -0.024853825
   6    C        0.144768567    -1.497576304     0.342257352
   7    H        1.991621154    -1.087155592    -1.299389792
   8    H        1.557937835    -0.122668904     1.306336492
   9    H        0.646178686     1.317791137    -1.112027697
  10    H        0.281637986     1.759423073     0.480801069
  11    H       -1.999440418     0.941200131    -0.672975341
  12    H       -1.677875444    -1.708882475    -0.848481085
  13    H       -1.976607090    -1.311285384     0.793849878
  14    H        0.435216143    -2.496661375     0.595467231


           Empirical Formula: C5 H8 O  =    14 atoms



      MOLECULAR POINT GROUP   :   C1  


          ALPHA EIGENVALUES  
 -36.81870 -33.88042 -30.70451 -29.78653 -25.27510 -24.96601 -23.30696 -21.69524
 -20.85272 -19.60238 -19.51259 -19.18160 -18.58851 -18.45696 -16.81493 -15.35219
 -14.31049  -7.31547  -2.77020  -2.50504  -1.92233  -1.67047  -1.40487  -0.91647
  -0.86699  -0.77696  -0.56807   0.15139   0.49311   0.85118   1.45332   1.80097


           BETA EIGENVALUES 
 -36.73740 -33.71368 -30.63015 -29.62785 -25.22247 -24.79863 -23.21338 -21.50261
 -20.78825 -19.51196 -19.45470 -19.09221 -18.43882 -18.27698 -16.66934 -15.26901
  -7.23714  -4.77365  -2.75009  -2.46641  -1.91329  -1.47827  -1.21991  -0.85860
  -0.75862  -0.57779  -0.45755   0.19742   0.49876   0.90854   1.65363   1.81460


              NET ATOMIC CHARGES AND DIPOLE CONTRIBUTIONS

  ATOM NO.   TYPE          CHARGE      No. of ELECS.   s-Pop       p-Pop       
    1          O          -0.483161        6.4832     1.84814     4.63502
    2          C           0.174911        3.8251     1.08618     2.73891
    3          C          -0.490088        4.4901     1.08545     3.40464
    4          C           0.408359        3.5916     1.19904     2.39260
    5          C          -0.397938        4.3979     1.06503     3.33291
    6          C          -0.196045        4.1960     1.13465     3.06140
    7          H           0.330986        0.6690     0.66901
    8          H           0.194478        0.8055     0.80552
    9          H           0.279542        0.7205     0.72046
   10          H           0.263305        0.7367     0.73670
   11          H           0.184903        0.8151     0.81510
   12          H           0.263230        0.7368     0.73677
   13          H           0.269613        0.7304     0.73039
   14          H           0.197907        0.8021     0.80209
 DIPOLE           X         Y         Z       TOTAL
 POINT-CHG.    -6.107     1.522    -0.366     6.305
 HYBRID        -0.402     0.097    -0.569     0.703
 SUM           -6.510     1.619    -0.934     6.773


          ATOMIC ORBITAL ELECTRON POPULATIONS

     Atom    s        px        py        pz   
    1  O   1.84814   1.40461   1.74603   1.48437
    2  C   1.08618   0.86372   0.88066   0.99453
    3  C   1.08545   1.02771   1.16179   1.21514
    4  C   1.19904   1.01279   0.97604   0.40376
    5  C   1.06503   1.12592   1.01492   1.19207
    6  C   1.13465   0.93755   1.09694   1.02691
    7  H   0.66901
    8  H   0.80552
    9  H   0.72046
   10  H   0.73670
   11  H   0.81510
   12  H   0.73677
   13  H   0.73039
   14  H   0.80209


                    (SZ)    =    0.500000
                    (S**2)  =    0.754222


          ATOMIC ORBITAL SPIN POPULATIONS

    Atom   Total    s     px     py     pz   
         Atomic
    1  O  0.0424  0.001  0.031  0.005  0.006
    2  C -0.0534 -0.005 -0.014 -0.018 -0.016
    3  C  0.0020  0.000 -0.001  0.000  0.002
    4  C  0.0314  0.001  0.001  0.004  0.025
    5  C -0.0430 -0.006 -0.024 -0.005 -0.008
    6  C  1.0012  0.026  0.067  0.060  0.847
    7  H -0.0030 -0.003
    8  H  0.0210  0.021
    9  H  0.0010  0.001
   10  H  0.0009  0.001
   11  H -0.0013 -0.001
   12  H  0.0130  0.013
   13  H  0.0147  0.015
   14  H -0.0269 -0.027

 **********************
 *                    *
 * JOB ENDED NORMALLY *
 *                    *
 **********************



 TOTAL JOB TIME:             0.52 SECONDS

 == MOPAC DONE ==
