 *******************************************************************************
 **                                                                           **
 **                              MOPAC v23.2                                  **
 **                                                                           **
 *******************************************************************************
 **          Digital Object Identifier (DOI): 10.5281/zenodo.6511958          **
 **    Visit the DOI location for information on how to cite this program.    **
 *******************************************************************************

                              PM7 CALCULATION RESULTS

 *******************************************************************************
 *  CALCULATION DONE: (MAX THREADS = 40)             Fri Sep 19 21:42:37 2025  *
 *  PM7        - The PM7 Hamiltonian to be used
 *
 *
 *
 *                 CHARGE ON SYSTEM = +1
 *
 *
 *
 *  EPS=37.5   - USE ANDREAS KLAMT'S COSMO IMPLICIT SOLVATION MODEL
 *  1SCF       - DO 1 SCF AND THEN STOP 
 *  T=         - A TIME OF 172800.0 SECONDS REQUESTED
 *  DUMP=N     - RESTART FILE WRITTEN EVERY 7200.0 SECONDS REQUESTED
 *  RELSCF     - DEFAULT SCF CRITERION MULTIPLIED BY 0.0001
 *              (DEFAULT SCF CRITERION = 0.00010)
 *  GRADIENTS  - ALL GRADIENTS TO BE PRINTED
 *  DISP       - PRINT DISPERSION AND HYDROGEN BOND ENERGIES
 *******************************************************************************
PM7 1SCF GRADIENTS EPS=37.5 DISP RELSCF=0.0001 CHARGE=1
 Title: ASE calculation

   ATOM   CHEMICAL          X               Y               Z
  NUMBER   SYMBOL      (ANGSTROMS)     (ANGSTROMS)     (ANGSTROMS)

     1       C          1.87498751  *   1.22569632  *  -0.46114014  *
     2       C          1.10347512  *   0.37098052  *   0.49152612  *
     3       C         -0.35785086  *   0.86726327  *   0.96808685  *
     4       C         -0.63863133  *  -0.69040208  *   1.34525172  *
     5       C         -2.00336814  *  -1.15013125  *   1.45818150  *
     6       C         -0.81548876  *   0.42233635  *  -0.39205906  *
     7       C         -1.71819060  *   0.84392586  *  -1.40269362  *
     8       C          0.09417109  *  -0.73897929  *  -0.10671458  *
     9       H          1.30378231  *   1.62896916  *  -1.30311116  *
    10       H          2.32952991  *   2.09401788  *   0.05502356  *
    11       H          2.72898360  *   0.67149394  *  -0.89755514  *
    12       H          1.73687210  *  -0.00310025  *   1.31672967  *
    13       H         -0.59213926  *   1.72820558  *   1.55502973  *
    14       H         -0.00138090  *  -1.06667603  *   2.17535592  *
    15       H         -2.72898360  *  -0.61604319  *   2.04059837  *
    16       H         -2.31255744  *  -2.09401788  *   1.05273907  *
    17       H         -2.15509537  *   0.01256889  *  -2.00792476  *
    18       H         -2.56614704  *   1.47054950  *  -1.03290375  *
    19       H         -1.22741041  *   1.49881715  *  -2.17535592  *
    20       H          0.34615525  *  -1.60647464  *  -0.67634101  *



          CARTESIAN COORDINATES 

    NO.       ATOM           X           Y           Z

     1         C          1.8750      1.2257     -0.4611
     2         C          1.1035      0.3710      0.4915
     3         C         -0.3579      0.8673      0.9681
     4         C         -0.6386     -0.6904      1.3453
     5         C         -2.0034     -1.1501      1.4582
     6         C         -0.8155      0.4223     -0.3921
     7         C         -1.7182      0.8439     -1.4027
     8         C          0.0942     -0.7390     -0.1067
     9         H          1.3038      1.6290     -1.3031
    10         H          2.3295      2.0940      0.0550
    11         H          2.7290      0.6715     -0.8976
    12         H          1.7369     -0.0031      1.3167
    13         H         -0.5921      1.7282      1.5550
    14         H         -0.0014     -1.0667      2.1754
    15         H         -2.7290     -0.6160      2.0406
    16         H         -2.3126     -2.0940      1.0527
    17         H         -2.1551      0.0126     -2.0079
    18         H         -2.5661      1.4705     -1.0329
    19         H         -1.2274      1.4988     -2.1754
    20         H          0.3462     -1.6065     -0.6763

 General Reference for PM7:
 "Optimization of Parameters for Semiempirical Methods VI: More Modifications to the 
 NDDO Approximations and Re-optimization of Parameters", J. J. P. Stewart, J. Mol. Mod., 1:32, 19 (2013)
 https://link.springer.com/article/10.1007/s00894-012-1667-x

           Empirical Formula: C8 H12  =    20 atoms



      MOLECULAR POINT GROUP   :   Cs  


          UHF CALCULATION, NO. OF ALPHA ELECTRONS =   22
                           NO. OF BETA  ELECTRONS =   21
  SCF CRITERION =    0.1000E-07

 -------------------------------------------------------------------------------
 PM7 1SCF GRADIENTS EPS=37.5 DISP RELSCF=0.0001 CHARGE=1
 Title: ASE calculation



     1SCF WAS SPECIFIED, SO BFGS WAS NOT USED                 
     SCF FIELD WAS ACHIEVED                                   


                              PM7 CALCULATION
                                                       MOPAC v23.2 Linux
                                                       Fri Sep 19 21:42:38 2025




          FINAL HEAT OF FORMATION =        234.54913 KCAL/MOL =     981.35357 KJ/MOL

          TOTAL ENERGY            =     -26162.53630 KCAL/MOL = ELECTRONIC ENERGY + CORE-CORE REPULSION + SOLVATION ENERGY
          ENERGY OF ATOMS         =      26398.86351 KCAL/MOL
                              SUM =        236.32721 KCAL/MOL
          DISPERSION ENERGY       =         -1.77808 KCAL/MOL
                              SUM =        234.54913 KCAL/MOL = FINAL HEAT OF FORMATION

          VAN DER WAALS AREA      =        160.53 SQUARE ANGSTROMS


          TOTAL ENERGY            =      -1134.51495 EV
          ELECTRONIC ENERGY       =      -1865.49012 EV 
          CORE-CORE REPULSION     =        730.97517 EV

          DIELECTRIC ENERGY       =         -2.13259 EV
          COSMO AREA              =        160.53 SQUARE ANGSTROMS
          COSMO VOLUME            =        159.14 CUBIC ANGSTROMS

          GRADIENT NORM           =         17.15226          =       3.83536 PER ATOM
          IONIZATION POTENTIAL    =         10.177843 EV
          ALPHA SOMO LUMO (EV)    =        -10.178 -2.103
          BETA  SOMO LUMO (EV)    =        -12.215 -2.098
          NO. OF ALPHA ELECTRONS  =         22
          NO. OF BETA  ELECTRONS  =         21
          MOLECULAR WEIGHT        =        108.1828         POINT GROUP:  Cs  

          MOLECULAR DIMENSIONS (Angstroms)

            Atom       Atom       Distance
            H    16    H    10     6.33120
            H    14    H    19     4.98118
            H    20    H    13     3.93679


          SCF CALCULATIONS        =          2

          WALL-CLOCK TIME         =      0.844 SECONDS
          COMPUTATION TIME        =      1.012 SECONDS

          LARGEST ATOMIC GRADIENTS

          Atom     Label                     Cartesian Gradients           Cartesian Coordinates       |Gradient|
                                           X          Y          Z        X          Y          Z

             6       C                   6.042     -3.911      8.304   -0.81549    0.42234   -0.39206     10.989
             7       C                  -2.486      4.552     -7.855   -1.71819    0.84393   -1.40269      9.413
             1       C                  -4.296     -0.808     -0.593    1.87499    1.22570   -0.46114      4.411
             3       C                  -2.011      2.488     -1.449   -0.35785    0.86726    0.96809      3.512
             8       C                  -1.246     -0.252     -3.259    0.09417   -0.73898   -0.10671      3.498
             5       C                   0.380      1.714     -2.427   -2.00337   -1.15013    1.45818      2.995
            10       H                   1.988      0.812      0.342    2.32953    2.09402    0.05502      2.174
            11       H                   2.124      0.200     -0.047    2.72898    0.67149   -0.89756      2.133
             4       C                  -0.484     -1.183      1.606   -0.63863   -0.69040    1.34525      2.053
             2       C                   1.659      0.357      0.185    1.10348    0.37098    0.49153      1.707



       FINAL  POINT  AND  DERIVATIVES

   PARAMETER     ATOM    TYPE            VALUE        GRADIENT
      1          1  C    CARTESIAN X     1.874988     -4.295865  KCAL/ANGSTROM
      2          1  C    CARTESIAN Y     1.225696     -0.807958  KCAL/ANGSTROM
      3          1  C    CARTESIAN Z    -0.461140     -0.592600  KCAL/ANGSTROM
      4          2  C    CARTESIAN X     1.103475      1.659239  KCAL/ANGSTROM
      5          2  C    CARTESIAN Y     0.370981      0.357094  KCAL/ANGSTROM
      6          2  C    CARTESIAN Z     0.491526      0.185299  KCAL/ANGSTROM
      7          3  C    CARTESIAN X    -0.357851     -2.011393  KCAL/ANGSTROM
      8          3  C    CARTESIAN Y     0.867263      2.487792  KCAL/ANGSTROM
      9          3  C    CARTESIAN Z     0.968087     -1.448861  KCAL/ANGSTROM
     10          4  C    CARTESIAN X    -0.638631     -0.484275  KCAL/ANGSTROM
     11          4  C    CARTESIAN Y    -0.690402     -1.183452  KCAL/ANGSTROM
     12          4  C    CARTESIAN Z     1.345252      1.606391  KCAL/ANGSTROM
     13          5  C    CARTESIAN X    -2.003368      0.379539  KCAL/ANGSTROM
     14          5  C    CARTESIAN Y    -1.150131      1.713635  KCAL/ANGSTROM
     15          5  C    CARTESIAN Z     1.458181     -2.426776  KCAL/ANGSTROM
     16          6  C    CARTESIAN X    -0.815489      6.041856  KCAL/ANGSTROM
     17          6  C    CARTESIAN Y     0.422336     -3.910513  KCAL/ANGSTROM
     18          6  C    CARTESIAN Z    -0.392059      8.304343  KCAL/ANGSTROM
     19          7  C    CARTESIAN X    -1.718191     -2.486384  KCAL/ANGSTROM
     20          7  C    CARTESIAN Y     0.843926      4.551802  KCAL/ANGSTROM
     21          7  C    CARTESIAN Z    -1.402694     -7.854801  KCAL/ANGSTROM
     22          8  C    CARTESIAN X     0.094171     -1.246418  KCAL/ANGSTROM
     23          8  C    CARTESIAN Y    -0.738979     -0.252254  KCAL/ANGSTROM
     24          8  C    CARTESIAN Z    -0.106715     -3.259048  KCAL/ANGSTROM
     25          9  H    CARTESIAN X     1.303782      1.427627  KCAL/ANGSTROM
     26          9  H    CARTESIAN Y     1.628969      0.159552  KCAL/ANGSTROM
     27          9  H    CARTESIAN Z    -1.303111      0.260801  KCAL/ANGSTROM
     28         10  H    CARTESIAN X     2.329530      1.987979  KCAL/ANGSTROM
     29         10  H    CARTESIAN Y     2.094018      0.811607  KCAL/ANGSTROM
     30         10  H    CARTESIAN Z     0.055024      0.341544  KCAL/ANGSTROM
     31         11  H    CARTESIAN X     2.728984      2.123539  KCAL/ANGSTROM
     32         11  H    CARTESIAN Y     0.671494      0.200483  KCAL/ANGSTROM
     33         11  H    CARTESIAN Z    -0.897555     -0.046566  KCAL/ANGSTROM
     34         12  H    CARTESIAN X     1.736872      0.590725  KCAL/ANGSTROM
     35         12  H    CARTESIAN Y    -0.003100      0.037085  KCAL/ANGSTROM
     36         12  H    CARTESIAN Z     1.316730      0.152847  KCAL/ANGSTROM
     37         13  H    CARTESIAN X    -0.592139      0.350219  KCAL/ANGSTROM
     38         13  H    CARTESIAN Y     1.728206      0.454246  KCAL/ANGSTROM
     39         13  H    CARTESIAN Z     1.555030      0.799748  KCAL/ANGSTROM
     40         14  H    CARTESIAN X    -0.001381     -0.173985  KCAL/ANGSTROM
     41         14  H    CARTESIAN Y    -1.066676     -0.147502  KCAL/ANGSTROM
     42         14  H    CARTESIAN Z     2.175356      0.087193  KCAL/ANGSTROM
     43         15  H    CARTESIAN X    -2.728984     -0.732767  KCAL/ANGSTROM
     44         15  H    CARTESIAN Y    -0.616043     -0.682577  KCAL/ANGSTROM
     45         15  H    CARTESIAN Z     2.040598      1.155134  KCAL/ANGSTROM
     46         16  H    CARTESIAN X    -2.312557     -0.651358  KCAL/ANGSTROM
     47         16  H    CARTESIAN Y    -2.094018     -1.029822  KCAL/ANGSTROM
     48         16  H    CARTESIAN Z     1.052739      0.884745  KCAL/ANGSTROM
     49         17  H    CARTESIAN X    -2.155095     -1.225801  KCAL/ANGSTROM
     50         17  H    CARTESIAN Y     0.012569     -0.828266  KCAL/ANGSTROM
     51         17  H    CARTESIAN Z    -2.007925      0.534257  KCAL/ANGSTROM
     52         18  H    CARTESIAN X    -2.566147     -1.331222  KCAL/ANGSTROM
     53         18  H    CARTESIAN Y     1.470549     -0.633009  KCAL/ANGSTROM
     54         18  H    CARTESIAN Z    -1.032904      0.717865  KCAL/ANGSTROM
     55         19  H    CARTESIAN X    -1.227410     -0.634254  KCAL/ANGSTROM
     56         19  H    CARTESIAN Y     1.498817     -0.574025  KCAL/ANGSTROM
     57         19  H    CARTESIAN Z    -2.175356      0.606392  KCAL/ANGSTROM
     58         20  H    CARTESIAN X     0.346155      0.712996  KCAL/ANGSTROM
     59         20  H    CARTESIAN Y    -1.606475     -0.723921  KCAL/ANGSTROM
     60         20  H    CARTESIAN Z    -0.676341     -0.007909  KCAL/ANGSTROM




   ATOM   CHEMICAL          X               Y               Z
  NUMBER   SYMBOL      (ANGSTROMS)     (ANGSTROMS)     (ANGSTROMS)

     1       C          1.87498751  *   1.22569632  *  -0.46114014  *
     2       C          1.10347512  *   0.37098052  *   0.49152612  *
     3       C         -0.35785086  *   0.86726327  *   0.96808685  *
     4       C         -0.63863133  *  -0.69040208  *   1.34525172  *
     5       C         -2.00336814  *  -1.15013125  *   1.45818150  *
     6       C         -0.81548876  *   0.42233635  *  -0.39205906  *
     7       C         -1.71819060  *   0.84392586  *  -1.40269362  *
     8       C          0.09417109  *  -0.73897929  *  -0.10671458  *
     9       H          1.30378231  *   1.62896916  *  -1.30311116  *
    10       H          2.32952991  *   2.09401788  *   0.05502356  *
    11       H          2.72898360  *   0.67149394  *  -0.89755514  *
    12       H          1.73687210  *  -0.00310025  *   1.31672967  *
    13       H         -0.59213926  *   1.72820558  *   1.55502973  *
    14       H         -0.00138090  *  -1.06667603  *   2.17535592  *
    15       H         -2.72898360  *  -0.61604319  *   2.04059837  *
    16       H         -2.31255744  *  -2.09401788  *   1.05273907  *
    17       H         -2.15509537  *   0.01256889  *  -2.00792476  *
    18       H         -2.56614704  *   1.47054950  *  -1.03290375  *
    19       H         -1.22741041  *   1.49881715  *  -2.17535592  *
    20       H          0.34615525  *  -1.60647464  *  -0.67634101  *

                             CARTESIAN COORDINATES

   1    C        1.874987506     1.225696317    -0.461140138
   2    C        1.103475117     0.370980516     0.491526119
   3    C       -0.357850857     0.867263271     0.968086849
   4    C       -0.638631326    -0.690402080     1.345251722
   5    C       -2.003368144    -1.150131254     1.458181499
   6    C       -0.815488756     0.422336350    -0.392059057
   7    C       -1.718190600     0.843925859    -1.402693615
   8    C        0.094171086    -0.738979290    -0.106714584
   9    H        1.303782309     1.628969161    -1.303111158
  10    H        2.329529913     2.094017876     0.055023557
  11    H        2.728983596     0.671493938    -0.897555139
  12    H        1.736872099    -0.003100255     1.316729665
  13    H       -0.592139258     1.728205584     1.555029726
  14    H       -0.001380897    -1.066676027     2.175355915
  15    H       -2.728983596    -0.616043189     2.040598368
  16    H       -2.312557438    -2.094017876     1.052739072
  17    H       -2.155095372     0.012568890    -2.007924760
  18    H       -2.566147040     1.470549497    -1.032903747
  19    H       -1.227410408     1.498817149    -2.175355915
  20    H        0.346155248    -1.606474640    -0.676341006


           Empirical Formula: C8 H12  =    20 atoms



      MOLECULAR POINT GROUP   :   Cs  


          ALPHA EIGENVALUES  
 -34.68429 -27.86487 -27.23343 -25.09513 -23.03594 -21.95482 -20.11478 -18.34321
 -17.60474 -16.74703 -16.20051 -15.76698 -15.76480 -14.74944 -14.73495 -14.03135
 -13.29976 -13.14461 -12.63230 -12.50834 -12.23959 -10.17784  -2.10312   1.05449
   1.32938   1.36267   1.68263   1.79163   2.44431   3.30439   3.51116   3.73251
   4.28094   4.56818   4.84455   5.00482   5.20580   5.22946   5.29418   5.37032
   5.59645   5.66124   5.84576   6.45394


           BETA EIGENVALUES 
 -34.66535 -27.85878 -27.14363 -24.89698 -23.02703 -21.90209 -19.94695 -18.32533
 -17.58214 -16.61975 -16.18902 -15.65787 -15.60838 -14.71864 -14.70142 -13.85927
 -13.29469 -13.05220 -12.60085 -12.45476 -12.21487  -2.09847  -0.33470   1.06378
   1.33536   1.40014   1.76506   1.79567   2.47738   3.34029   3.55501   3.99932
   4.28177   4.56859   4.88977   5.05041   5.21011   5.22966   5.29705   5.37269
   5.66181   5.76863   6.10474   6.45398


              NET ATOMIC CHARGES AND DIPOLE CONTRIBUTIONS

  ATOM NO.   TYPE          CHARGE      No. of ELECS.   s-Pop       p-Pop       
    1          C          -0.489798        4.4898     1.05182     3.43797
    2          C          -0.047662        4.0477     1.09498     2.95268
    3          C          -0.225890        4.2259     1.13192     3.09397
    4          C          -0.088194        4.0882     1.08900     2.99919
    5          C          -0.329009        4.3290     1.12810     3.20091
    6          C           0.465397        3.5346     1.20229     2.33231
    7          C          -0.554877        4.5549     1.05505     3.49982
    8          C          -0.225965        4.2260     1.13189     3.09408
    9          H           0.164068        0.8359     0.83593
   10          H           0.186990        0.8130     0.81301
   11          H           0.187361        0.8126     0.81264
   12          H           0.195224        0.8048     0.80478
   13          H           0.210309        0.7897     0.78969
   14          H           0.224570        0.7754     0.77543
   15          H           0.174671        0.8253     0.82533
   16          H           0.174487        0.8255     0.82551
   17          H           0.244493        0.7555     0.75551
   18          H           0.243957        0.7560     0.75604
   19          H           0.279749        0.7203     0.72025
   20          H           0.210120        0.7899     0.78988
 DIPOLE           X         Y         Z       TOTAL
 POINT-CHG.    -1.193     1.137    -2.205     2.753
 HYBRID        -0.245     0.141    -0.314     0.422
 SUM           -1.438     1.278    -2.519     3.170


          ATOMIC ORBITAL ELECTRON POPULATIONS

     Atom    s        px        py        pz   
    1  C   1.05182   1.16077   1.15039   1.12682
    2  C   1.09498   0.92467   0.96840   1.05961
    3  C   1.13192   1.02748   1.07056   0.99593
    4  C   1.08900   1.05055   0.95016   0.99848
    5  C   1.12810   1.01005   1.12206   1.06880
    6  C   1.20229   0.64204   0.83774   0.85253
    7  C   1.05505   1.14355   1.23222   1.12405
    8  C   1.13189   1.00501   1.05442   1.03464
    9  H   0.83593
   10  H   0.81301
   11  H   0.81264
   12  H   0.80478
   13  H   0.78969
   14  H   0.77543
   15  H   0.82533
   16  H   0.82551
   17  H   0.75551
   18  H   0.75604
   19  H   0.72025
   20  H   0.78988


                    (SZ)    =    0.500000
                    (S**2)  =    0.753399


          ATOMIC ORBITAL SPIN POPULATIONS

    Atom   Total    s     px     py     pz   
         Atomic
    1  C  0.0004  0.000  0.000  0.000  0.000
    2  C -0.0035 -0.001 -0.001 -0.001 -0.000
    3  C  0.0222  0.003  0.003  0.012  0.005
    4  C -0.0560 -0.007 -0.022 -0.013 -0.014
    5  C  1.0381  0.026  0.101  0.242  0.669
    6  C  0.0024 -0.001  0.003  0.000 -0.000
    7  C  0.0005  0.000  0.000 -0.000  0.000
    8  C  0.0224  0.003  0.004  0.002  0.013
    9  H -0.0000 -0.000
   10  H -0.0000 -0.000
   11  H -0.0000 -0.000
   12  H  0.0002  0.000
   13  H -0.0004 -0.000
   14  H  0.0317  0.032
   15  H -0.0289 -0.029
   16  H -0.0289 -0.029
   17  H  0.0000  0.000
   18  H  0.0000  0.000
   19  H  0.0001  0.000
   20  H -0.0004 -0.000

 **********************
 *                    *
 * JOB ENDED NORMALLY *
 *                    *
 **********************



 TOTAL JOB TIME:             1.16 SECONDS

 == MOPAC DONE ==
