 *******************************************************************************
 **                                                                           **
 **                              MOPAC v23.2                                  **
 **                                                                           **
 *******************************************************************************
 **          Digital Object Identifier (DOI): 10.5281/zenodo.6511958          **
 **    Visit the DOI location for information on how to cite this program.    **
 *******************************************************************************

                              PM7 CALCULATION RESULTS

 *******************************************************************************
 *  CALCULATION DONE: (MAX THREADS = 40)             Fri Sep 19 22:01:47 2025  *
 *  PM7        - The PM7 Hamiltonian to be used
 *
 *
 *
 *                 CHARGE ON SYSTEM = +1
 *
 *
 *
 *  1SCF       - DO 1 SCF AND THEN STOP 
 *  T=         - A TIME OF 172800.0 SECONDS REQUESTED
 *  DUMP=N     - RESTART FILE WRITTEN EVERY 7200.0 SECONDS REQUESTED
 *  RELSCF     - DEFAULT SCF CRITERION MULTIPLIED BY 0.0001
 *              (DEFAULT SCF CRITERION = 0.00010)
 *  GRADIENTS  - ALL GRADIENTS TO BE PRINTED
 *  DISP       - PRINT DISPERSION AND HYDROGEN BOND ENERGIES
 *******************************************************************************
PM7 1SCF GRADIENTS DISP RELSCF=0.0001 CHARGE=1
 Title: ASE calculation

   ATOM   CHEMICAL          X               Y               Z
  NUMBER   SYMBOL      (ANGSTROMS)     (ANGSTROMS)     (ANGSTROMS)

     1       C          2.58503195  *  -1.33690261  *   1.51425137  *
     2       O          1.52668436  *  -0.83932634  *   0.67076307  *
     3       C          0.32424855  *  -0.89391301  *   1.15086348  *
     4       C          0.30617214  *  -0.57421418  *  -2.08092830  *
     5       N         -0.08510873  *   0.25969249  *  -1.09918732  *
     6       C          0.09980525  *   1.59144464  *  -1.17695893  *
     7       C         -0.65147152  *  -0.31490155  *   0.11571566  *
     8       C         -1.98679251  *  -1.05114019  *   0.04340741  *
     9       C         -1.92165999  *   0.28563999  *   0.70915941  *
    10       H          3.27830679  *  -0.49313665  *   1.62331783  *
    11       H          3.03848198  *  -2.16382948  *   0.95309427  *
    12       H          2.20479195  *  -1.67368068  *   2.48732578  *
    13       H          0.78335856  *  -0.21448633  *  -2.99334908  *
    14       H          0.16456469  *  -1.65258535  *  -1.99076117  *
    15       H         -0.20465027  *   2.25110041  *  -0.36298867  *
    16       H          0.56193447  *   2.06344128  *  -2.04492314  *
    17       H         -2.12086929  *  -1.95720627  *   0.64748077  *
    18       H         -2.50046670  *  -1.17129980  *  -0.91091520  *
    19       H         -2.39422567  *   1.15437682  *   0.24977250  *
    20       H         -2.00730328  *   0.36017524  *   1.80098115  *



          CARTESIAN COORDINATES 

    NO.       ATOM           X           Y           Z

     1         C          2.5850     -1.3369      1.5143
     2         O          1.5267     -0.8393      0.6708
     3         C          0.3242     -0.8939      1.1509
     4         C          0.3062     -0.5742     -2.0809
     5         N         -0.0851      0.2597     -1.0992
     6         C          0.0998      1.5914     -1.1770
     7         C         -0.6515     -0.3149      0.1157
     8         C         -1.9868     -1.0511      0.0434
     9         C         -1.9217      0.2856      0.7092
    10         H          3.2783     -0.4931      1.6233
    11         H          3.0385     -2.1638      0.9531
    12         H          2.2048     -1.6737      2.4873
    13         H          0.7834     -0.2145     -2.9933
    14         H          0.1646     -1.6526     -1.9908
    15         H         -0.2047      2.2511     -0.3630
    16         H          0.5619      2.0634     -2.0449
    17         H         -2.1209     -1.9572      0.6475
    18         H         -2.5005     -1.1713     -0.9109
    19         H         -2.3942      1.1544      0.2498
    20         H         -2.0073      0.3602      1.8010

 General Reference for PM7:
 "Optimization of Parameters for Semiempirical Methods VI: More Modifications to the 
 NDDO Approximations and Re-optimization of Parameters", J. J. P. Stewart, J. Mol. Mod., 1:32, 19 (2013)
 https://link.springer.com/article/10.1007/s00894-012-1667-x

           Empirical Formula: C7 H11 N O  =    20 atoms



      MOLECULAR POINT GROUP   :   C1  


          UHF CALCULATION, NO. OF ALPHA ELECTRONS =   25
                           NO. OF BETA  ELECTRONS =   24
  SCF CRITERION =    0.1000E-07

 -------------------------------------------------------------------------------
 PM7 1SCF GRADIENTS DISP RELSCF=0.0001 CHARGE=1
 Title: ASE calculation



     1SCF WAS SPECIFIED, SO BFGS WAS NOT USED                 
     SCF FIELD WAS ACHIEVED                                   


                              PM7 CALCULATION
                                                       MOPAC v23.2 Linux
                                                       Fri Sep 19 22:01:47 2025




          FINAL HEAT OF FORMATION =        222.96464 KCAL/MOL =     932.88404 KJ/MOL

          TOTAL ENERGY            =     -34098.64680 KCAL/MOL = ELECTRONIC ENERGY + CORE-CORE REPULSION
          ENERGY OF ATOMS         =      34323.93363 KCAL/MOL
                              SUM =        225.28683 KCAL/MOL
          DISPERSION ENERGY       =         -2.32219 KCAL/MOL
                              SUM =        222.96464 KCAL/MOL = FINAL HEAT OF FORMATION



          TOTAL ENERGY            =      -1478.65727 EV
          ELECTRONIC ENERGY       =      -7331.62017 EV 
          CORE-CORE REPULSION     =       5852.96290 EV
          COSMO AREA              =        176.01 SQUARE ANGSTROMS
          COSMO VOLUME            =        176.70 CUBIC ANGSTROMS

          GRADIENT NORM           =          0.95716          =       0.21403 PER ATOM
          IONIZATION POTENTIAL    =         13.793238 EV
          ALPHA SOMO LUMO (EV)    =        -13.793 -5.321
          BETA  SOMO LUMO (EV)    =        -13.799 -6.061
          NO. OF ALPHA ELECTRONS  =         25
          NO. OF BETA  ELECTRONS  =         24
          MOLECULAR WEIGHT        =        125.1700         POINT GROUP:  C1  

          MOLECULAR DIMENSIONS (Angstroms)

            Atom       Atom       Distance
            H    19    H    11     6.40464
            H    16    H    17     5.53186
            H    12    H    13     4.32086


          SCF CALCULATIONS        =          1

          WALL-CLOCK TIME         =      0.453 SECONDS
          COMPUTATION TIME        =      0.959 SECONDS

          LARGEST ATOMIC GRADIENTS

          Atom     Label                     Cartesian Gradients           Cartesian Coordinates       |Gradient|
                                           X          Y          Z        X          Y          Z

             3       C                   0.126     -0.282     -0.342    0.32425   -0.89391    1.15086      0.460
            17       H                   0.022      0.248      0.061   -2.12087   -1.95721    0.64748      0.257
             9       C                  -0.090     -0.183     -0.131   -1.92166    0.28564    0.70916      0.242
            11       H                   0.126     -0.022      0.200    3.03848   -2.16383    0.95309      0.237
             4       C                  -0.082      0.071      0.209    0.30617   -0.57421   -2.08093      0.235
            14       H                   0.019     -0.121      0.197    0.16456   -1.65259   -1.99076      0.232
            18       H                   0.175      0.003      0.149   -2.50047   -1.17130   -0.91092      0.230
            10       H                  -0.181     -0.062     -0.108    3.27831   -0.49314    1.62332      0.220
             1       C                  -0.121      0.100     -0.142    2.58503   -1.33690    1.51425      0.212
             6       C                   0.015      0.158     -0.113    0.09981    1.59144   -1.17696      0.195



       FINAL  POINT  AND  DERIVATIVES

   PARAMETER     ATOM    TYPE            VALUE        GRADIENT
      1          1  C    CARTESIAN X     2.585032     -0.120994  KCAL/ANGSTROM
      2          1  C    CARTESIAN Y    -1.336903      0.100381  KCAL/ANGSTROM
      3          1  C    CARTESIAN Z     1.514251     -0.141824  KCAL/ANGSTROM
      4          2  O    CARTESIAN X     1.526684     -0.022769  KCAL/ANGSTROM
      5          2  O    CARTESIAN Y    -0.839326     -0.131317  KCAL/ANGSTROM
      6          2  O    CARTESIAN Z     0.670763      0.009960  KCAL/ANGSTROM
      7          3  C    CARTESIAN X     0.324249      0.126016  KCAL/ANGSTROM
      8          3  C    CARTESIAN Y    -0.893913     -0.281681  KCAL/ANGSTROM
      9          3  C    CARTESIAN Z     1.150863     -0.341682  KCAL/ANGSTROM
     10          4  C    CARTESIAN X     0.306172     -0.082252  KCAL/ANGSTROM
     11          4  C    CARTESIAN Y    -0.574214      0.070842  KCAL/ANGSTROM
     12          4  C    CARTESIAN Z    -2.080928      0.208883  KCAL/ANGSTROM
     13          5  N    CARTESIAN X    -0.085109      0.006487  KCAL/ANGSTROM
     14          5  N    CARTESIAN Y     0.259692      0.172679  KCAL/ANGSTROM
     15          5  N    CARTESIAN Z    -1.099187      0.020085  KCAL/ANGSTROM
     16          6  C    CARTESIAN X     0.099805      0.014847  KCAL/ANGSTROM
     17          6  C    CARTESIAN Y     1.591445      0.158403  KCAL/ANGSTROM
     18          6  C    CARTESIAN Z    -1.176959     -0.112858  KCAL/ANGSTROM
     19          7  C    CARTESIAN X    -0.651472      0.098361  KCAL/ANGSTROM
     20          7  C    CARTESIAN Y    -0.314902     -0.117955  KCAL/ANGSTROM
     21          7  C    CARTESIAN Z     0.115716     -0.114648  KCAL/ANGSTROM
     22          8  C    CARTESIAN X    -1.986793     -0.071850  KCAL/ANGSTROM
     23          8  C    CARTESIAN Y    -1.051140      0.163147  KCAL/ANGSTROM
     24          8  C    CARTESIAN Z     0.043407      0.048429  KCAL/ANGSTROM
     25          9  C    CARTESIAN X    -1.921660     -0.089506  KCAL/ANGSTROM
     26          9  C    CARTESIAN Y     0.285640     -0.182814  KCAL/ANGSTROM
     27          9  C    CARTESIAN Z     0.709159     -0.130624  KCAL/ANGSTROM
     28         10  H    CARTESIAN X     3.278307     -0.181087  KCAL/ANGSTROM
     29         10  H    CARTESIAN Y    -0.493137     -0.062103  KCAL/ANGSTROM
     30         10  H    CARTESIAN Z     1.623318     -0.107617  KCAL/ANGSTROM
     31         11  H    CARTESIAN X     3.038482      0.125735  KCAL/ANGSTROM
     32         11  H    CARTESIAN Y    -2.163829     -0.021830  KCAL/ANGSTROM
     33         11  H    CARTESIAN Z     0.953094      0.200207  KCAL/ANGSTROM
     34         12  H    CARTESIAN X     2.204792      0.128793  KCAL/ANGSTROM
     35         12  H    CARTESIAN Y    -1.673681     -0.025965  KCAL/ANGSTROM
     36         12  H    CARTESIAN Z     2.487326     -0.025394  KCAL/ANGSTROM
     37         13  H    CARTESIAN X     0.783359      0.027915  KCAL/ANGSTROM
     38         13  H    CARTESIAN Y    -0.214486     -0.062037  KCAL/ANGSTROM
     39         13  H    CARTESIAN Z    -2.993349      0.025836  KCAL/ANGSTROM
     40         14  H    CARTESIAN X     0.164565      0.018974  KCAL/ANGSTROM
     41         14  H    CARTESIAN Y    -1.652585     -0.121067  KCAL/ANGSTROM
     42         14  H    CARTESIAN Z    -1.990761      0.196816  KCAL/ANGSTROM
     43         15  H    CARTESIAN X    -0.204650     -0.111611  KCAL/ANGSTROM
     44         15  H    CARTESIAN Y     2.251100     -0.076266  KCAL/ANGSTROM
     45         15  H    CARTESIAN Z    -0.362989      0.072380  KCAL/ANGSTROM
     46         16  H    CARTESIAN X     0.561934     -0.015301  KCAL/ANGSTROM
     47         16  H    CARTESIAN Y     2.063441      0.126889  KCAL/ANGSTROM
     48         16  H    CARTESIAN Z    -2.044923      0.041005  KCAL/ANGSTROM
     49         17  H    CARTESIAN X    -2.120869      0.022237  KCAL/ANGSTROM
     50         17  H    CARTESIAN Y    -1.957206      0.248324  KCAL/ANGSTROM
     51         17  H    CARTESIAN Z     0.647481      0.061069  KCAL/ANGSTROM
     52         18  H    CARTESIAN X    -2.500467      0.174671  KCAL/ANGSTROM
     53         18  H    CARTESIAN Y    -1.171300      0.002531  KCAL/ANGSTROM
     54         18  H    CARTESIAN Z    -0.910915      0.149449  KCAL/ANGSTROM
     55         19  H    CARTESIAN X    -2.394226      0.079702  KCAL/ANGSTROM
     56         19  H    CARTESIAN Y     1.154377     -0.069814  KCAL/ANGSTROM
     57         19  H    CARTESIAN Z     0.249773      0.020711  KCAL/ANGSTROM
     58         20  H    CARTESIAN X    -2.007303     -0.128371  KCAL/ANGSTROM
     59         20  H    CARTESIAN Y     0.360175      0.109650  KCAL/ANGSTROM
     60         20  H    CARTESIAN Z     1.800981     -0.080184  KCAL/ANGSTROM




   ATOM   CHEMICAL          X               Y               Z
  NUMBER   SYMBOL      (ANGSTROMS)     (ANGSTROMS)     (ANGSTROMS)

     1       C          2.58503195  *  -1.33690261  *   1.51425137  *
     2       O          1.52668436  *  -0.83932634  *   0.67076307  *
     3       C          0.32424855  *  -0.89391301  *   1.15086348  *
     4       C          0.30617214  *  -0.57421418  *  -2.08092830  *
     5       N         -0.08510873  *   0.25969249  *  -1.09918732  *
     6       C          0.09980525  *   1.59144464  *  -1.17695893  *
     7       C         -0.65147152  *  -0.31490155  *   0.11571566  *
     8       C         -1.98679251  *  -1.05114019  *   0.04340741  *
     9       C         -1.92165999  *   0.28563999  *   0.70915941  *
    10       H          3.27830679  *  -0.49313665  *   1.62331783  *
    11       H          3.03848198  *  -2.16382948  *   0.95309427  *
    12       H          2.20479195  *  -1.67368068  *   2.48732578  *
    13       H          0.78335856  *  -0.21448633  *  -2.99334908  *
    14       H          0.16456469  *  -1.65258535  *  -1.99076117  *
    15       H         -0.20465027  *   2.25110041  *  -0.36298867  *
    16       H          0.56193447  *   2.06344128  *  -2.04492314  *
    17       H         -2.12086929  *  -1.95720627  *   0.64748077  *
    18       H         -2.50046670  *  -1.17129980  *  -0.91091520  *
    19       H         -2.39422567  *   1.15437682  *   0.24977250  *
    20       H         -2.00730328  *   0.36017524  *   1.80098115  *

                             CARTESIAN COORDINATES

   1    C        2.585031954    -1.336902609     1.514251368
   2    O        1.526684360    -0.839326338     0.670763070
   3    C        0.324248545    -0.893913014     1.150863477
   4    C        0.306172136    -0.574214180    -2.080928299
   5    N       -0.085108732     0.259692485    -1.099187315
   6    C        0.099805250     1.591444644    -1.176958932
   7    C       -0.651471518    -0.314901555     0.115715664
   8    C       -1.986792515    -1.051140189     0.043407412
   9    C       -1.921659994     0.285639991     0.709159413
  10    H        3.278306793    -0.493136647     1.623317831
  11    H        3.038481978    -2.163829485     0.953094271
  12    H        2.204791955    -1.673680685     2.487325783
  13    H        0.783358562    -0.214486330    -2.993349080
  14    H        0.164564694    -1.652585345    -1.990761169
  15    H       -0.204650272     2.251100405    -0.362988673
  16    H        0.561934474     2.063441282    -2.044923137
  17    H       -2.120869295    -1.957206268     0.647480773
  18    H       -2.500466699    -1.171299797    -0.910915203
  19    H       -2.394225667     1.154376817     0.249772505
  20    H       -2.007303280     0.360175237     1.800981145


           Empirical Formula: C7 H11 N O  =    20 atoms



      MOLECULAR POINT GROUP   :   C1  


          ALPHA EIGENVALUES  
 -42.88714 -35.02021 -34.67081 -30.56234 -29.35294 -27.96661 -26.04505 -25.22727
 -24.22957 -22.32637 -22.18057 -21.10390 -19.97247 -19.79610 -19.28717 -19.03834
 -18.87571 -18.42150 -16.95111 -16.85833 -16.56415 -16.13059 -15.78213 -14.71032
 -13.79324  -5.32106  -3.52775  -3.21029  -2.09805  -2.06317  -1.16034  -0.76749
  -0.55184  -0.10519   0.03919   0.31813   0.37784   0.58486   0.60263   1.17140
   1.24558   1.71524   1.88292   1.98881   2.08056   2.11771   2.41171


           BETA EIGENVALUES 
 -43.37830 -35.02322 -34.68395 -30.35884 -29.35312 -27.92928 -26.03504 -25.21293
 -24.17213 -22.23243 -22.17413 -21.13950 -19.93938 -19.79438 -19.20920 -18.85243
 -18.74418 -18.40825 -16.96171 -16.84996 -16.55630 -16.08991 -15.77524 -13.79861
  -6.06136  -4.09842  -3.60442  -3.22114  -2.09203  -2.05714  -1.20830  -0.78108
  -0.49105  -0.09821   0.02850   0.46759   0.51632   0.66278   0.70057   1.16563
   1.24527   1.71439   1.88279   1.98826   2.08002   2.11668   2.41120


              NET ATOMIC CHARGES AND DIPOLE CONTRIBUTIONS

  ATOM NO.   TYPE          CHARGE      No. of ELECS.   s-Pop       p-Pop       
    1          C          -0.126025        4.1260     1.10037     3.02566
    2          O          -0.452740        6.4527     1.82845     4.62429
    3          C           0.400166        3.5998     1.69620     1.90363
    4          C          -0.092060        4.0921     1.14184     2.95022
    5          N           0.046938        4.9531     1.48652     3.46654
    6          C          -0.101589        4.1016     1.14141     2.96017
    7          C          -0.244295        4.2443     1.11070     3.13359
    8          C          -0.252862        4.2529     1.06440     3.18846
    9          C          -0.254293        4.2543     1.06380     3.19049
   10          H           0.160428        0.8396     0.83957
   11          H           0.160218        0.8398     0.83978
   12          H           0.162841        0.8372     0.83716
   13          H           0.206652        0.7933     0.79335
   14          H           0.207559        0.7924     0.79244
   15          H           0.208268        0.7917     0.79173
   16          H           0.207278        0.7927     0.79272
   17          H           0.200646        0.7994     0.79935
   18          H           0.181187        0.8188     0.81881
   19          H           0.179326        0.8207     0.82067
   20          H           0.202358        0.7976     0.79764
 DIPOLE           X         Y         Z       TOTAL
 POINT-CHG.     0.363     0.848    -1.527     1.784
 HYBRID         0.340     0.942    -2.159     2.379
 SUM            0.702     1.790    -3.685     4.157


          ATOMIC ORBITAL ELECTRON POPULATIONS

     Atom    s        px        py        pz   
    1  C   1.10037   0.87659   1.11691   1.03215
    2  O   1.82845   1.35372   1.69534   1.57523
    3  C   1.69620   0.65249   0.40620   0.84495
    4  C   1.14184   0.92711   1.06744   0.95567
    5  N   1.48652   1.22028   1.10715   1.13911
    6  C   1.14141   0.95402   0.86514   1.14101
    7  C   1.11070   1.03905   1.17070   0.92384
    8  C   1.06440   0.95650   1.06304   1.16892
    9  C   1.06380   0.96838   1.05726   1.16486
   10  H   0.83957
   11  H   0.83978
   12  H   0.83716
   13  H   0.79335
   14  H   0.79244
   15  H   0.79173
   16  H   0.79272
   17  H   0.79935
   18  H   0.81881
   19  H   0.82067
   20  H   0.79764


                    (SZ)    =    0.500000
                    (S**2)  =    0.844647


          ATOMIC ORBITAL SPIN POPULATIONS

    Atom   Total    s     px     py     pz   
         Atomic
    1  C -0.0007 -0.000 -0.000 -0.000 -0.000
    2  O  0.0005  0.000  0.000  0.000 -0.000
    3  C -0.0183  0.003 -0.001 -0.005 -0.015
    4  C  0.7071  0.018  0.522  0.028  0.139
    5  N -0.3335 -0.018 -0.216 -0.030 -0.069
    6  C  0.7164  0.019  0.532  0.033  0.133
    7  C  0.0209  0.002  0.004  0.005  0.010
    8  C -0.0098 -0.001 -0.008 -0.000 -0.001
    9  C -0.0031 -0.000 -0.003  0.000 -0.000
   10  H  0.0000  0.000
   11  H  0.0000  0.000
   12  H  0.0000  0.000
   13  H -0.0199 -0.020
   14  H -0.0203 -0.020
   15  H -0.0205 -0.021
   16  H -0.0202 -0.020
   17  H  0.0005  0.000
   18  H  0.0004  0.000
   19  H  0.0002  0.000
   20  H  0.0003  0.000

 **********************
 *                    *
 * JOB ENDED NORMALLY *
 *                    *
 **********************



 TOTAL JOB TIME:             0.79 SECONDS

 == MOPAC DONE ==
