 *******************************************************************************
 **                                                                           **
 **                              MOPAC v23.2                                  **
 **                                                                           **
 *******************************************************************************
 **          Digital Object Identifier (DOI): 10.5281/zenodo.6511958          **
 **    Visit the DOI location for information on how to cite this program.    **
 *******************************************************************************

                              PM7 CALCULATION RESULTS

 *******************************************************************************
 *  CALCULATION DONE: (MAX THREADS = 40)             Fri Sep 19 21:30:40 2025  *
 *  PM7        - The PM7 Hamiltonian to be used
 *
 *
 *
 *                 CHARGE ON SYSTEM = +1
 *
 *
 *
 *  1SCF       - DO 1 SCF AND THEN STOP 
 *  T=         - A TIME OF 172800.0 SECONDS REQUESTED
 *  DUMP=N     - RESTART FILE WRITTEN EVERY 7200.0 SECONDS REQUESTED
 *  RELSCF     - DEFAULT SCF CRITERION MULTIPLIED BY 0.0001
 *              (DEFAULT SCF CRITERION = 0.00010)
 *  GRADIENTS  - ALL GRADIENTS TO BE PRINTED
 *  DISP       - PRINT DISPERSION AND HYDROGEN BOND ENERGIES
 *******************************************************************************
PM7 1SCF GRADIENTS DISP RELSCF=0.0001 CHARGE=1
 Title: ASE calculation

   ATOM   CHEMICAL          X               Y               Z
  NUMBER   SYMBOL      (ANGSTROMS)     (ANGSTROMS)     (ANGSTROMS)

     1       C         -2.20342445  *   0.75604594  *  -0.42798078  *
     2       C         -0.78674931  *   0.45705486  *  -0.18936529  *
     3       C          0.16090948  *   1.43773937  *  -0.08180932  *
     4       C          1.52458821  *   1.13200762  *   0.17232715  *
     5       O          2.42520016  *   1.98526803  *   0.00532989  *
     6       C          1.98758936  *  -0.20461973  *   0.70890416  *
     7       C          1.02696441  *  -1.31582679  *   0.35662272  *
     8       N          0.64831970  *  -1.36928109  *  -1.05878135  *
     9       C         -0.39996522  *  -0.97029070  *  -0.08575952  *
    10       H         -2.44474277  *   1.83469944  *  -0.45320209  *
    11       H         -2.54907558  *   0.34090985  *  -1.40128478  *
    12       H         -2.87230492  *   0.30655248  *   0.33324120  *
    13       H         -0.10416510  *   2.49462793  *  -0.22202826  *
    14       H          3.00988060  *  -0.46068943  *   0.31971553  *
    15       H          2.10414690  *  -0.11958992  *   1.82252909  *
    16       H          1.20092978  *  -2.23954843  *   0.93909835  *
    17       H          0.54811639  *  -2.27946094  *  -1.50366922  *
    18       H         -1.22236505  *  -1.66249637  *   0.16265396  *



          CARTESIAN COORDINATES 

    NO.       ATOM           X           Y           Z

     1         C         -2.2034      0.7560     -0.4280
     2         C         -0.7867      0.4571     -0.1894
     3         C          0.1609      1.4377     -0.0818
     4         C          1.5246      1.1320      0.1723
     5         O          2.4252      1.9853      0.0053
     6         C          1.9876     -0.2046      0.7089
     7         C          1.0270     -1.3158      0.3566
     8         N          0.6483     -1.3693     -1.0588
     9         C         -0.4000     -0.9703     -0.0858
    10         H         -2.4447      1.8347     -0.4532
    11         H         -2.5491      0.3409     -1.4013
    12         H         -2.8723      0.3066      0.3332
    13         H         -0.1042      2.4946     -0.2220
    14         H          3.0099     -0.4607      0.3197
    15         H          2.1041     -0.1196      1.8225
    16         H          1.2009     -2.2395      0.9391
    17         H          0.5481     -2.2795     -1.5037
    18         H         -1.2224     -1.6625      0.1627

 General Reference for PM7:
 "Optimization of Parameters for Semiempirical Methods VI: More Modifications to the 
 NDDO Approximations and Re-optimization of Parameters", J. J. P. Stewart, J. Mol. Mod., 1:32, 19 (2013)
 https://link.springer.com/article/10.1007/s00894-012-1667-x

           Empirical Formula: C7 H9 N O  =    18 atoms



      MOLECULAR POINT GROUP   :   C1  


          UHF CALCULATION, NO. OF ALPHA ELECTRONS =   24
                           NO. OF BETA  ELECTRONS =   23
  SCF CRITERION =    0.1000E-07

 -------------------------------------------------------------------------------
 PM7 1SCF GRADIENTS DISP RELSCF=0.0001 CHARGE=1
 Title: ASE calculation



     1SCF WAS SPECIFIED, SO BFGS WAS NOT USED                 
     SCF FIELD WAS ACHIEVED                                   


                              PM7 CALCULATION
                                                       MOPAC v23.2 Linux
                                                       Fri Sep 19 21:30:41 2025




          FINAL HEAT OF FORMATION =        213.87873 KCAL/MOL =     894.86859 KJ/MOL

          TOTAL ENERGY            =     -33493.44810 KCAL/MOL = ELECTRONIC ENERGY + CORE-CORE REPULSION
          ENERGY OF ATOMS         =      33709.16394 KCAL/MOL
                              SUM =        215.71584 KCAL/MOL
          DISPERSION ENERGY       =         -1.83711 KCAL/MOL
                              SUM =        213.87873 KCAL/MOL = FINAL HEAT OF FORMATION



          TOTAL ENERGY            =      -1452.41337 EV
          ELECTRONIC ENERGY       =      -6972.32523 EV 
          CORE-CORE REPULSION     =       5519.91186 EV
          COSMO AREA              =        157.92 SQUARE ANGSTROMS
          COSMO VOLUME            =        154.43 CUBIC ANGSTROMS

          GRADIENT NORM           =          1.13700          =       0.26799 PER ATOM
          IONIZATION POTENTIAL    =         14.732544 EV
          ALPHA SOMO LUMO (EV)    =        -14.774 -6.110
          BETA  SOMO LUMO (EV)    =        -14.733 -7.843
          NO. OF ALPHA ELECTRONS  =         24
          NO. OF BETA  ELECTRONS  =         23
          MOLECULAR WEIGHT        =        123.1542         POINT GROUP:  C1  

          MOLECULAR DIMENSIONS (Angstroms)

            Atom       Atom       Distance
            H    14    H    10     5.96818
            O     5    H    17     4.89031
            O     5    H    15     2.27998


          SCF CALCULATIONS        =          1

          WALL-CLOCK TIME         =      1.047 SECONDS
          COMPUTATION TIME        =      0.625 SECONDS

          LARGEST ATOMIC GRADIENTS

          Atom     Label                     Cartesian Gradients           Cartesian Coordinates       |Gradient|
                                           X          Y          Z        X          Y          Z

             4       C                  -0.054     -0.013     -0.422    1.52459    1.13201    0.17233      0.426
            13       H                   0.025      0.240      0.327   -0.10417    2.49463   -0.22203      0.406
            12       H                   0.287      0.119     -0.176   -2.87230    0.30655    0.33324      0.357
            16       H                   0.055     -0.335      0.102    1.20093   -2.23955    0.93910      0.355
             2       C                  -0.130      0.012      0.308   -0.78675    0.45705   -0.18937      0.334
            15       H                  -0.202      0.041     -0.243    2.10415   -0.11959    1.82253      0.318
             3       C                  -0.261      0.024     -0.106    0.16091    1.43774   -0.08181      0.282
             5       O                  -0.143     -0.212      0.015    2.42520    1.98527    0.00533      0.256
            18       H                   0.141     -0.125      0.167   -1.22237   -1.66250    0.16265      0.252
            10       H                   0.238      0.010      0.048   -2.44474    1.83470   -0.45320      0.243



       FINAL  POINT  AND  DERIVATIVES

   PARAMETER     ATOM    TYPE            VALUE        GRADIENT
      1          1  C    CARTESIAN X    -2.203424      0.029023  KCAL/ANGSTROM
      2          1  C    CARTESIAN Y     0.756046      0.062348  KCAL/ANGSTROM
      3          1  C    CARTESIAN Z    -0.427981     -0.101464  KCAL/ANGSTROM
      4          2  C    CARTESIAN X    -0.786749     -0.129646  KCAL/ANGSTROM
      5          2  C    CARTESIAN Y     0.457055      0.012467  KCAL/ANGSTROM
      6          2  C    CARTESIAN Z    -0.189365      0.308063  KCAL/ANGSTROM
      7          3  C    CARTESIAN X     0.160909     -0.260530  KCAL/ANGSTROM
      8          3  C    CARTESIAN Y     1.437739      0.024079  KCAL/ANGSTROM
      9          3  C    CARTESIAN Z    -0.081809     -0.106252  KCAL/ANGSTROM
     10          4  C    CARTESIAN X     1.524588     -0.054431  KCAL/ANGSTROM
     11          4  C    CARTESIAN Y     1.132008     -0.012637  KCAL/ANGSTROM
     12          4  C    CARTESIAN Z     0.172327     -0.422281  KCAL/ANGSTROM
     13          5  O    CARTESIAN X     2.425200     -0.143043  KCAL/ANGSTROM
     14          5  O    CARTESIAN Y     1.985268     -0.211887  KCAL/ANGSTROM
     15          5  O    CARTESIAN Z     0.005330      0.014565  KCAL/ANGSTROM
     16          6  C    CARTESIAN X     1.987589      0.082670  KCAL/ANGSTROM
     17          6  C    CARTESIAN Y    -0.204620      0.040679  KCAL/ANGSTROM
     18          6  C    CARTESIAN Z     0.708904     -0.046113  KCAL/ANGSTROM
     19          7  C    CARTESIAN X     1.026964     -0.027153  KCAL/ANGSTROM
     20          7  C    CARTESIAN Y    -1.315827     -0.076269  KCAL/ANGSTROM
     21          7  C    CARTESIAN Z     0.356623      0.127905  KCAL/ANGSTROM
     22          8  N    CARTESIAN X     0.648320     -0.044952  KCAL/ANGSTROM
     23          8  N    CARTESIAN Y    -1.369281      0.131373  KCAL/ANGSTROM
     24          8  N    CARTESIAN Z    -1.058781      0.088876  KCAL/ANGSTROM
     25          9  C    CARTESIAN X    -0.399965     -0.078193  KCAL/ANGSTROM
     26          9  C    CARTESIAN Y    -0.970291     -0.052558  KCAL/ANGSTROM
     27          9  C    CARTESIAN Z    -0.085760     -0.161983  KCAL/ANGSTROM
     28         10  H    CARTESIAN X    -2.444743      0.238189  KCAL/ANGSTROM
     29         10  H    CARTESIAN Y     1.834699      0.010070  KCAL/ANGSTROM
     30         10  H    CARTESIAN Z    -0.453202      0.047838  KCAL/ANGSTROM
     31         11  H    CARTESIAN X    -2.549076      0.153933  KCAL/ANGSTROM
     32         11  H    CARTESIAN Y     0.340910     -0.129354  KCAL/ANGSTROM
     33         11  H    CARTESIAN Z    -1.401285     -0.017562  KCAL/ANGSTROM
     34         12  H    CARTESIAN X    -2.872305      0.286729  KCAL/ANGSTROM
     35         12  H    CARTESIAN Y     0.306552      0.118929  KCAL/ANGSTROM
     36         12  H    CARTESIAN Z     0.333241     -0.175615  KCAL/ANGSTROM
     37         13  H    CARTESIAN X    -0.104165      0.025163  KCAL/ANGSTROM
     38         13  H    CARTESIAN Y     2.494628      0.239857  KCAL/ANGSTROM
     39         13  H    CARTESIAN Z    -0.222028      0.326912  KCAL/ANGSTROM
     40         14  H    CARTESIAN X     3.009881     -0.130526  KCAL/ANGSTROM
     41         14  H    CARTESIAN Y    -0.460689      0.129003  KCAL/ANGSTROM
     42         14  H    CARTESIAN Z     0.319716      0.017343  KCAL/ANGSTROM
     43         15  H    CARTESIAN X     2.104147     -0.201562  KCAL/ANGSTROM
     44         15  H    CARTESIAN Y    -0.119590      0.040710  KCAL/ANGSTROM
     45         15  H    CARTESIAN Z     1.822529     -0.243062  KCAL/ANGSTROM
     46         16  H    CARTESIAN X     1.200930      0.054734  KCAL/ANGSTROM
     47         16  H    CARTESIAN Y    -2.239548     -0.334983  KCAL/ANGSTROM
     48         16  H    CARTESIAN Z     0.939098      0.102491  KCAL/ANGSTROM
     49         17  H    CARTESIAN X     0.548116      0.058687  KCAL/ANGSTROM
     50         17  H    CARTESIAN Y    -2.279461      0.133544  KCAL/ANGSTROM
     51         17  H    CARTESIAN Z    -1.503669      0.073224  KCAL/ANGSTROM
     52         18  H    CARTESIAN X    -1.222365      0.140908  KCAL/ANGSTROM
     53         18  H    CARTESIAN Y    -1.662496     -0.125370  KCAL/ANGSTROM
     54         18  H    CARTESIAN Z     0.162654      0.167111  KCAL/ANGSTROM




   ATOM   CHEMICAL          X               Y               Z
  NUMBER   SYMBOL      (ANGSTROMS)     (ANGSTROMS)     (ANGSTROMS)

     1       C         -2.20342445  *   0.75604594  *  -0.42798078  *
     2       C         -0.78674931  *   0.45705486  *  -0.18936529  *
     3       C          0.16090948  *   1.43773937  *  -0.08180932  *
     4       C          1.52458821  *   1.13200762  *   0.17232715  *
     5       O          2.42520016  *   1.98526803  *   0.00532989  *
     6       C          1.98758936  *  -0.20461973  *   0.70890416  *
     7       C          1.02696441  *  -1.31582679  *   0.35662272  *
     8       N          0.64831970  *  -1.36928109  *  -1.05878135  *
     9       C         -0.39996522  *  -0.97029070  *  -0.08575952  *
    10       H         -2.44474277  *   1.83469944  *  -0.45320209  *
    11       H         -2.54907558  *   0.34090985  *  -1.40128478  *
    12       H         -2.87230492  *   0.30655248  *   0.33324120  *
    13       H         -0.10416510  *   2.49462793  *  -0.22202826  *
    14       H          3.00988060  *  -0.46068943  *   0.31971553  *
    15       H          2.10414690  *  -0.11958992  *   1.82252909  *
    16       H          1.20092978  *  -2.23954843  *   0.93909835  *
    17       H          0.54811639  *  -2.27946094  *  -1.50366922  *
    18       H         -1.22236505  *  -1.66249637  *   0.16265396  *

                             CARTESIAN COORDINATES

   1    C       -2.203424454     0.756045944    -0.427980781
   2    C       -0.786749314     0.457054862    -0.189365292
   3    C        0.160909485     1.437739372    -0.081809323
   4    C        1.524588214     1.132007624     0.172327152
   5    O        2.425200163     1.985268032     0.005329886
   6    C        1.987589357    -0.204619726     0.708904155
   7    C        1.026964414    -1.315826790     0.356622722
   8    N        0.648319705    -1.369281087    -1.058781346
   9    C       -0.399965223    -0.970290705    -0.085759519
  10    H       -2.444742766     1.834699443    -0.453202090
  11    H       -2.549075577     0.340909846    -1.401284780
  12    H       -2.872304924     0.306552484     0.333241199
  13    H       -0.104165101     2.494627927    -0.222028255
  14    H        3.009880597    -0.460689433     0.319715526
  15    H        2.104146903    -0.119589917     1.822529090
  16    H        1.200929784    -2.239548432     0.939098348
  17    H        0.548116395    -2.279460944    -1.503669224
  18    H       -1.222365048    -1.662496373     0.162653961


           Empirical Formula: C7 H9 N O  =    18 atoms



      MOLECULAR POINT GROUP   :   C1  


          ALPHA EIGENVALUES  
 -41.35769 -39.75070 -34.47769 -32.52802 -29.95889 -28.27551 -26.56892 -25.63919
 -23.30513 -22.46278 -21.93006 -21.40846 -20.87889 -19.69412 -19.23263 -19.05518
 -18.94808 -18.44917 -17.63573 -17.31914 -17.13616 -16.47142 -15.30360 -14.77359
  -6.11037  -4.01577  -2.67671  -2.56263  -2.35507  -1.80964  -1.68513  -1.39123
  -1.17000  -0.72012  -0.37122  -0.02549   0.04511   0.62009   0.78892   0.90610
   1.14608   1.22815   1.31403   2.05571   2.41675


           BETA EIGENVALUES 
 -41.36175 -36.66791 -34.18517 -32.19856 -29.73336 -28.15855 -26.20771 -25.36015
 -23.24909 -21.77286 -21.63562 -21.11714 -20.38553 -19.53698 -19.04708 -18.79573
 -18.30000 -17.98002 -17.47017 -17.15808 -16.53946 -15.14484 -14.73254  -7.84264
  -5.96985  -4.00007  -2.56292  -2.29082  -1.98084  -1.81198  -1.59789  -1.29728
  -1.10537  -0.70206  -0.36770   0.01346   0.07038   0.63294   0.79125   0.90940
   1.14052   1.23186   1.31318   2.05422   2.41525


              NET ATOMIC CHARGES AND DIPOLE CONTRIBUTIONS

  ATOM NO.   TYPE          CHARGE      No. of ELECS.   s-Pop       p-Pop       
    1          C          -0.508941        4.5089     1.05495     3.45399
    2          C           0.354022        3.6460     1.10769     2.53828
    3          C          -0.397665        4.3977     1.07065     3.32701
    4          C           0.347868        3.6521     1.15100     2.50113
    5          O           0.131401        5.8686     1.91521     3.95339
    6          C          -0.289666        4.2897     1.07519     3.21448
    7          C          -0.029981        4.0300     1.06803     2.96196
    8          N          -0.434447        5.4344     1.72288     3.71157
    9          C          -0.164844        4.1648     1.07530     3.08955
   10          H           0.200765        0.7992     0.79923
   11          H           0.218958        0.7810     0.78104
   12          H           0.210266        0.7897     0.78973
   13          H           0.223476        0.7765     0.77652
   14          H           0.223792        0.7762     0.77621
   15          H           0.219123        0.7809     0.78088
   16          H           0.196458        0.8035     0.80354
   17          H           0.300383        0.6996     0.69962
   18          H           0.199032        0.8010     0.80097
 DIPOLE           X         Y         Z       TOTAL
 POINT-CHG.    -0.365    -0.096     2.096     2.130
 HYBRID         0.223    -0.464    -0.112     0.527
 SUM           -0.142    -0.560     1.984     2.066


          ATOMIC ORBITAL ELECTRON POPULATIONS

     Atom    s        px        py        pz   
    1  C   1.05495   1.01323   1.23045   1.21031
    2  C   1.10769   0.96548   0.93657   0.63623
    3  C   1.07065   0.93192   1.13324   1.26185
    4  C   1.15100   0.92646   0.88418   0.69049
    5  O   1.91521   1.19573   1.21426   1.54339
    6  C   1.07519   1.13337   0.92304   1.15807
    7  C   1.06803   0.94842   1.06261   0.95092
    8  N   1.72288   1.15422   1.44587   1.11147
    9  C   1.07530   0.98244   1.04158   1.06553
   10  H   0.79923
   11  H   0.78104
   12  H   0.78973
   13  H   0.77652
   14  H   0.77621
   15  H   0.78088
   16  H   0.80354
   17  H   0.69962
   18  H   0.80097


                    (SZ)    =    0.500000
                    (S**2)  =    0.772177


          ATOMIC ORBITAL SPIN POPULATIONS

    Atom   Total    s     px     py     pz   
         Atomic
    1  C  0.0052  0.001  0.005  0.000 -0.001
    2  C -0.0502 -0.002 -0.003 -0.003 -0.043
    3  C  0.0874  0.011  0.058  0.006  0.013
    4  C -0.1073 -0.016 -0.021 -0.028 -0.041
    5  O  0.9639  0.017  0.378  0.397  0.172
    6  C  0.1124  0.010  0.009  0.074  0.019
    7  C -0.0034 -0.001 -0.003  0.002 -0.001
    8  N -0.0042 -0.000 -0.003  0.000 -0.001
    9  C  0.0065  0.001  0.001  0.002  0.003
   10  H -0.0002 -0.000
   11  H -0.0020 -0.002
   12  H -0.0020 -0.002
   13  H -0.0017 -0.002
   14  H -0.0044 -0.004
   15  H -0.0038 -0.004
   16  H  0.0042  0.004
   17  H -0.0000 -0.000
   18  H -0.0004 -0.000

 **********************
 *                    *
 * JOB ENDED NORMALLY *
 *                    *
 **********************



 TOTAL JOB TIME:             1.47 SECONDS

 == MOPAC DONE ==
