 *******************************************************************************
 **                                                                           **
 **                              MOPAC v23.2                                  **
 **                                                                           **
 *******************************************************************************
 **          Digital Object Identifier (DOI): 10.5281/zenodo.6511958          **
 **    Visit the DOI location for information on how to cite this program.    **
 *******************************************************************************

                              PM7 CALCULATION RESULTS

 *******************************************************************************
 *  CALCULATION DONE: (MAX THREADS = 40)             Fri Sep 19 21:57:49 2025  *
 *  PM7        - The PM7 Hamiltonian to be used
 *
 *
 *
 *                 CHARGE ON SYSTEM = +1
 *
 *
 *
 *  1SCF       - DO 1 SCF AND THEN STOP 
 *  T=         - A TIME OF 172800.0 SECONDS REQUESTED
 *  DUMP=N     - RESTART FILE WRITTEN EVERY 7200.0 SECONDS REQUESTED
 *  RELSCF     - DEFAULT SCF CRITERION MULTIPLIED BY 0.0001
 *              (DEFAULT SCF CRITERION = 0.00010)
 *  GRADIENTS  - ALL GRADIENTS TO BE PRINTED
 *  DISP       - PRINT DISPERSION AND HYDROGEN BOND ENERGIES
 *******************************************************************************
PM7 1SCF GRADIENTS DISP RELSCF=0.0001 CHARGE=1
 Title: ASE calculation

   ATOM   CHEMICAL          X               Y               Z
  NUMBER   SYMBOL      (ANGSTROMS)     (ANGSTROMS)     (ANGSTROMS)

     1       O         -2.41962615  *  -0.08904883  *   1.00836184  *
     2       C         -1.61747182  *  -1.25807501  *   0.85885503  *
     3       C         -0.36143418  *  -0.76464047  *   0.29362488  *
     4       C          0.70101316  *   0.09547266  *   0.92026942  *
     5       C          0.35203596  *   1.45343245  *   0.24081966  *
     6       C         -0.07735270  *   1.04242334  *  -1.18599204  *
     7       C         -0.00007331  *  -0.58293199  *  -1.16230826  *
     8       C          1.45215185  *  -0.74467663  *  -1.15675750  *
     9       C          1.97305423  *  -0.44852029  *   0.17780276  *
    10       H         -3.22009143  *  -0.29702150  *   1.54457792  *
    11       H         -2.15224840  *  -1.96579415  *   0.18970734  *
    12       H         -1.47065040  *  -1.74002238  *   1.85078307  *
    13       H          0.77696557  *   0.12557598  *   2.01385953  *
    14       H         -0.48479707  *   1.94660204  *   0.78273145  *
    15       H          1.18775264  *   2.16778389  *   0.25867361  *
    16       H         -1.13845829  *   1.29853090  *  -1.38730676  *
    17       H          0.51963339  *   1.48724483  *  -1.99074693  *
    18       H         -0.61946958  *  -1.05592666  *  -1.93662457  *
    19       H          2.06314251  *  -0.99125062  *  -2.02694389  *
    20       H          2.84631050  *   0.24363445  *   0.21223245  *
    21       H          2.37890641  *  -1.35667668  *   0.70272149  *



          CARTESIAN COORDINATES 

    NO.       ATOM           X           Y           Z

     1         O         -2.4196     -0.0890      1.0084
     2         C         -1.6175     -1.2581      0.8589
     3         C         -0.3614     -0.7646      0.2936
     4         C          0.7010      0.0955      0.9203
     5         C          0.3520      1.4534      0.2408
     6         C         -0.0774      1.0424     -1.1860
     7         C         -0.0001     -0.5829     -1.1623
     8         C          1.4522     -0.7447     -1.1568
     9         C          1.9731     -0.4485      0.1778
    10         H         -3.2201     -0.2970      1.5446
    11         H         -2.1522     -1.9658      0.1897
    12         H         -1.4707     -1.7400      1.8508
    13         H          0.7770      0.1256      2.0139
    14         H         -0.4848      1.9466      0.7827
    15         H          1.1878      2.1678      0.2587
    16         H         -1.1385      1.2985     -1.3873
    17         H          0.5196      1.4872     -1.9907
    18         H         -0.6195     -1.0559     -1.9366
    19         H          2.0631     -0.9913     -2.0269
    20         H          2.8463      0.2436      0.2122
    21         H          2.3789     -1.3567      0.7027

 General Reference for PM7:
 "Optimization of Parameters for Semiempirical Methods VI: More Modifications to the 
 NDDO Approximations and Re-optimization of Parameters", J. J. P. Stewart, J. Mol. Mod., 1:32, 19 (2013)
 https://link.springer.com/article/10.1007/s00894-012-1667-x

           Empirical Formula: C8 H12 O  =    21 atoms



      MOLECULAR POINT GROUP   :   C1  


          UHF CALCULATION, NO. OF ALPHA ELECTRONS =   25
                           NO. OF BETA  ELECTRONS =   24
  SCF CRITERION =    0.1000E-07

 -------------------------------------------------------------------------------
 PM7 1SCF GRADIENTS DISP RELSCF=0.0001 CHARGE=1
 Title: ASE calculation



     1SCF WAS SPECIFIED, SO BFGS WAS NOT USED                 
     SCF FIELD WAS ACHIEVED                                   


                              PM7 CALCULATION
                                                       MOPAC v23.2 Linux
                                                       Fri Sep 19 21:57:50 2025




          FINAL HEAT OF FORMATION =        189.93979 KCAL/MOL =     794.70806 KJ/MOL

          TOTAL ENERGY            =     -32975.49902 KCAL/MOL = ELECTRONIC ENERGY + CORE-CORE REPULSION
          ENERGY OF ATOMS         =      33167.45855 KCAL/MOL
                              SUM =        191.95953 KCAL/MOL
          DISPERSION ENERGY       =         -2.01975 KCAL/MOL
                              SUM =        189.93979 KCAL/MOL = FINAL HEAT OF FORMATION



          TOTAL ENERGY            =      -1429.95298 EV
          ELECTRONIC ENERGY       =      -7532.06505 EV 
          CORE-CORE REPULSION     =       6102.11208 EV
          COSMO AREA              =        161.87 SQUARE ANGSTROMS
          COSMO VOLUME            =        164.50 CUBIC ANGSTROMS

          GRADIENT NORM           =          1.27983          =       0.27928 PER ATOM
          IONIZATION POTENTIAL    =         13.600655 EV
          ALPHA SOMO LUMO (EV)    =        -13.601 -6.814
          BETA  SOMO LUMO (EV)    =        -14.128 -6.775
          NO. OF ALPHA ELECTRONS  =         25
          NO. OF BETA  ELECTRONS  =         24
          MOLECULAR WEIGHT        =        124.1822         POINT GROUP:  C1  

          MOLECULAR DIMENSIONS (Angstroms)

            Atom       Atom       Distance
            H    19    H    10     6.41485
            H    15    H    11     4.80794
            H    16    H    21     4.37354


          SCF CALCULATIONS        =          1

          WALL-CLOCK TIME         =      1.039 SECONDS
          COMPUTATION TIME        =      0.794 SECONDS

          LARGEST ATOMIC GRADIENTS

          Atom     Label                     Cartesian Gradients           Cartesian Coordinates       |Gradient|
                                           X          Y          Z        X          Y          Z

            19       H                  -0.277      0.038      0.340    2.06314   -0.99125   -2.02694      0.440
             6       C                   0.215     -0.364     -0.057   -0.07735    1.04242   -1.18599      0.427
            16       H                   0.398      0.000      0.038   -1.13846    1.29853   -1.38731      0.400
             7       C                  -0.099      0.322     -0.146   -0.00007   -0.58293   -1.16231      0.367
            10       H                  -0.155     -0.172      0.263   -3.22009   -0.29702    1.54458      0.350
            17       H                  -0.141     -0.089     -0.297    0.51963    1.48724   -1.99075      0.340
             3       C                   0.271     -0.062     -0.194   -0.36143   -0.76464    0.29362      0.339
            14       H                  -0.319      0.089      0.018   -0.48480    1.94660    0.78273      0.331
             8       C                   0.090      0.075     -0.287    1.45215   -0.74468   -1.15676      0.310
             5       C                  -0.106     -0.053      0.271    0.35204    1.45343    0.24082      0.296



       FINAL  POINT  AND  DERIVATIVES

   PARAMETER     ATOM    TYPE            VALUE        GRADIENT
      1          1  O    CARTESIAN X    -2.419626     -0.168169  KCAL/ANGSTROM
      2          1  O    CARTESIAN Y    -0.089049     -0.003464  KCAL/ANGSTROM
      3          1  O    CARTESIAN Z     1.008362     -0.146003  KCAL/ANGSTROM
      4          2  C    CARTESIAN X    -1.617472      0.164813  KCAL/ANGSTROM
      5          2  C    CARTESIAN Y    -1.258075     -0.004381  KCAL/ANGSTROM
      6          2  C    CARTESIAN Z     0.858855     -0.017619  KCAL/ANGSTROM
      7          3  C    CARTESIAN X    -0.361434      0.271120  KCAL/ANGSTROM
      8          3  C    CARTESIAN Y    -0.764640     -0.061781  KCAL/ANGSTROM
      9          3  C    CARTESIAN Z     0.293625     -0.193990  KCAL/ANGSTROM
     10          4  C    CARTESIAN X     0.701013      0.194839  KCAL/ANGSTROM
     11          4  C    CARTESIAN Y     0.095473     -0.021541  KCAL/ANGSTROM
     12          4  C    CARTESIAN Z     0.920269      0.017170  KCAL/ANGSTROM
     13          5  C    CARTESIAN X     0.352036     -0.105661  KCAL/ANGSTROM
     14          5  C    CARTESIAN Y     1.453432     -0.052797  KCAL/ANGSTROM
     15          5  C    CARTESIAN Z     0.240820      0.271019  KCAL/ANGSTROM
     16          6  C    CARTESIAN X    -0.077353      0.215387  KCAL/ANGSTROM
     17          6  C    CARTESIAN Y     1.042423     -0.364480  KCAL/ANGSTROM
     18          6  C    CARTESIAN Z    -1.185992     -0.057133  KCAL/ANGSTROM
     19          7  C    CARTESIAN X    -0.000073     -0.099261  KCAL/ANGSTROM
     20          7  C    CARTESIAN Y    -0.582932      0.321612  KCAL/ANGSTROM
     21          7  C    CARTESIAN Z    -1.162308     -0.145635  KCAL/ANGSTROM
     22          8  C    CARTESIAN X     1.452152      0.089833  KCAL/ANGSTROM
     23          8  C    CARTESIAN Y    -0.744677      0.075480  KCAL/ANGSTROM
     24          8  C    CARTESIAN Z    -1.156757     -0.286933  KCAL/ANGSTROM
     25          9  C    CARTESIAN X     1.973054      0.076892  KCAL/ANGSTROM
     26          9  C    CARTESIAN Y    -0.448520      0.086295  KCAL/ANGSTROM
     27          9  C    CARTESIAN Z     0.177803     -0.016671  KCAL/ANGSTROM
     28         10  H    CARTESIAN X    -3.220091     -0.155230  KCAL/ANGSTROM
     29         10  H    CARTESIAN Y    -0.297022     -0.171940  KCAL/ANGSTROM
     30         10  H    CARTESIAN Z     1.544578      0.262710  KCAL/ANGSTROM
     31         11  H    CARTESIAN X    -2.152248     -0.055274  KCAL/ANGSTROM
     32         11  H    CARTESIAN Y    -1.965794      0.102822  KCAL/ANGSTROM
     33         11  H    CARTESIAN Z     0.189707     -0.031948  KCAL/ANGSTROM
     34         12  H    CARTESIAN X    -1.470650     -0.134489  KCAL/ANGSTROM
     35         12  H    CARTESIAN Y    -1.740022      0.026642  KCAL/ANGSTROM
     36         12  H    CARTESIAN Z     1.850783      0.153543  KCAL/ANGSTROM
     37         13  H    CARTESIAN X     0.776966      0.053848  KCAL/ANGSTROM
     38         13  H    CARTESIAN Y     0.125576      0.095310  KCAL/ANGSTROM
     39         13  H    CARTESIAN Z     2.013860     -0.035540  KCAL/ANGSTROM
     40         14  H    CARTESIAN X    -0.484797     -0.318516  KCAL/ANGSTROM
     41         14  H    CARTESIAN Y     1.946602      0.088644  KCAL/ANGSTROM
     42         14  H    CARTESIAN Z     0.782731      0.018056  KCAL/ANGSTROM
     43         15  H    CARTESIAN X     1.187753      0.190440  KCAL/ANGSTROM
     44         15  H    CARTESIAN Y     2.167784     -0.138366  KCAL/ANGSTROM
     45         15  H    CARTESIAN Z     0.258674      0.063318  KCAL/ANGSTROM
     46         16  H    CARTESIAN X    -1.138458      0.398131  KCAL/ANGSTROM
     47         16  H    CARTESIAN Y     1.298531      0.000398  KCAL/ANGSTROM
     48         16  H    CARTESIAN Z    -1.387307      0.038130  KCAL/ANGSTROM
     49         17  H    CARTESIAN X     0.519633     -0.140566  KCAL/ANGSTROM
     50         17  H    CARTESIAN Y     1.487245     -0.089087  KCAL/ANGSTROM
     51         17  H    CARTESIAN Z    -1.990747     -0.296877  KCAL/ANGSTROM
     52         18  H    CARTESIAN X    -0.619470      0.018297  KCAL/ANGSTROM
     53         18  H    CARTESIAN Y    -1.055927      0.092274  KCAL/ANGSTROM
     54         18  H    CARTESIAN Z    -1.936625      0.045712  KCAL/ANGSTROM
     55         19  H    CARTESIAN X     2.063143     -0.276962  KCAL/ANGSTROM
     56         19  H    CARTESIAN Y    -0.991251      0.038148  KCAL/ANGSTROM
     57         19  H    CARTESIAN Z    -2.026944      0.340302  KCAL/ANGSTROM
     58         20  H    CARTESIAN X     2.846310     -0.196794  KCAL/ANGSTROM
     59         20  H    CARTESIAN Y     0.243634      0.049360  KCAL/ANGSTROM
     60         20  H    CARTESIAN Z     0.212232     -0.033916  KCAL/ANGSTROM
     61         21  H    CARTESIAN X     2.378906     -0.022682  KCAL/ANGSTROM
     62         21  H    CARTESIAN Y    -1.356677     -0.069151  KCAL/ANGSTROM
     63         21  H    CARTESIAN Z     0.702721      0.052300  KCAL/ANGSTROM




   ATOM   CHEMICAL          X               Y               Z
  NUMBER   SYMBOL      (ANGSTROMS)     (ANGSTROMS)     (ANGSTROMS)

     1       O         -2.41962615  *  -0.08904883  *   1.00836184  *
     2       C         -1.61747182  *  -1.25807501  *   0.85885503  *
     3       C         -0.36143418  *  -0.76464047  *   0.29362488  *
     4       C          0.70101316  *   0.09547266  *   0.92026942  *
     5       C          0.35203596  *   1.45343245  *   0.24081966  *
     6       C         -0.07735270  *   1.04242334  *  -1.18599204  *
     7       C         -0.00007331  *  -0.58293199  *  -1.16230826  *
     8       C          1.45215185  *  -0.74467663  *  -1.15675750  *
     9       C          1.97305423  *  -0.44852029  *   0.17780276  *
    10       H         -3.22009143  *  -0.29702150  *   1.54457792  *
    11       H         -2.15224840  *  -1.96579415  *   0.18970734  *
    12       H         -1.47065040  *  -1.74002238  *   1.85078307  *
    13       H          0.77696557  *   0.12557598  *   2.01385953  *
    14       H         -0.48479707  *   1.94660204  *   0.78273145  *
    15       H          1.18775264  *   2.16778389  *   0.25867361  *
    16       H         -1.13845829  *   1.29853090  *  -1.38730676  *
    17       H          0.51963339  *   1.48724483  *  -1.99074693  *
    18       H         -0.61946958  *  -1.05592666  *  -1.93662457  *
    19       H          2.06314251  *  -0.99125062  *  -2.02694389  *
    20       H          2.84631050  *   0.24363445  *   0.21223245  *
    21       H          2.37890641  *  -1.35667668  *   0.70272149  *

                             CARTESIAN COORDINATES

   1    O       -2.419626146    -0.089048829     1.008361845
   2    C       -1.617471823    -1.258075013     0.858855030
   3    C       -0.361434184    -0.764640472     0.293624881
   4    C        0.701013156     0.095472664     0.920269418
   5    C        0.352035959     1.453432446     0.240819658
   6    C       -0.077352705     1.042423343    -1.185992044
   7    C       -0.000073313    -0.582931989    -1.162308261
   8    C        1.452151850    -0.744676628    -1.156757496
   9    C        1.973054232    -0.448520288     0.177802757
  10    H       -3.220091435    -0.297021502     1.544577915
  11    H       -2.152248400    -1.965794151     0.189707336
  12    H       -1.470650403    -1.740022385     1.850783068
  13    H        0.776965568     0.125575981     2.013859532
  14    H       -0.484797070     1.946602038     0.782731452
  15    H        1.187752639     2.167783890     0.258673614
  16    H       -1.138458292     1.298530900    -1.387306757
  17    H        0.519633388     1.487244833    -1.990746925
  18    H       -0.619469579    -1.055926664    -1.936624568
  19    H        2.063142511    -0.991250616    -2.026943886
  20    H        2.846310498     0.243634448     0.212232455
  21    H        2.378906410    -1.356676680     0.702721492


           Empirical Formula: C8 H12 O  =    21 atoms



      MOLECULAR POINT GROUP   :   C1  


          ALPHA EIGENVALUES  
 -37.73059 -33.04192 -31.25544 -30.44365 -29.65278 -26.88678 -25.56019 -23.42298
 -23.26321 -22.30564 -21.21171 -20.47342 -20.01170 -19.36468 -19.10060 -18.42081
 -18.01155 -17.59170 -17.23510 -16.92704 -16.63415 -16.20810 -15.94821 -14.20981
 -13.60066  -6.81359  -2.27325  -2.22462  -1.95833  -1.46530  -1.24270  -0.96373
  -0.84332  -0.57673  -0.23453  -0.03743   0.08218   0.32405   0.78140   0.85761
   0.94319   1.57061   1.68190   1.77084   1.77768   2.01590   2.38337   2.58340


           BETA EIGENVALUES 
 -37.65748 -32.82859 -31.19997 -30.41202 -29.44160 -26.82697 -25.53630 -23.36900
 -23.20879 -22.24112 -20.96737 -20.36319 -19.79370 -19.32002 -19.07249 -18.40322
 -17.94738 -17.46557 -17.20076 -16.89525 -16.56355 -16.09797 -15.88907 -14.12789
  -6.77486  -4.38395  -2.20777  -2.07068  -1.90489  -1.43051  -1.06067  -0.88774
  -0.54320  -0.47665  -0.12867  -0.03184   0.22239   0.53793   0.80127   0.86594
   0.95385   1.57551   1.68296   1.78394   1.79229   2.03437   2.38973   2.60439


              NET ATOMIC CHARGES AND DIPOLE CONTRIBUTIONS

  ATOM NO.   TYPE          CHARGE      No. of ELECS.   s-Pop       p-Pop       
    1          O          -0.529847        6.5298     1.85843     4.67141
    2          C          -0.020622        4.0206     1.07416     2.94646
    3          C          -0.030920        4.0309     1.12960     2.90132
    4          C          -0.078580        4.0786     1.08000     2.99858
    5          C          -0.291618        4.2916     1.07399     3.21762
    6          C          -0.204368        4.2044     1.09029     3.11408
    7          C          -0.251643        4.2516     1.09204     3.15961
    8          C           0.385648        3.6144     1.21056     2.40379
    9          C          -0.411865        4.4119     1.08017     3.33169
   10          H           0.335277        0.6647     0.66472
   11          H           0.149846        0.8502     0.85015
   12          H           0.153452        0.8465     0.84655
   13          H           0.186594        0.8134     0.81341
   14          H           0.198426        0.8016     0.80157
   15          H           0.167484        0.8325     0.83252
   16          H           0.204807        0.7952     0.79519
   17          H           0.158942        0.8411     0.84106
   18          H           0.211967        0.7880     0.78803
   19          H           0.182051        0.8179     0.81795
   20          H           0.233230        0.7668     0.76677
   21          H           0.251741        0.7483     0.74826
 DIPOLE           X         Y         Z       TOTAL
 POINT-CHG.     4.709    -2.157    -2.260     5.651
 HYBRID         0.029     0.024    -0.303     0.305
 SUM            4.738    -2.133    -2.563     5.794


          ATOMIC ORBITAL ELECTRON POPULATIONS

     Atom    s        px        py        pz   
    1  O   1.85843   1.47921   1.37883   1.81337
    2  C   1.07416   0.91379   0.91207   1.12060
    3  C   1.12960   1.00471   0.99888   0.89773
    4  C   1.08000   0.91306   0.98426   1.10127
    5  C   1.07399   1.18738   1.03475   0.99549
    6  C   1.09029   1.20185   0.84597   1.06625
    7  C   1.09204   0.99209   1.05021   1.11730
    8  C   1.21056   1.02978   0.37239   1.00162
    9  C   1.08017   1.12978   1.17876   1.02315
   10  H   0.66472
   11  H   0.85015
   12  H   0.84655
   13  H   0.81341
   14  H   0.80157
   15  H   0.83252
   16  H   0.79519
   17  H   0.84106
   18  H   0.78803
   19  H   0.81795
   20  H   0.76677
   21  H   0.74826


                    (SZ)    =    0.500000
                    (S**2)  =    0.754975


          ATOMIC ORBITAL SPIN POPULATIONS

    Atom   Total    s     px     py     pz   
         Atomic
    1  O  0.0542  0.004  0.013  0.035  0.002
    2  C -0.0535 -0.002 -0.026 -0.017 -0.007
    3  C  0.9725  0.037  0.230  0.664  0.042
    4  C -0.0499 -0.005 -0.019 -0.020 -0.005
    5  C  0.0338  0.007  0.001  0.021  0.005
    6  C  0.0348  0.007  0.000  0.027  0.000
    7  C -0.0440 -0.005 -0.007 -0.012 -0.019
    8  C  0.0165  0.005  0.011  0.000  0.001
    9  C  0.0191  0.003  0.009  0.002  0.005
   10  H  0.0026  0.003
   11  H  0.0025  0.003
   12  H  0.0103  0.010
   13  H  0.0017  0.002
   14  H -0.0007 -0.001
   15  H  0.0010  0.001
   16  H -0.0010 -0.001
   17  H  0.0015  0.001
   18  H  0.0012  0.001
   19  H -0.0002 -0.000
   20  H -0.0012 -0.001
   21  H -0.0012 -0.001

 **********************
 *                    *
 * JOB ENDED NORMALLY *
 *                    *
 **********************



 TOTAL JOB TIME:             1.42 SECONDS

 == MOPAC DONE ==
