 *******************************************************************************
 **                                                                           **
 **                              MOPAC v23.2                                  **
 **                                                                           **
 *******************************************************************************
 **          Digital Object Identifier (DOI): 10.5281/zenodo.6511958          **
 **    Visit the DOI location for information on how to cite this program.    **
 *******************************************************************************

                              PM7 CALCULATION RESULTS

 *******************************************************************************
 *  CALCULATION DONE: (MAX THREADS = 40)             Fri Sep 19 21:46:54 2025  *
 *  PM7        - The PM7 Hamiltonian to be used
 *
 *
 *
 *                 CHARGE ON SYSTEM = +1
 *
 *
 *
 *  1SCF       - DO 1 SCF AND THEN STOP 
 *  T=         - A TIME OF 172800.0 SECONDS REQUESTED
 *  DUMP=N     - RESTART FILE WRITTEN EVERY 7200.0 SECONDS REQUESTED
 *  RELSCF     - DEFAULT SCF CRITERION MULTIPLIED BY 0.0001
 *              (DEFAULT SCF CRITERION = 0.00010)
 *  GRADIENTS  - ALL GRADIENTS TO BE PRINTED
 *  DISP       - PRINT DISPERSION AND HYDROGEN BOND ENERGIES
 *******************************************************************************
PM7 1SCF GRADIENTS DISP RELSCF=0.0001 CHARGE=1
 Title: ASE calculation

   ATOM   CHEMICAL          X               Y               Z
  NUMBER   SYMBOL      (ANGSTROMS)     (ANGSTROMS)     (ANGSTROMS)

     1       C          2.01483969  *  -0.53301030  *  -1.88950764  *
     2       O          1.12435645  *   0.35863708  *  -1.16154828  *
     3       C          0.01461346  *  -0.08410733  *  -0.74129770  *
     4       C          0.53759864  *   0.32149403  *   2.14954966  *
     5       C         -0.31807178  *   1.25487678  *   1.41468450  *
     6       C         -0.96080719  *   0.68287715  *   0.16293259  *
     7       C         -1.70590875  *  -0.68153024  *   0.34028024  *
     8       C         -2.19211143  *  -1.19451256  *  -0.96292569  *
     9       C         -0.68502572  *  -1.36282309  *  -0.68876852  *
    10       H          2.72042511  *  -0.95325114  *  -1.15737896  *
    11       H          2.53143163  *   0.16382798  *  -2.57535492  *
    12       H          1.48343712  *  -1.31307379  *  -2.44356140  *
    13       H          0.51148239  *  -0.73150703  *   2.00186649  *
    14       H          1.18980643  *   0.67867613  *   2.92221777  *
    15       H         -1.12724348  *   1.62477543  *   2.10597386  *
    16       H          0.24481630  *   2.18981532  *   1.16290418  *
    17       H         -1.56474524  *   1.45659821  *  -0.36299650  *
    18       H         -2.00019375  *  -1.03575133  *   1.31717187  *
    19       H         -2.79696907  *  -2.11379336  *  -0.98430895  *
    20       H         -2.53282485  *  -0.53337220  *  -1.76375843  *
    21       H         -0.21516790  *  -2.33379689  *  -0.71029675  *



          CARTESIAN COORDINATES 

    NO.       ATOM           X           Y           Z

     1         C          2.0148     -0.5330     -1.8895
     2         O          1.1244      0.3586     -1.1615
     3         C          0.0146     -0.0841     -0.7413
     4         C          0.5376      0.3215      2.1495
     5         C         -0.3181      1.2549      1.4147
     6         C         -0.9608      0.6829      0.1629
     7         C         -1.7059     -0.6815      0.3403
     8         C         -2.1921     -1.1945     -0.9629
     9         C         -0.6850     -1.3628     -0.6888
    10         H          2.7204     -0.9533     -1.1574
    11         H          2.5314      0.1638     -2.5754
    12         H          1.4834     -1.3131     -2.4436
    13         H          0.5115     -0.7315      2.0019
    14         H          1.1898      0.6787      2.9222
    15         H         -1.1272      1.6248      2.1060
    16         H          0.2448      2.1898      1.1629
    17         H         -1.5647      1.4566     -0.3630
    18         H         -2.0002     -1.0358      1.3172
    19         H         -2.7970     -2.1138     -0.9843
    20         H         -2.5328     -0.5334     -1.7638
    21         H         -0.2152     -2.3338     -0.7103

 General Reference for PM7:
 "Optimization of Parameters for Semiempirical Methods VI: More Modifications to the 
 NDDO Approximations and Re-optimization of Parameters", J. J. P. Stewart, J. Mol. Mod., 1:32, 19 (2013)
 https://link.springer.com/article/10.1007/s00894-012-1667-x

           Empirical Formula: C8 H12 O  =    21 atoms



      MOLECULAR POINT GROUP   :   C1  


          UHF CALCULATION, NO. OF ALPHA ELECTRONS =   25
                           NO. OF BETA  ELECTRONS =   24
  SCF CRITERION =    0.1000E-07

 -------------------------------------------------------------------------------
 PM7 1SCF GRADIENTS DISP RELSCF=0.0001 CHARGE=1
 Title: ASE calculation



     1SCF WAS SPECIFIED, SO BFGS WAS NOT USED                 
     SCF FIELD WAS ACHIEVED                                   


                              PM7 CALCULATION
                                                       MOPAC v23.2 Linux
                                                       Fri Sep 19 21:46:55 2025




          FINAL HEAT OF FORMATION =        210.17512 KCAL/MOL =     879.37271 KJ/MOL

          TOTAL ENERGY            =     -32955.01950 KCAL/MOL = ELECTRONIC ENERGY + CORE-CORE REPULSION
          ENERGY OF ATOMS         =      33167.45855 KCAL/MOL
                              SUM =        212.43905 KCAL/MOL
          DISPERSION ENERGY       =         -2.26393 KCAL/MOL
                              SUM =        210.17512 KCAL/MOL = FINAL HEAT OF FORMATION



          TOTAL ENERGY            =      -1429.06490 EV
          ELECTRONIC ENERGY       =      -7363.23599 EV 
          CORE-CORE REPULSION     =       5934.17109 EV
          COSMO AREA              =        171.51 SQUARE ANGSTROMS
          COSMO VOLUME            =        173.51 CUBIC ANGSTROMS

          GRADIENT NORM           =          1.21835          =       0.26587 PER ATOM
          IONIZATION POTENTIAL    =         13.077339 EV
          ALPHA SOMO LUMO (EV)    =        -13.077 -5.741
          BETA  SOMO LUMO (EV)    =        -15.742 -5.742
          NO. OF ALPHA ELECTRONS  =         25
          NO. OF BETA  ELECTRONS  =         24
          MOLECULAR WEIGHT        =        124.1822         POINT GROUP:  C1  

          MOLECULAR DIMENSIONS (Angstroms)

            Atom       Atom       Distance
            H    19    H    14     6.24125
            H    11    H    18     6.01135
            H    17    H    21     3.84299


          SCF CALCULATIONS        =          1

          WALL-CLOCK TIME         =      1.422 SECONDS
          COMPUTATION TIME        =      0.851 SECONDS

          LARGEST ATOMIC GRADIENTS

          Atom     Label                     Cartesian Gradients           Cartesian Coordinates       |Gradient|
                                           X          Y          Z        X          Y          Z

             8       C                  -0.297      0.062     -0.269   -2.19211   -1.19451   -0.96293      0.405
            14       H                   0.243     -0.281      0.140    1.18981    0.67868    2.92222      0.397
            19       H                   0.165      0.220      0.259   -2.79697   -2.11379   -0.98431      0.377
            21       H                   0.216      0.290     -0.075   -0.21517   -2.33380   -0.71030      0.369
            15       H                   0.209      0.020     -0.237   -1.12724    1.62478    2.10597      0.317
            10       H                   0.245      0.020     -0.185    2.72043   -0.95325   -1.15738      0.308
             6       C                  -0.068      0.293      0.028   -0.96081    0.68288    0.16293      0.302
             7       C                  -0.236     -0.177      0.029   -1.70591   -0.68153    0.34028      0.297
            17       H                  -0.136      0.126     -0.216   -1.56475    1.45660   -0.36300      0.285
            18       H                  -0.073     -0.194      0.191   -2.00019   -1.03575    1.31717      0.282



       FINAL  POINT  AND  DERIVATIVES

   PARAMETER     ATOM    TYPE            VALUE        GRADIENT
      1          1  C    CARTESIAN X     2.014840      0.134995  KCAL/ANGSTROM
      2          1  C    CARTESIAN Y    -0.533010     -0.008305  KCAL/ANGSTROM
      3          1  C    CARTESIAN Z    -1.889508     -0.175565  KCAL/ANGSTROM
      4          2  O    CARTESIAN X     1.124356      0.043604  KCAL/ANGSTROM
      5          2  O    CARTESIAN Y     0.358637      0.051052  KCAL/ANGSTROM
      6          2  O    CARTESIAN Z    -1.161548      0.056125  KCAL/ANGSTROM
      7          3  C    CARTESIAN X     0.014613     -0.130184  KCAL/ANGSTROM
      8          3  C    CARTESIAN Y    -0.084107      0.028251  KCAL/ANGSTROM
      9          3  C    CARTESIAN Z    -0.741298      0.012497  KCAL/ANGSTROM
     10          4  C    CARTESIAN X     0.537599     -0.156219  KCAL/ANGSTROM
     11          4  C    CARTESIAN Y     0.321494     -0.026127  KCAL/ANGSTROM
     12          4  C    CARTESIAN Z     2.149550     -0.042805  KCAL/ANGSTROM
     13          5  C    CARTESIAN X    -0.318072     -0.089965  KCAL/ANGSTROM
     14          5  C    CARTESIAN Y     1.254877      0.044529  KCAL/ANGSTROM
     15          5  C    CARTESIAN Z     1.414685      0.117267  KCAL/ANGSTROM
     16          6  C    CARTESIAN X    -0.960807     -0.067847  KCAL/ANGSTROM
     17          6  C    CARTESIAN Y     0.682877      0.292674  KCAL/ANGSTROM
     18          6  C    CARTESIAN Z     0.162933      0.027639  KCAL/ANGSTROM
     19          7  C    CARTESIAN X    -1.705909     -0.236250  KCAL/ANGSTROM
     20          7  C    CARTESIAN Y    -0.681530     -0.177416  KCAL/ANGSTROM
     21          7  C    CARTESIAN Z     0.340280      0.029384  KCAL/ANGSTROM
     22          8  C    CARTESIAN X    -2.192111     -0.296613  KCAL/ANGSTROM
     23          8  C    CARTESIAN Y    -1.194513      0.062282  KCAL/ANGSTROM
     24          8  C    CARTESIAN Z    -0.962926     -0.268903  KCAL/ANGSTROM
     25          9  C    CARTESIAN X    -0.685026     -0.116738  KCAL/ANGSTROM
     26          9  C    CARTESIAN Y    -1.362823     -0.037488  KCAL/ANGSTROM
     27          9  C    CARTESIAN Z    -0.688769      0.195060  KCAL/ANGSTROM
     28         10  H    CARTESIAN X     2.720425      0.245454  KCAL/ANGSTROM
     29         10  H    CARTESIAN Y    -0.953251      0.020100  KCAL/ANGSTROM
     30         10  H    CARTESIAN Z    -1.157379     -0.185360  KCAL/ANGSTROM
     31         11  H    CARTESIAN X     2.531432      0.074989  KCAL/ANGSTROM
     32         11  H    CARTESIAN Y     0.163828     -0.057209  KCAL/ANGSTROM
     33         11  H    CARTESIAN Z    -2.575355      0.061849  KCAL/ANGSTROM
     34         12  H    CARTESIAN X     1.483437      0.059260  KCAL/ANGSTROM
     35         12  H    CARTESIAN Y    -1.313074     -0.245814  KCAL/ANGSTROM
     36         12  H    CARTESIAN Z    -2.443561      0.005985  KCAL/ANGSTROM
     37         13  H    CARTESIAN X     0.511482      0.039526  KCAL/ANGSTROM
     38         13  H    CARTESIAN Y    -0.731507      0.049521  KCAL/ANGSTROM
     39         13  H    CARTESIAN Z     2.001866     -0.011931  KCAL/ANGSTROM
     40         14  H    CARTESIAN X     1.189806      0.242582  KCAL/ANGSTROM
     41         14  H    CARTESIAN Y     0.678676     -0.281211  KCAL/ANGSTROM
     42         14  H    CARTESIAN Z     2.922218      0.140236  KCAL/ANGSTROM
     43         15  H    CARTESIAN X    -1.127243      0.209096  KCAL/ANGSTROM
     44         15  H    CARTESIAN Y     1.624775      0.020174  KCAL/ANGSTROM
     45         15  H    CARTESIAN Z     2.105974     -0.237324  KCAL/ANGSTROM
     46         16  H    CARTESIAN X     0.244816     -0.192873  KCAL/ANGSTROM
     47         16  H    CARTESIAN Y     2.189815      0.005540  KCAL/ANGSTROM
     48         16  H    CARTESIAN Z     1.162904      0.121220  KCAL/ANGSTROM
     49         17  H    CARTESIAN X    -1.564745     -0.136376  KCAL/ANGSTROM
     50         17  H    CARTESIAN Y     1.456598      0.125569  KCAL/ANGSTROM
     51         17  H    CARTESIAN Z    -0.362996     -0.216196  KCAL/ANGSTROM
     52         18  H    CARTESIAN X    -2.000194     -0.073174  KCAL/ANGSTROM
     53         18  H    CARTESIAN Y    -1.035751     -0.193625  KCAL/ANGSTROM
     54         18  H    CARTESIAN Z     1.317172      0.191157  KCAL/ANGSTROM
     55         19  H    CARTESIAN X    -2.796969      0.164848  KCAL/ANGSTROM
     56         19  H    CARTESIAN Y    -2.113793      0.219883  KCAL/ANGSTROM
     57         19  H    CARTESIAN Z    -0.984309      0.258590  KCAL/ANGSTROM
     58         20  H    CARTESIAN X    -2.532825      0.065534  KCAL/ANGSTROM
     59         20  H    CARTESIAN Y    -0.533372     -0.182126  KCAL/ANGSTROM
     60         20  H    CARTESIAN Z    -1.763758     -0.004223  KCAL/ANGSTROM
     61         21  H    CARTESIAN X    -0.215168      0.216352  KCAL/ANGSTROM
     62         21  H    CARTESIAN Y    -2.333797      0.289744  KCAL/ANGSTROM
     63         21  H    CARTESIAN Z    -0.710297     -0.074698  KCAL/ANGSTROM




   ATOM   CHEMICAL          X               Y               Z
  NUMBER   SYMBOL      (ANGSTROMS)     (ANGSTROMS)     (ANGSTROMS)

     1       C          2.01483969  *  -0.53301030  *  -1.88950764  *
     2       O          1.12435645  *   0.35863708  *  -1.16154828  *
     3       C          0.01461346  *  -0.08410733  *  -0.74129770  *
     4       C          0.53759864  *   0.32149403  *   2.14954966  *
     5       C         -0.31807178  *   1.25487678  *   1.41468450  *
     6       C         -0.96080719  *   0.68287715  *   0.16293259  *
     7       C         -1.70590875  *  -0.68153024  *   0.34028024  *
     8       C         -2.19211143  *  -1.19451256  *  -0.96292569  *
     9       C         -0.68502572  *  -1.36282309  *  -0.68876852  *
    10       H          2.72042511  *  -0.95325114  *  -1.15737896  *
    11       H          2.53143163  *   0.16382798  *  -2.57535492  *
    12       H          1.48343712  *  -1.31307379  *  -2.44356140  *
    13       H          0.51148239  *  -0.73150703  *   2.00186649  *
    14       H          1.18980643  *   0.67867613  *   2.92221777  *
    15       H         -1.12724348  *   1.62477543  *   2.10597386  *
    16       H          0.24481630  *   2.18981532  *   1.16290418  *
    17       H         -1.56474524  *   1.45659821  *  -0.36299650  *
    18       H         -2.00019375  *  -1.03575133  *   1.31717187  *
    19       H         -2.79696907  *  -2.11379336  *  -0.98430895  *
    20       H         -2.53282485  *  -0.53337220  *  -1.76375843  *
    21       H         -0.21516790  *  -2.33379689  *  -0.71029675  *

                             CARTESIAN COORDINATES

   1    C        2.014839686    -0.533010304    -1.889507642
   2    O        1.124356454     0.358637078    -1.161548279
   3    C        0.014613462    -0.084107331    -0.741297697
   4    C        0.537598638     0.321494034     2.149549658
   5    C       -0.318071779     1.254876780     1.414684502
   6    C       -0.960807187     0.682877153     0.162932593
   7    C       -1.705908751    -0.681530242     0.340280245
   8    C       -2.192111429    -1.194512563    -0.962925688
   9    C       -0.685025724    -1.362823093    -0.688768521
  10    H        2.720425113    -0.953251141    -1.157378963
  11    H        2.531431633     0.163827981    -2.575354918
  12    H        1.483437118    -1.313073794    -2.443561403
  13    H        0.511482386    -0.731507028     2.001866486
  14    H        1.189806434     0.678676130     2.922217773
  15    H       -1.127243484     1.624775431     2.105973862
  16    H        0.244816295     2.189815317     1.162904177
  17    H       -1.564745244     1.456598212    -0.362996498
  18    H       -2.000193746    -1.035751334     1.317171866
  19    H       -2.796969069    -2.113793361    -0.984308953
  20    H       -2.532824850    -0.533372195    -1.763758429
  21    H       -0.215167904    -2.333796891    -0.710296750


           Empirical Formula: C8 H12 O  =    21 atoms



      MOLECULAR POINT GROUP   :   C1  


          ALPHA EIGENVALUES  
 -38.19004 -37.54276 -32.26485 -30.41240 -28.90630 -27.52580 -25.52442 -24.64743
 -23.73928 -22.18128 -21.71264 -21.69408 -20.55765 -19.74485 -19.55007 -18.64789
 -18.16999 -18.02791 -17.92598 -17.31373 -16.83327 -16.77960 -16.33355 -15.75481
 -13.07734  -5.74066  -4.40888  -3.36317  -2.41387  -2.29910  -1.85484  -1.37943
  -0.84047  -0.61445  -0.52390   0.42616   0.57335   0.61084   0.83276   0.87701
   1.13912   1.21650   1.23987   1.40734   1.62485   2.08591   2.47621   2.83032


           BETA EIGENVALUES 
 -38.18773 -37.54046 -32.18938 -30.37744 -28.87689 -27.40823 -25.48972 -24.51469
 -23.69672 -22.15699 -21.68510 -21.66185 -20.52994 -19.68291 -19.49758 -18.58413
 -18.03549 -17.96887 -17.85795 -17.21063 -16.74412 -16.69081 -16.22133 -15.74239
  -5.74212  -4.40956  -3.36694  -3.11119  -2.40423  -2.29561  -1.85168  -1.37713
  -0.83278  -0.61055  -0.51901   0.57325   0.61086   0.62715   0.85682   0.97596
   1.14070   1.21826   1.34550   1.40812   1.62496   2.17505   2.64807   3.07896


              NET ATOMIC CHARGES AND DIPOLE CONTRIBUTIONS

  ATOM NO.   TYPE          CHARGE      No. of ELECS.   s-Pop       p-Pop       
    1          C          -0.222048        4.2220     1.11611     3.10594
    2          O          -0.109091        6.1091     1.84911     4.25998
    3          C           0.414777        3.5852     1.19338     2.39184
    4          C          -0.314551        4.3146     1.12181     3.19274
    5          C          -0.282249        4.2822     1.04981     3.23244
    6          C          -0.146033        4.1460     1.09631     3.04973
    7          C          -0.057649        4.0576     1.09929     2.95836
    8          C          -0.217176        4.2172     1.07036     3.14682
    9          C          -0.364154        4.3642     1.07825     3.28590
   10          H           0.186219        0.8138     0.81378
   11          H           0.202739        0.7973     0.79726
   12          H           0.171034        0.8290     0.82897
   13          H           0.138923        0.8611     0.86108
   14          H           0.172015        0.8280     0.82798
   15          H           0.208361        0.7916     0.79164
   16          H           0.189641        0.8104     0.81036
   17          H           0.203334        0.7967     0.79667
   18          H           0.208992        0.7910     0.79101
   19          H           0.207914        0.7921     0.79209
   20          H           0.188500        0.8115     0.81150
   21          H           0.220503        0.7795     0.77950
 DIPOLE           X         Y         Z       TOTAL
 POINT-CHG.     0.123    -0.763    -2.178     2.311
 HYBRID         0.519    -0.100    -0.292     0.604
 SUM            0.642    -0.863    -2.470     2.694


          ATOMIC ORBITAL ELECTRON POPULATIONS

     Atom    s        px        py        pz   
    1  C   1.11611   0.97362   1.05950   1.07282
    2  O   1.84911   1.29756   1.43451   1.52791
    3  C   1.19338   0.78559   0.96516   0.64109
    4  C   1.12181   1.04070   1.07924   1.07280
    5  C   1.04981   1.12416   1.09882   1.00946
    6  C   1.09631   0.98422   1.04877   1.01673
    7  C   1.09929   0.97048   0.94179   1.04610
    8  C   1.07036   0.91287   1.18046   1.05349
    9  C   1.07825   0.99083   1.07354   1.22154
   10  H   0.81378
   11  H   0.79726
   12  H   0.82897
   13  H   0.86108
   14  H   0.82798
   15  H   0.79164
   16  H   0.81036
   17  H   0.79667
   18  H   0.79101
   19  H   0.79209
   20  H   0.81150
   21  H   0.77950


                    (SZ)    =    0.500000
                    (S**2)  =    0.753217


          ATOMIC ORBITAL SPIN POPULATIONS

    Atom   Total    s     px     py     pz   
         Atomic
    1  C  0.0001  0.000  0.000  0.000  0.000
    2  O  0.0002  0.000 -0.000  0.000  0.000
    3  C -0.0001  0.000 -0.000 -0.000  0.000
    4  C  1.0385  0.026  0.516  0.041  0.456
    5  C -0.0409 -0.007 -0.008 -0.017 -0.009
    6  C  0.0050  0.001  0.002  0.001  0.001
    7  C  0.0000 -0.000  0.000 -0.000  0.000
    8  C  0.0001  0.000  0.000 -0.000  0.000
    9  C  0.0002  0.000  0.000  0.000  0.000
   10  H -0.0000 -0.000
   11  H  0.0000  0.000
   12  H -0.0000 -0.000
   13  H -0.0289 -0.029
   14  H -0.0292 -0.029
   15  H  0.0361  0.036
   16  H  0.0195  0.020
   17  H -0.0006 -0.001
   18  H  0.0000  0.000
   19  H  0.0000  0.000
   20  H -0.0000 -0.000
   21  H -0.0000 -0.000

 **********************
 *                    *
 * JOB ENDED NORMALLY *
 *                    *
 **********************



 TOTAL JOB TIME:             1.98 SECONDS

 == MOPAC DONE ==
