 *******************************************************************************
 **                                                                           **
 **                              MOPAC v23.2                                  **
 **                                                                           **
 *******************************************************************************
 **          Digital Object Identifier (DOI): 10.5281/zenodo.6511958          **
 **    Visit the DOI location for information on how to cite this program.    **
 *******************************************************************************

                              PM7 CALCULATION RESULTS

 *******************************************************************************
 *  CALCULATION DONE: (MAX THREADS = 40)             Fri Sep 19 21:45:21 2025  *
 *  PM7        - The PM7 Hamiltonian to be used
 *
 *
 *
 *                 CHARGE ON SYSTEM = +1
 *
 *
 *
 *  1SCF       - DO 1 SCF AND THEN STOP 
 *  T=         - A TIME OF 172800.0 SECONDS REQUESTED
 *  DUMP=N     - RESTART FILE WRITTEN EVERY 7200.0 SECONDS REQUESTED
 *  RELSCF     - DEFAULT SCF CRITERION MULTIPLIED BY 0.0001
 *              (DEFAULT SCF CRITERION = 0.00010)
 *  GRADIENTS  - ALL GRADIENTS TO BE PRINTED
 *  DISP       - PRINT DISPERSION AND HYDROGEN BOND ENERGIES
 *******************************************************************************
PM7 1SCF GRADIENTS DISP RELSCF=0.0001 CHARGE=1
 Title: ASE calculation

   ATOM   CHEMICAL          X               Y               Z
  NUMBER   SYMBOL      (ANGSTROMS)     (ANGSTROMS)     (ANGSTROMS)

     1       C          2.40522576  *  -0.97473269  *  -0.57882796  *
     2       C          1.25693469  *  -0.22220166  *   0.08375554  *
     3       C          1.23376805  *   1.22090188  *  -0.40988379  *
     4       O          0.15919532  *   2.01377740  *  -0.02210928  *
     5       C         -1.04223130  *   1.42831924  *   0.40785734  *
     6       C         -1.31271826  *   0.03244319  *  -0.05575859  *
     7       C         -2.44980659  *  -0.06073034  *  -1.02903726  *
     8       C         -1.05006690  *  -1.11828071  *   0.89853476  *
     9       C         -0.07933113  *  -0.85825301  *  -0.22263145  *
    10       H          2.30588712  *  -1.03420928  *  -1.67056677  *
    11       H          3.38461897  *  -0.52902476  *  -0.35626731  *
    12       H          2.45603794  *  -2.01607824  *  -0.21518947  *
    13       H          1.43281101  *  -0.21894656  *   1.19646170  *
    14       H          2.12144184  *   1.83247036  *  -0.08640143  *
    15       H          1.23392273  *   1.28356426  *  -1.54267827  *
    16       H         -1.01528414  *   1.53194267  *   1.53406781  *
    17       H         -1.80356356  *   2.18601983  *   0.06373018  *
    18       H         -2.58743579  *  -1.08719542  *  -1.41142999  *
    19       H         -3.41211521  *   0.21090151  *  -0.56375900  *
    20       H         -2.31128996  *   0.57738689  *  -1.91337199  *
    21       H         -1.69851884  *  -1.99963620  *   0.85937562  *
    22       H         -0.77269519  *  -0.93947933  *   1.93530415  *
    23       H         -0.05721815  *  -1.56254289  *  -1.06735256  *



          CARTESIAN COORDINATES 

    NO.       ATOM           X           Y           Z

     1         C          2.4052     -0.9747     -0.5788
     2         C          1.2569     -0.2222      0.0838
     3         C          1.2338      1.2209     -0.4099
     4         O          0.1592      2.0138     -0.0221
     5         C         -1.0422      1.4283      0.4079
     6         C         -1.3127      0.0324     -0.0558
     7         C         -2.4498     -0.0607     -1.0290
     8         C         -1.0501     -1.1183      0.8985
     9         C         -0.0793     -0.8583     -0.2226
    10         H          2.3059     -1.0342     -1.6706
    11         H          3.3846     -0.5290     -0.3563
    12         H          2.4560     -2.0161     -0.2152
    13         H          1.4328     -0.2189      1.1965
    14         H          2.1214      1.8325     -0.0864
    15         H          1.2339      1.2836     -1.5427
    16         H         -1.0153      1.5319      1.5341
    17         H         -1.8036      2.1860      0.0637
    18         H         -2.5874     -1.0872     -1.4114
    19         H         -3.4121      0.2109     -0.5638
    20         H         -2.3113      0.5774     -1.9134
    21         H         -1.6985     -1.9996      0.8594
    22         H         -0.7727     -0.9395      1.9353
    23         H         -0.0572     -1.5625     -1.0674

 General Reference for PM7:
 "Optimization of Parameters for Semiempirical Methods VI: More Modifications to the 
 NDDO Approximations and Re-optimization of Parameters", J. J. P. Stewart, J. Mol. Mod., 1:32, 19 (2013)
 https://link.springer.com/article/10.1007/s00894-012-1667-x

           Empirical Formula: C8 H14 O  =    23 atoms



      MOLECULAR POINT GROUP   :   C1  


          UHF CALCULATION, NO. OF ALPHA ELECTRONS =   26
                           NO. OF BETA  ELECTRONS =   25
  SCF CRITERION =    0.1000E-07

 -------------------------------------------------------------------------------
 PM7 1SCF GRADIENTS DISP RELSCF=0.0001 CHARGE=1
 Title: ASE calculation



     1SCF WAS SPECIFIED, SO BFGS WAS NOT USED                 
     SCF FIELD WAS ACHIEVED                                   


                              PM7 CALCULATION
                                                       MOPAC v23.2 Linux
                                                       Fri Sep 19 21:45:22 2025




          FINAL HEAT OF FORMATION =        165.63497 KCAL/MOL =     693.01674 KJ/MOL

          TOTAL ENERGY            =     -33614.24728 KCAL/MOL = ELECTRONIC ENERGY + CORE-CORE REPULSION
          ENERGY OF ATOMS         =      33782.22825 KCAL/MOL
                              SUM =        167.98096 KCAL/MOL
          DISPERSION ENERGY       =         -2.34599 KCAL/MOL
                              SUM =        165.63497 KCAL/MOL = FINAL HEAT OF FORMATION



          TOTAL ENERGY            =      -1457.65172 EV
          ELECTRONIC ENERGY       =      -7966.71368 EV 
          CORE-CORE REPULSION     =       6509.06196 EV
          COSMO AREA              =        170.60 SQUARE ANGSTROMS
          COSMO VOLUME            =        175.92 CUBIC ANGSTROMS

          GRADIENT NORM           =          1.08402          =       0.22603 PER ATOM
          IONIZATION POTENTIAL    =         15.030860 EV
          ALPHA SOMO LUMO (EV)    =        -15.057 -4.972
          BETA  SOMO LUMO (EV)    =        -15.031 -8.071
          NO. OF ALPHA ELECTRONS  =         26
          NO. OF BETA  ELECTRONS  =         25
          MOLECULAR WEIGHT        =        126.1980         POINT GROUP:  C1  

          MOLECULAR DIMENSIONS (Angstroms)

            Atom       Atom       Distance
            H    19    H    11     6.84004
            H    15    H    21     4.35535
            H    16    H    10     3.97040


          SCF CALCULATIONS        =          1

          WALL-CLOCK TIME         =      1.781 SECONDS
          COMPUTATION TIME        =      0.645 SECONDS

          LARGEST ATOMIC GRADIENTS

          Atom     Label                     Cartesian Gradients           Cartesian Coordinates       |Gradient|
                                           X          Y          Z        X          Y          Z

             5       C                   0.214     -0.201     -0.346   -1.04223    1.42832    0.40786      0.454
            20       H                   0.092      0.237     -0.245   -2.31129    0.57739   -1.91337      0.353
             3       C                  -0.209     -0.008      0.212    1.23377    1.22090   -0.40988      0.298
             6       C                  -0.219     -0.067      0.181   -1.31272    0.03244   -0.05576      0.292
            13       H                  -0.147      0.221      0.036    1.43281   -0.21895    1.19646      0.268
            19       H                   0.062     -0.174      0.187   -3.41212    0.21090   -0.56376      0.263
            11       H                  -0.200     -0.160     -0.026    3.38462   -0.52902   -0.35627      0.258
             7       C                   0.183      0.173      0.039   -2.44981   -0.06073   -1.02904      0.255
             8       C                   0.223     -0.076      0.086   -1.05007   -1.11828    0.89853      0.251
            15       H                   0.239     -0.061     -0.038    1.23392    1.28356   -1.54268      0.250



       FINAL  POINT  AND  DERIVATIVES

   PARAMETER     ATOM    TYPE            VALUE        GRADIENT
      1          1  C    CARTESIAN X     2.405226     -0.151184  KCAL/ANGSTROM
      2          1  C    CARTESIAN Y    -0.974733      0.054229  KCAL/ANGSTROM
      3          1  C    CARTESIAN Z    -0.578828     -0.016236  KCAL/ANGSTROM
      4          2  C    CARTESIAN X     1.256935     -0.021627  KCAL/ANGSTROM
      5          2  C    CARTESIAN Y    -0.222202      0.019929  KCAL/ANGSTROM
      6          2  C    CARTESIAN Z     0.083756     -0.125497  KCAL/ANGSTROM
      7          3  C    CARTESIAN X     1.233768     -0.208527  KCAL/ANGSTROM
      8          3  C    CARTESIAN Y     1.220902     -0.007568  KCAL/ANGSTROM
      9          3  C    CARTESIAN Z    -0.409884      0.212245  KCAL/ANGSTROM
     10          4  O    CARTESIAN X     0.159195      0.099283  KCAL/ANGSTROM
     11          4  O    CARTESIAN Y     2.013777     -0.063906  KCAL/ANGSTROM
     12          4  O    CARTESIAN Z    -0.022109     -0.064178  KCAL/ANGSTROM
     13          5  C    CARTESIAN X    -1.042231      0.213842  KCAL/ANGSTROM
     14          5  C    CARTESIAN Y     1.428319     -0.201400  KCAL/ANGSTROM
     15          5  C    CARTESIAN Z     0.407857     -0.345576  KCAL/ANGSTROM
     16          6  C    CARTESIAN X    -1.312718     -0.219467  KCAL/ANGSTROM
     17          6  C    CARTESIAN Y     0.032443     -0.066636  KCAL/ANGSTROM
     18          6  C    CARTESIAN Z    -0.055759      0.181027  KCAL/ANGSTROM
     19          7  C    CARTESIAN X    -2.449807      0.182526  KCAL/ANGSTROM
     20          7  C    CARTESIAN Y    -0.060730      0.173440  KCAL/ANGSTROM
     21          7  C    CARTESIAN Z    -1.029037      0.039482  KCAL/ANGSTROM
     22          8  C    CARTESIAN X    -1.050067      0.223196  KCAL/ANGSTROM
     23          8  C    CARTESIAN Y    -1.118281     -0.076377  KCAL/ANGSTROM
     24          8  C    CARTESIAN Z     0.898535      0.085637  KCAL/ANGSTROM
     25          9  C    CARTESIAN X    -0.079331      0.126434  KCAL/ANGSTROM
     26          9  C    CARTESIAN Y    -0.858253      0.113616  KCAL/ANGSTROM
     27          9  C    CARTESIAN Z    -0.222631     -0.062797  KCAL/ANGSTROM
     28         10  H    CARTESIAN X     2.305887     -0.075873  KCAL/ANGSTROM
     29         10  H    CARTESIAN Y    -1.034209      0.053230  KCAL/ANGSTROM
     30         10  H    CARTESIAN Z    -1.670567      0.073312  KCAL/ANGSTROM
     31         11  H    CARTESIAN X     3.384619     -0.199803  KCAL/ANGSTROM
     32         11  H    CARTESIAN Y    -0.529025     -0.160431  KCAL/ANGSTROM
     33         11  H    CARTESIAN Z    -0.356267     -0.026350  KCAL/ANGSTROM
     34         12  H    CARTESIAN X     2.456038      0.120709  KCAL/ANGSTROM
     35         12  H    CARTESIAN Y    -2.016078      0.007827  KCAL/ANGSTROM
     36         12  H    CARTESIAN Z    -0.215189      0.033330  KCAL/ANGSTROM
     37         13  H    CARTESIAN X     1.432811     -0.146937  KCAL/ANGSTROM
     38         13  H    CARTESIAN Y    -0.218947      0.221118  KCAL/ANGSTROM
     39         13  H    CARTESIAN Z     1.196462      0.036169  KCAL/ANGSTROM
     40         14  H    CARTESIAN X     2.121442     -0.003940  KCAL/ANGSTROM
     41         14  H    CARTESIAN Y     1.832470      0.152674  KCAL/ANGSTROM
     42         14  H    CARTESIAN Z    -0.086401     -0.046153  KCAL/ANGSTROM
     43         15  H    CARTESIAN X     1.233923      0.238957  KCAL/ANGSTROM
     44         15  H    CARTESIAN Y     1.283564     -0.061136  KCAL/ANGSTROM
     45         15  H    CARTESIAN Z    -1.542678     -0.038454  KCAL/ANGSTROM
     46         16  H    CARTESIAN X    -1.015284     -0.147652  KCAL/ANGSTROM
     47         16  H    CARTESIAN Y     1.531943     -0.118232  KCAL/ANGSTROM
     48         16  H    CARTESIAN Z     1.534068      0.072542  KCAL/ANGSTROM
     49         17  H    CARTESIAN X    -1.803564      0.060678  KCAL/ANGSTROM
     50         17  H    CARTESIAN Y     2.186020      0.058712  KCAL/ANGSTROM
     51         17  H    CARTESIAN Z     0.063730     -0.006241  KCAL/ANGSTROM
     52         18  H    CARTESIAN X    -2.587436     -0.150415  KCAL/ANGSTROM
     53         18  H    CARTESIAN Y    -1.087195     -0.049303  KCAL/ANGSTROM
     54         18  H    CARTESIAN Z    -1.411430      0.000311  KCAL/ANGSTROM
     55         19  H    CARTESIAN X    -3.412115      0.061953  KCAL/ANGSTROM
     56         19  H    CARTESIAN Y     0.210902     -0.173783  KCAL/ANGSTROM
     57         19  H    CARTESIAN Z    -0.563759      0.186982  KCAL/ANGSTROM
     58         20  H    CARTESIAN X    -2.311290      0.091704  KCAL/ANGSTROM
     59         20  H    CARTESIAN Y     0.577387      0.237025  KCAL/ANGSTROM
     60         20  H    CARTESIAN Z    -1.913372     -0.245395  KCAL/ANGSTROM
     61         21  H    CARTESIAN X    -1.698519     -0.081740  KCAL/ANGSTROM
     62         21  H    CARTESIAN Y    -1.999636     -0.080082  KCAL/ANGSTROM
     63         21  H    CARTESIAN Z     0.859376      0.089830  KCAL/ANGSTROM
     64         22  H    CARTESIAN X    -0.772695      0.041742  KCAL/ANGSTROM
     65         22  H    CARTESIAN Y    -0.939479     -0.048629  KCAL/ANGSTROM
     66         22  H    CARTESIAN Z     1.935304      0.088410  KCAL/ANGSTROM
     67         23  H    CARTESIAN X    -0.057218     -0.053858  KCAL/ANGSTROM
     68         23  H    CARTESIAN Y    -1.562543      0.015683  KCAL/ANGSTROM
     69         23  H    CARTESIAN Z    -1.067353     -0.122404  KCAL/ANGSTROM




   ATOM   CHEMICAL          X               Y               Z
  NUMBER   SYMBOL      (ANGSTROMS)     (ANGSTROMS)     (ANGSTROMS)

     1       C          2.40522576  *  -0.97473269  *  -0.57882796  *
     2       C          1.25693469  *  -0.22220166  *   0.08375554  *
     3       C          1.23376805  *   1.22090188  *  -0.40988379  *
     4       O          0.15919532  *   2.01377740  *  -0.02210928  *
     5       C         -1.04223130  *   1.42831924  *   0.40785734  *
     6       C         -1.31271826  *   0.03244319  *  -0.05575859  *
     7       C         -2.44980659  *  -0.06073034  *  -1.02903726  *
     8       C         -1.05006690  *  -1.11828071  *   0.89853476  *
     9       C         -0.07933113  *  -0.85825301  *  -0.22263145  *
    10       H          2.30588712  *  -1.03420928  *  -1.67056677  *
    11       H          3.38461897  *  -0.52902476  *  -0.35626731  *
    12       H          2.45603794  *  -2.01607824  *  -0.21518947  *
    13       H          1.43281101  *  -0.21894656  *   1.19646170  *
    14       H          2.12144184  *   1.83247036  *  -0.08640143  *
    15       H          1.23392273  *   1.28356426  *  -1.54267827  *
    16       H         -1.01528414  *   1.53194267  *   1.53406781  *
    17       H         -1.80356356  *   2.18601983  *   0.06373018  *
    18       H         -2.58743579  *  -1.08719542  *  -1.41142999  *
    19       H         -3.41211521  *   0.21090151  *  -0.56375900  *
    20       H         -2.31128996  *   0.57738689  *  -1.91337199  *
    21       H         -1.69851884  *  -1.99963620  *   0.85937562  *
    22       H         -0.77269519  *  -0.93947933  *   1.93530415  *
    23       H         -0.05721815  *  -1.56254289  *  -1.06735256  *

                             CARTESIAN COORDINATES

   1    C        2.405225756    -0.974732691    -0.578827957
   2    C        1.256934685    -0.222201662     0.083755541
   3    C        1.233768051     1.220901878    -0.409883785
   4    O        0.159195324     2.013777395    -0.022109283
   5    C       -1.042231303     1.428319240     0.407857338
   6    C       -1.312718257     0.032443192    -0.055758586
   7    C       -2.449806587    -0.060730339    -1.029037257
   8    C       -1.050066901    -1.118280705     0.898534764
   9    C       -0.079331125    -0.858253007    -0.222631454
  10    H        2.305887120    -1.034209280    -1.670566770
  11    H        3.384618974    -0.529024764    -0.356267308
  12    H        2.456037940    -2.016078241    -0.215189472
  13    H        1.432811013    -0.218946558     1.196461697
  14    H        2.121441843     1.832470362    -0.086401429
  15    H        1.233922729     1.283564256    -1.542678266
  16    H       -1.015284140     1.531942674     1.534067806
  17    H       -1.803563559     2.186019830     0.063730184
  18    H       -2.587435789    -1.087195418    -1.411429991
  19    H       -3.412115209     0.210901505    -0.563758997
  20    H       -2.311289956     0.577386891    -1.913371992
  21    H       -1.698518839    -1.999636196     0.859375616
  22    H       -0.772695187    -0.939479332     1.935304152
  23    H       -0.057218147    -1.562542891    -1.067352557


           Empirical Formula: C8 H14 O  =    23 atoms



      MOLECULAR POINT GROUP   :   C1  


          ALPHA EIGENVALUES  
 -39.69602 -35.79853 -33.12254 -30.41540 -29.45612 -28.36098 -25.88831 -24.60020
 -23.52634 -22.73098 -22.33420 -21.90124 -20.18735 -20.03055 -19.41648 -18.80862
 -18.13690 -17.91550 -17.48128 -17.24290 -16.94371 -16.73822 -16.54047 -16.09138
 -15.39128 -15.05707  -4.97205  -2.53456  -2.08744  -1.32833  -1.18153  -0.83060
  -0.69143  -0.54764  -0.13006  -0.09237   0.01022   0.20493   0.27091   0.32459
   1.24570   1.67076   1.86829   1.91058   1.92330   1.94333   2.03040   2.44704
   3.07736   3.10103


           BETA EIGENVALUES 
 -37.27954 -35.19490 -32.99373 -30.19714 -29.32748 -28.01481 -25.84416 -24.44487
 -23.25028 -22.14873 -21.81271 -21.36918 -19.97897 -19.70684 -19.05950 -18.61939
 -17.98224 -17.72291 -17.17192 -16.98424 -16.74018 -16.56607 -16.17438 -15.41442
 -15.03086  -8.07149  -4.37857  -2.34583  -1.95210  -1.31083  -1.10581  -0.76606
  -0.57419  -0.44651  -0.07865  -0.02697   0.07032   0.28263   0.30358   0.34116
   1.25404   1.67114   1.87158   1.91133   1.92411   1.94413   2.03036   2.44733
   3.07844   3.10132


              NET ATOMIC CHARGES AND DIPOLE CONTRIBUTIONS

  ATOM NO.   TYPE          CHARGE      No. of ELECS.   s-Pop       p-Pop       
    1          C          -0.453658        4.4537     1.05470     3.39896
    2          C          -0.105952        4.1060     1.06150     3.04445
    3          C          -0.194817        4.1948     1.12924     3.06558
    4          O           0.172073        5.8279     1.88907     3.93886
    5          C          -0.170767        4.1708     1.12326     3.04751
    6          C          -0.056464        4.0565     1.03611     3.02035
    7          C          -0.443429        4.4434     1.05019     3.39324
    8          C          -0.297201        4.2972     1.06264     3.23457
    9          C          -0.177665        4.1777     1.06187     3.11579
   10          H           0.166346        0.8337     0.83365
   11          H           0.171122        0.8289     0.82888
   12          H           0.187054        0.8129     0.81295
   13          H           0.176823        0.8232     0.82318
   14          H           0.225787        0.7742     0.77421
   15          H           0.245048        0.7550     0.75495
   16          H           0.235261        0.7647     0.76474
   17          H           0.228728        0.7713     0.77127
   18          H           0.183875        0.8161     0.81612
   19          H           0.179334        0.8207     0.82067
   20          H           0.164291        0.8357     0.83571
   21          H           0.195772        0.8042     0.80423
   22          H           0.172997        0.8270     0.82700
   23          H           0.195441        0.8046     0.80456
 DIPOLE           X         Y         Z       TOTAL
 POINT-CHG.     0.828     3.052     0.177     3.168
 HYBRID         0.016     0.617     0.046     0.619
 SUM            0.844     3.669     0.223     3.772


          ATOMIC ORBITAL ELECTRON POPULATIONS

     Atom    s        px        py        pz   
    1  C   1.05470   1.07206   1.16536   1.16154
    2  C   1.06150   1.01229   0.91415   1.11802
    3  C   1.12924   0.90196   1.05616   1.10746
    4  O   1.88907   1.23887   1.40767   1.29231
    5  C   1.12326   0.86098   1.08686   1.09967
    6  C   1.03611   1.04281   0.88986   1.08768
    7  C   1.05019   1.07381   1.21711   1.10231
    8  C   1.06264   1.10022   1.08751   1.04684
    9  C   1.06187   0.91703   1.08384   1.11492
   10  H   0.83365
   11  H   0.82888
   12  H   0.81295
   13  H   0.82318
   14  H   0.77421
   15  H   0.75495
   16  H   0.76474
   17  H   0.77127
   18  H   0.81612
   19  H   0.82067
   20  H   0.83571
   21  H   0.80423
   22  H   0.82700
   23  H   0.80456


                    (SZ)    =    0.500000
                    (S**2)  =    0.757299


          ATOMIC ORBITAL SPIN POPULATIONS

    Atom   Total    s     px     py     pz   
         Atomic
    1  C -0.0021 -0.000 -0.001 -0.001 -0.000
    2  C  0.0116  0.000  0.001  0.004  0.007
    3  C -0.0042 -0.008 -0.019 -0.008  0.031
    4  O  0.7746  0.019  0.109  0.029  0.618
    5  C -0.0100 -0.007 -0.023 -0.005  0.025
    6  C  0.0101  0.001  0.001  0.004  0.004
    7  C  0.0058  0.001  0.002  0.001  0.002
    8  C -0.0002 -0.000  0.001 -0.001 -0.000
    9  C -0.0043 -0.000 -0.001 -0.003 -0.000
   10  H  0.0002  0.000
   11  H  0.0000  0.000
   12  H  0.0002  0.000
   13  H  0.0055  0.005
   14  H  0.0341  0.034
   15  H  0.0786  0.079
   16  H  0.0694  0.069
   17  H  0.0292  0.029
   18  H  0.0012  0.001
   19  H -0.0001 -0.000
   20  H -0.0001 -0.000
   21  H -0.0001 -0.000
   22  H -0.0000 -0.000
   23  H  0.0005  0.001

 **********************
 *                    *
 * JOB ENDED NORMALLY *
 *                    *
 **********************



 TOTAL JOB TIME:             2.23 SECONDS

 == MOPAC DONE ==
