 *******************************************************************************
 **                                                                           **
 **                              MOPAC v23.2                                  **
 **                                                                           **
 *******************************************************************************
 **          Digital Object Identifier (DOI): 10.5281/zenodo.6511958          **
 **    Visit the DOI location for information on how to cite this program.    **
 *******************************************************************************

                              PM7 CALCULATION RESULTS

 *******************************************************************************
 *  CALCULATION DONE: (MAX THREADS = 40)             Fri Sep 19 21:36:14 2025  *
 *  PM7        - The PM7 Hamiltonian to be used
 *
 *
 *
 *                 CHARGE ON SYSTEM = +1
 *
 *
 *
 *  1SCF       - DO 1 SCF AND THEN STOP 
 *  T=         - A TIME OF 172800.0 SECONDS REQUESTED
 *  DUMP=N     - RESTART FILE WRITTEN EVERY 7200.0 SECONDS REQUESTED
 *  RELSCF     - DEFAULT SCF CRITERION MULTIPLIED BY 0.0001
 *              (DEFAULT SCF CRITERION = 0.00010)
 *  GRADIENTS  - ALL GRADIENTS TO BE PRINTED
 *  DISP       - PRINT DISPERSION AND HYDROGEN BOND ENERGIES
 *******************************************************************************
PM7 1SCF GRADIENTS DISP RELSCF=0.0001 CHARGE=1
 Title: ASE calculation

   ATOM   CHEMICAL          X               Y               Z
  NUMBER   SYMBOL      (ANGSTROMS)     (ANGSTROMS)     (ANGSTROMS)

     1       C         -2.97125660  *   1.03921036  *   0.18892046  *
     2       C         -2.07233676  *  -0.09790543  *   0.56890171  *
     3       C         -1.10146235  *  -0.63495362  *  -0.53469853  *
     4       C         -0.00067062  *  -0.02737714  *   0.32372396  *
     5       C          1.24189878  *  -0.80565256  *   0.88687000  *
     6       N          2.08493438  *   0.30755175  *   0.45302082  *
     7       C          3.45090677  *   0.59370262  *   0.65780833  *
     8       C          1.00271729  *   1.09010721  *  -0.14205473  *
     9       O         -0.89337916  *   0.41618209  *   1.31681994  *
    10       H         -3.90048366  *   0.68565643  *  -0.28543110  *
    11       H         -3.26805282  *   1.62112333  *   1.07938981  *
    12       H         -2.50051217  *   1.74988128  *  -0.50187487  *
    13       H         -2.54809302  *  -0.86879521  *   1.19807986  *
    14       H         -1.24187991  *  -0.20639338  *  -1.53273351  *
    15       H         -1.08580580  *  -1.72495780  *  -0.64554037  *
    16       H          1.47471945  *  -1.77364681  *   0.40025990  *
    17       H          1.22070159  *  -0.97410578  *   1.98691258  *
    18       H          3.89796467  *   1.17221833  *  -0.18670212  *
    19       H          4.06628072  *  -0.32390419  *   0.81166188  *
    20       H          3.59399383  *   1.22860715  *   1.57616191  *
    21       H          1.09288143  *   1.25226880  *  -1.23334368  *
    22       H          0.83080652  *   2.08091365  *   0.33719764  *



          CARTESIAN COORDINATES 

    NO.       ATOM           X           Y           Z

     1         C         -2.9713      1.0392      0.1889
     2         C         -2.0723     -0.0979      0.5689
     3         C         -1.1015     -0.6350     -0.5347
     4         C         -0.0007     -0.0274      0.3237
     5         C          1.2419     -0.8057      0.8869
     6         N          2.0849      0.3076      0.4530
     7         C          3.4509      0.5937      0.6578
     8         C          1.0027      1.0901     -0.1421
     9         O         -0.8934      0.4162      1.3168
    10         H         -3.9005      0.6857     -0.2854
    11         H         -3.2681      1.6211      1.0794
    12         H         -2.5005      1.7499     -0.5019
    13         H         -2.5481     -0.8688      1.1981
    14         H         -1.2419     -0.2064     -1.5327
    15         H         -1.0858     -1.7250     -0.6455
    16         H          1.4747     -1.7736      0.4003
    17         H          1.2207     -0.9741      1.9869
    18         H          3.8980      1.1722     -0.1867
    19         H          4.0663     -0.3239      0.8117
    20         H          3.5940      1.2286      1.5762
    21         H          1.0929      1.2523     -1.2333
    22         H          0.8308      2.0809      0.3372

 General Reference for PM7:
 "Optimization of Parameters for Semiempirical Methods VI: More Modifications to the 
 NDDO Approximations and Re-optimization of Parameters", J. J. P. Stewart, J. Mol. Mod., 1:32, 19 (2013)
 https://link.springer.com/article/10.1007/s00894-012-1667-x

           Empirical Formula: C7 H13 N O  =    22 atoms



      MOLECULAR POINT GROUP   :   C1  


          UHF CALCULATION, NO. OF ALPHA ELECTRONS =   26
                           NO. OF BETA  ELECTRONS =   25
  SCF CRITERION =    0.1000E-07

 -------------------------------------------------------------------------------
 PM7 1SCF GRADIENTS DISP RELSCF=0.0001 CHARGE=1
 Title: ASE calculation



     1SCF WAS SPECIFIED, SO BFGS WAS NOT USED                 
     SCF FIELD WAS ACHIEVED                                   


                              PM7 CALCULATION
                                                       MOPAC v23.2 Linux
                                                       Fri Sep 19 21:36:14 2025




          FINAL HEAT OF FORMATION =        160.66412 KCAL/MOL =     672.21869 KJ/MOL

          TOTAL ENERGY            =     -34776.00986 KCAL/MOL = ELECTRONIC ENERGY + CORE-CORE REPULSION
          ENERGY OF ATOMS         =      34938.70333 KCAL/MOL
                              SUM =        162.69347 KCAL/MOL
          DISPERSION ENERGY       =         -2.02935 KCAL/MOL
                              SUM =        160.66412 KCAL/MOL = FINAL HEAT OF FORMATION



          TOTAL ENERGY            =      -1508.03052 EV
          ELECTRONIC ENERGY       =      -7851.94593 EV 
          CORE-CORE REPULSION     =       6343.91542 EV
          COSMO AREA              =        175.09 SQUARE ANGSTROMS
          COSMO VOLUME            =        173.53 CUBIC ANGSTROMS

          GRADIENT NORM           =          1.22616          =       0.26142 PER ATOM
          IONIZATION POTENTIAL    =         14.253996 EV
          ALPHA SOMO LUMO (EV)    =        -14.254 -4.407
          BETA  SOMO LUMO (EV)    =        -14.258 -6.112
          NO. OF ALPHA ELECTRONS  =         26
          NO. OF BETA  ELECTRONS  =         25
          MOLECULAR WEIGHT        =        127.1858         POINT GROUP:  C1  

          MOLECULAR DIMENSIONS (Angstroms)

            Atom       Atom       Distance
            H    19    H    10     8.10507
            H    22    H    15     4.09187
            H    21    H    17     3.49646


          SCF CALCULATIONS        =          1

          WALL-CLOCK TIME         =      0.852 SECONDS
          COMPUTATION TIME        =      0.594 SECONDS

          LARGEST ATOMIC GRADIENTS

          Atom     Label                     Cartesian Gradients           Cartesian Coordinates       |Gradient|
                                           X          Y          Z        X          Y          Z

            22       H                  -0.211      0.266      0.290    0.83081    2.08091    0.33720      0.447
             7       C                   0.357      0.166      0.185    3.45091    0.59370    0.65781      0.435
            11       H                   0.352      0.049     -0.178   -3.26805    1.62112    1.07939      0.397
            21       H                  -0.177      0.316     -0.041    1.09288    1.25227   -1.23334      0.365
            20       H                  -0.362     -0.009      0.026    3.59399    1.22861    1.57616      0.363
            17       H                  -0.132     -0.299      0.112    1.22070   -0.97411    1.98691      0.345
             4       C                   0.261     -0.128     -0.143   -0.00067   -0.02738    0.32372      0.324
            14       H                  -0.167     -0.199      0.112   -1.24188   -0.20639   -1.53273      0.283
             8       C                  -0.263     -0.014     -0.053    1.00272    1.09011   -0.14205      0.269
            15       H                  -0.141      0.108      0.202   -1.08581   -1.72496   -0.64554      0.269



       FINAL  POINT  AND  DERIVATIVES

   PARAMETER     ATOM    TYPE            VALUE        GRADIENT
      1          1  C    CARTESIAN X    -2.971257     -0.016254  KCAL/ANGSTROM
      2          1  C    CARTESIAN Y     1.039210     -0.076489  KCAL/ANGSTROM
      3          1  C    CARTESIAN Z     0.188920     -0.102274  KCAL/ANGSTROM
      4          2  C    CARTESIAN X    -2.072337     -0.012934  KCAL/ANGSTROM
      5          2  C    CARTESIAN Y    -0.097905     -0.000379  KCAL/ANGSTROM
      6          2  C    CARTESIAN Z     0.568902     -0.106615  KCAL/ANGSTROM
      7          3  C    CARTESIAN X    -1.101462     -0.006489  KCAL/ANGSTROM
      8          3  C    CARTESIAN Y    -0.634954     -0.041389  KCAL/ANGSTROM
      9          3  C    CARTESIAN Z    -0.534699     -0.005352  KCAL/ANGSTROM
     10          4  C    CARTESIAN X    -0.000671      0.260696  KCAL/ANGSTROM
     11          4  C    CARTESIAN Y    -0.027377     -0.128167  KCAL/ANGSTROM
     12          4  C    CARTESIAN Z     0.323724     -0.142796  KCAL/ANGSTROM
     13          5  C    CARTESIAN X     1.241899      0.056051  KCAL/ANGSTROM
     14          5  C    CARTESIAN Y    -0.805653     -0.079067  KCAL/ANGSTROM
     15          5  C    CARTESIAN Z     0.886870     -0.030965  KCAL/ANGSTROM
     16          6  N    CARTESIAN X     2.084934      0.041120  KCAL/ANGSTROM
     17          6  N    CARTESIAN Y     0.307552     -0.066010  KCAL/ANGSTROM
     18          6  N    CARTESIAN Z     0.453021     -0.077648  KCAL/ANGSTROM
     19          7  C    CARTESIAN X     3.450907      0.357262  KCAL/ANGSTROM
     20          7  C    CARTESIAN Y     0.593703      0.165892  KCAL/ANGSTROM
     21          7  C    CARTESIAN Z     0.657808      0.185202  KCAL/ANGSTROM
     22          8  C    CARTESIAN X     1.002717     -0.263128  KCAL/ANGSTROM
     23          8  C    CARTESIAN Y     1.090107     -0.014414  KCAL/ANGSTROM
     24          8  C    CARTESIAN Z    -0.142055     -0.052953  KCAL/ANGSTROM
     25          9  O    CARTESIAN X    -0.893379      0.111365  KCAL/ANGSTROM
     26          9  O    CARTESIAN Y     0.416182      0.003344  KCAL/ANGSTROM
     27          9  O    CARTESIAN Z     1.316820     -0.106697  KCAL/ANGSTROM
     28         10  H    CARTESIAN X    -3.900484     -0.016709  KCAL/ANGSTROM
     29         10  H    CARTESIAN Y     0.685656      0.108871  KCAL/ANGSTROM
     30         10  H    CARTESIAN Z    -0.285431      0.023777  KCAL/ANGSTROM
     31         11  H    CARTESIAN X    -3.268053      0.351708  KCAL/ANGSTROM
     32         11  H    CARTESIAN Y     1.621123      0.048895  KCAL/ANGSTROM
     33         11  H    CARTESIAN Z     1.079390     -0.177561  KCAL/ANGSTROM
     34         12  H    CARTESIAN X    -2.500512      0.156345  KCAL/ANGSTROM
     35         12  H    CARTESIAN Y     1.749881     -0.200652  KCAL/ANGSTROM
     36         12  H    CARTESIAN Z    -0.501875      0.003801  KCAL/ANGSTROM
     37         13  H    CARTESIAN X    -2.548093      0.017860  KCAL/ANGSTROM
     38         13  H    CARTESIAN Y    -0.868795      0.140297  KCAL/ANGSTROM
     39         13  H    CARTESIAN Z     1.198080      0.103934  KCAL/ANGSTROM
     40         14  H    CARTESIAN X    -1.241880     -0.167479  KCAL/ANGSTROM
     41         14  H    CARTESIAN Y    -0.206393     -0.198974  KCAL/ANGSTROM
     42         14  H    CARTESIAN Z    -1.532734      0.112332  KCAL/ANGSTROM
     43         15  H    CARTESIAN X    -1.085806     -0.140942  KCAL/ANGSTROM
     44         15  H    CARTESIAN Y    -1.724958      0.107906  KCAL/ANGSTROM
     45         15  H    CARTESIAN Z    -0.645540      0.201714  KCAL/ANGSTROM
     46         16  H    CARTESIAN X     1.474719     -0.089890  KCAL/ANGSTROM
     47         16  H    CARTESIAN Y    -1.773647     -0.005666  KCAL/ANGSTROM
     48         16  H    CARTESIAN Z     0.400260     -0.057626  KCAL/ANGSTROM
     49         17  H    CARTESIAN X     1.220702     -0.131798  KCAL/ANGSTROM
     50         17  H    CARTESIAN Y    -0.974106     -0.298915  KCAL/ANGSTROM
     51         17  H    CARTESIAN Z     1.986913      0.111624  KCAL/ANGSTROM
     52         18  H    CARTESIAN X     3.897965      0.120493  KCAL/ANGSTROM
     53         18  H    CARTESIAN Y     1.172218     -0.068986  KCAL/ANGSTROM
     54         18  H    CARTESIAN Z    -0.186702     -0.082582  KCAL/ANGSTROM
     55         19  H    CARTESIAN X     4.066281      0.122929  KCAL/ANGSTROM
     56         19  H    CARTESIAN Y    -0.323904      0.031359  KCAL/ANGSTROM
     57         19  H    CARTESIAN Z     0.811662     -0.074639  KCAL/ANGSTROM
     58         20  H    CARTESIAN X     3.593994     -0.362070  KCAL/ANGSTROM
     59         20  H    CARTESIAN Y     1.228607     -0.009490  KCAL/ANGSTROM
     60         20  H    CARTESIAN Z     1.576162      0.025950  KCAL/ANGSTROM
     61         21  H    CARTESIAN X     1.092881     -0.176735  KCAL/ANGSTROM
     62         21  H    CARTESIAN Y     1.252269      0.316236  KCAL/ANGSTROM
     63         21  H    CARTESIAN Z    -1.233344     -0.040648  KCAL/ANGSTROM
     64         22  H    CARTESIAN X     0.830807     -0.211402  KCAL/ANGSTROM
     65         22  H    CARTESIAN Y     2.080914      0.265793  KCAL/ANGSTROM
     66         22  H    CARTESIAN Z     0.337198      0.290018  KCAL/ANGSTROM




   ATOM   CHEMICAL          X               Y               Z
  NUMBER   SYMBOL      (ANGSTROMS)     (ANGSTROMS)     (ANGSTROMS)

     1       C         -2.97125660  *   1.03921036  *   0.18892046  *
     2       C         -2.07233676  *  -0.09790543  *   0.56890171  *
     3       C         -1.10146235  *  -0.63495362  *  -0.53469853  *
     4       C         -0.00067062  *  -0.02737714  *   0.32372396  *
     5       C          1.24189878  *  -0.80565256  *   0.88687000  *
     6       N          2.08493438  *   0.30755175  *   0.45302082  *
     7       C          3.45090677  *   0.59370262  *   0.65780833  *
     8       C          1.00271729  *   1.09010721  *  -0.14205473  *
     9       O         -0.89337916  *   0.41618209  *   1.31681994  *
    10       H         -3.90048366  *   0.68565643  *  -0.28543110  *
    11       H         -3.26805282  *   1.62112333  *   1.07938981  *
    12       H         -2.50051217  *   1.74988128  *  -0.50187487  *
    13       H         -2.54809302  *  -0.86879521  *   1.19807986  *
    14       H         -1.24187991  *  -0.20639338  *  -1.53273351  *
    15       H         -1.08580580  *  -1.72495780  *  -0.64554037  *
    16       H          1.47471945  *  -1.77364681  *   0.40025990  *
    17       H          1.22070159  *  -0.97410578  *   1.98691258  *
    18       H          3.89796467  *   1.17221833  *  -0.18670212  *
    19       H          4.06628072  *  -0.32390419  *   0.81166188  *
    20       H          3.59399383  *   1.22860715  *   1.57616191  *
    21       H          1.09288143  *   1.25226880  *  -1.23334368  *
    22       H          0.83080652  *   2.08091365  *   0.33719764  *

                             CARTESIAN COORDINATES

   1    C       -2.971256600     1.039210358     0.188920461
   2    C       -2.072336759    -0.097905434     0.568901709
   3    C       -1.101462348    -0.634953619    -0.534698531
   4    C       -0.000670624    -0.027377145     0.323723958
   5    C        1.241898776    -0.805652560     0.886869998
   6    N        2.084934380     0.307551745     0.453020818
   7    C        3.450906770     0.593702623     0.657808333
   8    C        1.002717294     1.090107206    -0.142054733
   9    O       -0.893379159     0.416182091     1.316819935
  10    H       -3.900483657     0.685656425    -0.285431104
  11    H       -3.268052825     1.621123327     1.079389813
  12    H       -2.500512168     1.749881280    -0.501874867
  13    H       -2.548093020    -0.868795208     1.198079861
  14    H       -1.241879913    -0.206393379    -1.532733506
  15    H       -1.085805796    -1.724957799    -0.645540366
  16    H        1.474719450    -1.773646812     0.400259903
  17    H        1.220701593    -0.974105777     1.986912577
  18    H        3.897964667     1.172218329    -0.186702119
  19    H        4.066280722    -0.323904193     0.811661879
  20    H        3.593993833     1.228607149     1.576161905
  21    H        1.092881430     1.252268804    -1.233343681
  22    H        0.830806523     2.080913651     0.337197636


           Empirical Formula: C7 H13 N O  =    22 atoms



      MOLECULAR POINT GROUP   :   C1  


          ALPHA EIGENVALUES  
 -43.02514 -35.43954 -32.61624 -30.29198 -29.42756 -28.70689 -26.97868 -24.03048
 -23.18503 -22.85450 -22.18972 -22.16005 -20.35308 -20.01088 -19.31560 -18.88231
 -18.73486 -18.27889 -17.52917 -17.05102 -16.91113 -16.57137 -15.80806 -15.62587
 -15.33370 -14.25400  -4.40718  -2.09134  -2.05215  -1.95050  -1.81675  -1.05917
  -0.39117  -0.18799  -0.08230   0.16696   0.23367   0.33667   0.47311   0.77289
   0.80298   0.83120   0.92978   1.62242   2.11579   2.37864   2.55995   2.59505
   3.71254


           BETA EIGENVALUES 
 -41.45148 -35.37561 -32.38672 -30.28702 -29.23680 -28.59528 -26.60957 -23.95566
 -23.04086 -22.19221 -21.94175 -21.72505 -20.17366 -19.72277 -19.25002 -18.62152
 -18.46741 -18.15706 -17.49450 -16.98816 -16.89427 -16.51831 -15.63742 -15.33229
 -14.25752  -6.11160  -3.80331  -2.04012  -1.96674  -1.83299  -1.53869  -1.05292
  -0.22766   0.04889   0.08570   0.24491   0.29883   0.35521   0.59960   0.78521
   0.85791   0.89685   1.00731   1.62237   2.11583   2.37863   2.56001   2.59506
   3.71256


              NET ATOMIC CHARGES AND DIPOLE CONTRIBUTIONS

  ATOM NO.   TYPE          CHARGE      No. of ELECS.   s-Pop       p-Pop       
    1          C          -0.486854        4.4869     1.05514     3.43172
    2          C           0.170037        3.8300     1.10563     2.72434
    3          C          -0.376924        4.3769     1.08529     3.29164
    4          C           0.239574        3.7604     1.10055     2.65988
    5          C          -0.208558        4.2086     1.11248     3.09608
    6          N           0.016422        4.9836     1.54993     3.43365
    7          C          -0.321095        4.3211     1.06771     3.25338
    8          C          -0.210866        4.2109     1.11301     3.09785
    9          O          -0.396207        6.3962     1.90642     4.48979
   10          H           0.182633        0.8174     0.81737
   11          H           0.186811        0.8132     0.81319
   12          H           0.161974        0.8380     0.83803
   13          H           0.157984        0.8420     0.84202
   14          H           0.183862        0.8161     0.81614
   15          H           0.181918        0.8181     0.81808
   16          H           0.209435        0.7906     0.79057
   17          H           0.221590        0.7784     0.77841
   18          H           0.215761        0.7842     0.78424
   19          H           0.212932        0.7871     0.78707
   20          H           0.230716        0.7693     0.76928
   21          H           0.207915        0.7921     0.79208
   22          H           0.220940        0.7791     0.77906
 DIPOLE           X         Y         Z       TOTAL
 POINT-CHG.     5.769    -0.509    -1.554     5.997
 HYBRID         0.834     0.317     0.266     0.931
 SUM            6.603    -0.192    -1.288     6.730


          ATOMIC ORBITAL ELECTRON POPULATIONS

     Atom    s        px        py        pz   
    1  C   1.05514   1.13432   1.09911   1.19828
    2  C   1.10563   0.84630   0.98536   0.89267
    3  C   1.08529   1.01350   1.16917   1.10896
    4  C   1.10055   0.87248   0.89043   0.89697
    5  C   1.11248   0.92598   0.99188   1.17823
    6  N   1.54993   1.10131   1.16581   1.16653
    7  C   1.06771   0.83873   1.20962   1.20503
    8  C   1.11301   0.85839   1.10084   1.13862
    9  O   1.90642   1.27522   1.79213   1.42243
   10  H   0.81737
   11  H   0.81319
   12  H   0.83803
   13  H   0.84202
   14  H   0.81614
   15  H   0.81808
   16  H   0.79057
   17  H   0.77841
   18  H   0.78424
   19  H   0.78707
   20  H   0.76928
   21  H   0.79208
   22  H   0.77906


                    (SZ)    =    0.500000
                    (S**2)  =    0.760521


          ATOMIC ORBITAL SPIN POPULATIONS

    Atom   Total    s     px     py     pz   
         Atomic
    1  C -0.0000 -0.000 -0.000 -0.000  0.000
    2  C  0.0004  0.000  0.000  0.000  0.000
    3  C -0.0018 -0.000 -0.001 -0.000 -0.000
    4  C  0.0069  0.001  0.002  0.003  0.001
    5  C -0.0586 -0.007 -0.026 -0.026  0.000
    6  N  0.9479  0.045  0.072  0.206  0.626
    7  C -0.0425 -0.006 -0.035 -0.005  0.004
    8  C -0.0590 -0.007 -0.035 -0.010 -0.007
    9  O  0.0005  0.000  0.000  0.000  0.000
   10  H  0.0000  0.000
   11  H  0.0000  0.000
   12  H  0.0000  0.000
   13  H -0.0000 -0.000
   14  H  0.0001  0.000
   15  H  0.0001  0.000
   16  H  0.0303  0.030
   17  H  0.0302  0.030
   18  H  0.0183  0.018
   19  H  0.0104  0.010
   20  H  0.0564  0.056
   21  H  0.0298  0.030
   22  H  0.0306  0.031

 **********************
 *                    *
 * JOB ENDED NORMALLY *
 *                    *
 **********************



 TOTAL JOB TIME:             1.30 SECONDS

 == MOPAC DONE ==
