 *******************************************************************************
 **                                                                           **
 **                              MOPAC v23.2                                  **
 **                                                                           **
 *******************************************************************************
 **          Digital Object Identifier (DOI): 10.5281/zenodo.6511958          **
 **    Visit the DOI location for information on how to cite this program.    **
 *******************************************************************************

                              PM7 CALCULATION RESULTS

 *******************************************************************************
 *  CALCULATION DONE: (MAX THREADS = 40)             Fri Sep 19 21:40:37 2025  *
 *  PM7        - The PM7 Hamiltonian to be used
 *  EPS=37.5   - USE ANDREAS KLAMT'S COSMO IMPLICIT SOLVATION MODEL
 *  1SCF       - DO 1 SCF AND THEN STOP 
 *  T=         - A TIME OF 172800.0 SECONDS REQUESTED
 *  DUMP=N     - RESTART FILE WRITTEN EVERY 7200.0 SECONDS REQUESTED
 *  RELSCF     - DEFAULT SCF CRITERION MULTIPLIED BY 0.0001
 *              (DEFAULT SCF CRITERION = 0.00010)
 *  GRADIENTS  - ALL GRADIENTS TO BE PRINTED
 *  DISP       - PRINT DISPERSION AND HYDROGEN BOND ENERGIES
 *******************************************************************************
PM7 1SCF GRADIENTS EPS=37.5 DISP RELSCF=0.0001
 Title: ASE calculation

   ATOM   CHEMICAL          X               Y               Z
  NUMBER   SYMBOL      (ANGSTROMS)     (ANGSTROMS)     (ANGSTROMS)

     1       C          1.96503313  *   2.25769141  *   1.00621848  *
     2       C          1.48792873  *   1.38083830  *   0.32122369  *
     3       C          0.94186296  *   0.34948980  *  -0.49272121  *
     4       C          1.43206725  *  -1.08837085  *  -0.10287367  *
     5       N          0.70648331  *  -2.03244574  *  -0.97650070  *
     6       C         -0.01215610  *  -1.51321711  *   0.21557702  *
     7       C         -0.50248913  *  -0.10682329  *  -0.12175896  *
     8       C         -1.63659577  *   0.65888984  *   0.42005831  *
     9       O         -1.61523977  *   0.16874221  *  -0.93395897  *
    10       H          2.37443798  *   3.00331076  *   1.58398213  *
    11       H          1.04475791  *   0.55840627  *  -1.58398213  *
    12       H          2.37165589  *  -1.26980761  *   0.37396667  *
    13       H          0.99400591  *  -3.00331076  *  -0.92299293  *
    14       H         -0.44754711  *  -2.12739770  *   0.97685729  *
    15       H         -2.37443798  *   0.19305599  *   1.06835476  *
    16       H         -1.58524758  *   1.74082060  *   0.52339179  *



          CARTESIAN COORDINATES 

    NO.       ATOM           X           Y           Z

     1         C          1.9650      2.2577      1.0062
     2         C          1.4879      1.3808      0.3212
     3         C          0.9419      0.3495     -0.4927
     4         C          1.4321     -1.0884     -0.1029
     5         N          0.7065     -2.0324     -0.9765
     6         C         -0.0122     -1.5132      0.2156
     7         C         -0.5025     -0.1068     -0.1218
     8         C         -1.6366      0.6589      0.4201
     9         O         -1.6152      0.1687     -0.9340
    10         H          2.3744      3.0033      1.5840
    11         H          1.0448      0.5584     -1.5840
    12         H          2.3717     -1.2698      0.3740
    13         H          0.9940     -3.0033     -0.9230
    14         H         -0.4475     -2.1274      0.9769
    15         H         -2.3744      0.1931      1.0684
    16         H         -1.5852      1.7408      0.5234

 General Reference for PM7:
 "Optimization of Parameters for Semiempirical Methods VI: More Modifications to the 
 NDDO Approximations and Re-optimization of Parameters", J. J. P. Stewart, J. Mol. Mod., 1:32, 19 (2013)
 https://link.springer.com/article/10.1007/s00894-012-1667-x

           Empirical Formula: C7 H7 N O  =    16 atoms



      MOLECULAR POINT GROUP   :   C1  


      RHF CALCULATION, NO. OF DOUBLY OCCUPIED LEVELS = 23

  SCF CRITERION =    0.1000E-07

 -------------------------------------------------------------------------------
 PM7 1SCF GRADIENTS EPS=37.5 DISP RELSCF=0.0001
 Title: ASE calculation



     1SCF WAS SPECIFIED, SO BFGS WAS NOT USED                 
     SCF FIELD WAS ACHIEVED                                   


                              PM7 CALCULATION
                                                       MOPAC v23.2 Linux
                                                       Fri Sep 19 21:40:38 2025




          FINAL HEAT OF FORMATION =        109.79280 KCAL/MOL =     459.37307 KJ/MOL

          TOTAL ENERGY            =     -32995.06849 KCAL/MOL = ELECTRONIC ENERGY + CORE-CORE REPULSION + SOLVATION ENERGY
          ENERGY OF ATOMS         =      33094.39424 KCAL/MOL
                              SUM =         99.32576 KCAL/MOL
          DISPERSION ENERGY       =         -1.53293 KCAL/MOL
                              SUM =         97.79283 KCAL/MOL = FINAL HEAT OF FORMATION

     *    WARNING - An energy term is incorrect or missing!

     *    FINAL HEAT OF FORMATION     =    109.79280 KCAL/MOL
     *    SUM OF CONTRIBUTIONS TO HoF =     97.79283 KCAL/MOL
     *                     DIFFERENCE =     11.99997 KCAL/MOL

          VAN DER WAALS AREA      =        158.19 SQUARE ANGSTROMS


          TOTAL ENERGY            =      -1430.80159 EV
          ELECTRONIC ENERGY       =      -2085.89998 EV 
          CORE-CORE REPULSION     =        655.09840 EV

          DIELECTRIC ENERGY       =         -0.50209 EV
          COSMO AREA              =        158.19 SQUARE ANGSTROMS
          COSMO VOLUME            =        155.22 CUBIC ANGSTROMS

          GRADIENT NORM           =         13.68486          =       3.42122 PER ATOM
          IONIZATION POTENTIAL    =         10.212964 EV
          HOMO LUMO ENERGIES (EV) =        -10.213  0.959
          NO. OF FILLED LEVELS    =         23
          MOLECULAR WEIGHT        =        121.1384         POINT GROUP:  C1  

          MOLECULAR DIMENSIONS (Angstroms)

            Atom       Atom       Distance
            H    13    H    10     6.65357
            H    15    H    12     4.97900
            H    14    H    11     3.37946


          SCF CALCULATIONS        =          2

          WALL-CLOCK TIME         =      0.445 SECONDS
          COMPUTATION TIME        =      0.676 SECONDS

          LARGEST ATOMIC GRADIENTS

          Atom     Label                     Cartesian Gradients           Cartesian Coordinates       |Gradient|
                                           X          Y          Z        X          Y          Z

             7       C                  -4.394     -0.092     -5.052   -0.50249   -0.10682   -0.12176      6.696
             9       O                   2.944      0.301      5.585   -1.61524    0.16874   -0.93396      6.321
            13       H                  -1.925      4.671     -1.385    0.99401   -3.00331   -0.92299      5.239
             5       N                   1.580     -3.313      1.084    0.70648   -2.03245   -0.97650      3.826
             6       C                   0.650     -2.071      2.511   -0.01216   -1.51322    0.21558      3.319
             4       C                   2.234     -1.435      1.131    1.43207   -1.08837   -0.10287      2.886
             8       C                  -2.353      0.468     -1.008   -1.63660    0.65889    0.42006      2.602
            14       H                   0.506      1.702     -1.884   -0.44755   -2.12740    0.97686      2.589
            12       H                  -1.734      1.495     -1.167    2.37166   -1.26981    0.37397      2.570
             1       C                   0.813      1.543      1.719    1.96503    2.25769    1.00622      2.449



       FINAL  POINT  AND  DERIVATIVES

   PARAMETER     ATOM    TYPE            VALUE        GRADIENT
      1          1  C    CARTESIAN X     1.965033      0.812953  KCAL/ANGSTROM
      2          1  C    CARTESIAN Y     2.257691      1.543221  KCAL/ANGSTROM
      3          1  C    CARTESIAN Z     1.006218      1.718954  KCAL/ANGSTROM
      4          2  C    CARTESIAN X     1.487929      0.548723  KCAL/ANGSTROM
      5          2  C    CARTESIAN Y     1.380838      0.373820  KCAL/ANGSTROM
      6          2  C    CARTESIAN Z     0.321224      0.413194  KCAL/ANGSTROM
      7          3  C    CARTESIAN X     0.941863      0.819713  KCAL/ANGSTROM
      8          3  C    CARTESIAN Y     0.349490     -0.496156  KCAL/ANGSTROM
      9          3  C    CARTESIAN Z    -0.492721      0.798931  KCAL/ANGSTROM
     10          4  C    CARTESIAN X     1.432067      2.233518  KCAL/ANGSTROM
     11          4  C    CARTESIAN Y    -1.088371     -1.435421  KCAL/ANGSTROM
     12          4  C    CARTESIAN Z    -0.102874      1.131119  KCAL/ANGSTROM
     13          5  N    CARTESIAN X     0.706483      1.579509  KCAL/ANGSTROM
     14          5  N    CARTESIAN Y    -2.032446     -3.312557  KCAL/ANGSTROM
     15          5  N    CARTESIAN Z    -0.976501      1.083597  KCAL/ANGSTROM
     16          6  C    CARTESIAN X    -0.012156      0.650143  KCAL/ANGSTROM
     17          6  C    CARTESIAN Y    -1.513217     -2.070795  KCAL/ANGSTROM
     18          6  C    CARTESIAN Z     0.215577      2.510646  KCAL/ANGSTROM
     19          7  C    CARTESIAN X    -0.502489     -4.393857  KCAL/ANGSTROM
     20          7  C    CARTESIAN Y    -0.106823     -0.092457  KCAL/ANGSTROM
     21          7  C    CARTESIAN Z    -0.121759     -5.052021  KCAL/ANGSTROM
     22          8  C    CARTESIAN X    -1.636596     -2.353235  KCAL/ANGSTROM
     23          8  C    CARTESIAN Y     0.658890      0.468267  KCAL/ANGSTROM
     24          8  C    CARTESIAN Z     0.420058     -1.007884  KCAL/ANGSTROM
     25          9  O    CARTESIAN X    -1.615240      2.943787  KCAL/ANGSTROM
     26          9  O    CARTESIAN Y     0.168742      0.300910  KCAL/ANGSTROM
     27          9  O    CARTESIAN Z    -0.933959      5.585439  KCAL/ANGSTROM
     28         10  H    CARTESIAN X     2.374438     -0.604887  KCAL/ANGSTROM
     29         10  H    CARTESIAN Y     3.003311     -1.622486  KCAL/ANGSTROM
     30         10  H    CARTESIAN Z     1.583982     -1.581367  KCAL/ANGSTROM
     31         11  H    CARTESIAN X     1.044758     -0.580137  KCAL/ANGSTROM
     32         11  H    CARTESIAN Y     0.558406     -0.863805  KCAL/ANGSTROM
     33         11  H    CARTESIAN Z    -1.583982      0.225229  KCAL/ANGSTROM
     34         12  H    CARTESIAN X     2.371656     -1.734083  KCAL/ANGSTROM
     35         12  H    CARTESIAN Y    -1.269808      1.495438  KCAL/ANGSTROM
     36         12  H    CARTESIAN Z     0.373967     -1.167236  KCAL/ANGSTROM
     37         13  H    CARTESIAN X     0.994006     -1.925488  KCAL/ANGSTROM
     38         13  H    CARTESIAN Y    -3.003311      4.670919  KCAL/ANGSTROM
     39         13  H    CARTESIAN Z    -0.922993     -1.385246  KCAL/ANGSTROM
     40         14  H    CARTESIAN X    -0.447547      0.506149  KCAL/ANGSTROM
     41         14  H    CARTESIAN Y    -2.127398      1.701645  KCAL/ANGSTROM
     42         14  H    CARTESIAN Z     0.976857     -1.884341  KCAL/ANGSTROM
     43         15  H    CARTESIAN X    -2.374438      1.333284  KCAL/ANGSTROM
     44         15  H    CARTESIAN Y     0.193056      0.782452  KCAL/ANGSTROM
     45         15  H    CARTESIAN Z     1.068355     -1.291697  KCAL/ANGSTROM
     46         16  H    CARTESIAN X    -1.585248      0.163906  KCAL/ANGSTROM
     47         16  H    CARTESIAN Y     1.740821     -1.442997  KCAL/ANGSTROM
     48         16  H    CARTESIAN Z     0.523392     -0.097322  KCAL/ANGSTROM




   ATOM   CHEMICAL          X               Y               Z
  NUMBER   SYMBOL      (ANGSTROMS)     (ANGSTROMS)     (ANGSTROMS)

     1       C          1.96503313  *   2.25769141  *   1.00621848  *
     2       C          1.48792873  *   1.38083830  *   0.32122369  *
     3       C          0.94186296  *   0.34948980  *  -0.49272121  *
     4       C          1.43206725  *  -1.08837085  *  -0.10287367  *
     5       N          0.70648331  *  -2.03244574  *  -0.97650070  *
     6       C         -0.01215610  *  -1.51321711  *   0.21557702  *
     7       C         -0.50248913  *  -0.10682329  *  -0.12175896  *
     8       C         -1.63659577  *   0.65888984  *   0.42005831  *
     9       O         -1.61523977  *   0.16874221  *  -0.93395897  *
    10       H          2.37443798  *   3.00331076  *   1.58398213  *
    11       H          1.04475791  *   0.55840627  *  -1.58398213  *
    12       H          2.37165589  *  -1.26980761  *   0.37396667  *
    13       H          0.99400591  *  -3.00331076  *  -0.92299293  *
    14       H         -0.44754711  *  -2.12739770  *   0.97685729  *
    15       H         -2.37443798  *   0.19305599  *   1.06835476  *
    16       H         -1.58524758  *   1.74082060  *   0.52339179  *

                             CARTESIAN COORDINATES

   1    C        1.965033132     2.257691414     1.006218480
   2    C        1.487928726     1.380838297     0.321223692
   3    C        0.941862958     0.349489803    -0.492721209
   4    C        1.432067247    -1.088370854    -0.102873673
   5    N        0.706483313    -2.032445744    -0.976500705
   6    C       -0.012156099    -1.513217115     0.215577016
   7    C       -0.502489128    -0.106823287    -0.121758955
   8    C       -1.636595773     0.658889838     0.420058310
   9    O       -1.615239773     0.168742211    -0.933958973
  10    H        2.374437981     3.003310760     1.583982128
  11    H        1.044757910     0.558406267    -1.583982128
  12    H        2.371655895    -1.269807612     0.373966669
  13    H        0.994005913    -3.003310760    -0.922992931
  14    H       -0.447547106    -2.127397703     0.976857285
  15    H       -2.374437981     0.193055985     1.068354758
  16    H       -1.585247584     1.740820595     0.523391792


           Empirical Formula: C7 H7 N O  =    16 atoms



      MOLECULAR POINT GROUP   :   C1  


                  EIGENVALUES  
 -37.35722 -32.34142 -28.87609 -26.36341 -24.09060 -23.22779 -21.43948 -19.78792
 -18.50421 -17.56325 -17.03511 -16.51262 -15.60251 -14.88637 -14.37846 -13.65321
 -13.13143 -12.60329 -12.04494 -11.54032 -11.26555 -10.73613 -10.21296   0.95921
   1.15416   1.38609   1.81072   2.04383   2.69003   2.70689   2.86738   3.02387
   3.68907   4.15275   4.22383   5.35369   5.39899   5.43849   5.56584   5.59816
   5.98951   6.24678   6.67940


              NET ATOMIC CHARGES AND DIPOLE CONTRIBUTIONS

  ATOM NO.   TYPE          CHARGE      No. of ELECS.   s-Pop       p-Pop       
    1          C          -0.182918        4.1829     1.14293     3.03999
    2          C          -0.101132        4.1011     1.09787     3.00326
    3          C          -0.111775        4.1118     1.05879     3.05299
    4          C          -0.052479        4.0525     1.08686     2.96562
    5          N          -0.525721        5.5257     1.72539     3.80033
    6          C          -0.108118        4.1081     1.08542     3.02270
    7          C           0.164996        3.8350     1.08105     2.75396
    8          C          -0.125576        4.1256     1.09545     3.03013
    9          O          -0.388682        6.3887     1.91603     4.47265
   10          H           0.199562        0.8004     0.80044
   11          H           0.202193        0.7978     0.79781
   12          H           0.188896        0.8111     0.81110
   13          H           0.301875        0.6981     0.69812
   14          H           0.190856        0.8091     0.80914
   15          H           0.174789        0.8252     0.82521
   16          H           0.173234        0.8268     0.82677
 DIPOLE           X         Y         Z       TOTAL
 POINT-CHG.     1.672     0.128     4.207     4.529
 HYBRID        -0.000    -0.780    -0.112     0.788
 SUM            1.672    -0.652     4.095     4.471


          ATOMIC ORBITAL ELECTRON POPULATIONS

     Atom    s        px        py        pz   
    1  C   1.14293   0.99813   1.02165   1.02021
    2  C   1.09787   1.01300   0.99231   0.99795
    3  C   1.05879   0.98404   0.95776   1.11118
    4  C   1.08686   1.01080   0.92848   1.02634
    5  N   1.72539   1.22501   1.23343   1.34189
    6  C   1.08542   0.98618   1.02749   1.00903
    7  C   1.08105   0.85042   0.95943   0.94411
    8  C   1.09545   1.05423   1.11485   0.86105
    9  O   1.91603   1.43497   1.79060   1.24708
   10  H   0.80044
   11  H   0.79781
   12  H   0.81110
   13  H   0.69812
   14  H   0.80914
   15  H   0.82521
   16  H   0.82677

 **********************
 *                    *
 * JOB ENDED NORMALLY *
 *                    *
 **********************



 TOTAL JOB TIME:             0.79 SECONDS

 == MOPAC DONE ==
