 *******************************************************************************
 **                                                                           **
 **                              MOPAC v23.2                                  **
 **                                                                           **
 *******************************************************************************
 **          Digital Object Identifier (DOI): 10.5281/zenodo.6511958          **
 **    Visit the DOI location for information on how to cite this program.    **
 *******************************************************************************

                              PM7 CALCULATION RESULTS

 *******************************************************************************
 *  CALCULATION DONE: (MAX THREADS = 40)             Fri Sep 19 21:35:15 2025  *
 *  PM7        - The PM7 Hamiltonian to be used
 *  1SCF       - DO 1 SCF AND THEN STOP 
 *  T=         - A TIME OF 172800.0 SECONDS REQUESTED
 *  DUMP=N     - RESTART FILE WRITTEN EVERY 7200.0 SECONDS REQUESTED
 *  RELSCF     - DEFAULT SCF CRITERION MULTIPLIED BY 0.0001
 *              (DEFAULT SCF CRITERION = 0.00010)
 *  GRADIENTS  - ALL GRADIENTS TO BE PRINTED
 *  DISP       - PRINT DISPERSION AND HYDROGEN BOND ENERGIES
 *******************************************************************************
PM7 1SCF GRADIENTS DISP RELSCF=0.0001
 Title: ASE calculation

   ATOM   CHEMICAL          X               Y               Z
  NUMBER   SYMBOL      (ANGSTROMS)     (ANGSTROMS)     (ANGSTROMS)

     1       C          1.61710826  *  -0.58915772  *  -0.29108905  *
     2       C          0.66659750  *   0.25023334  *   0.54025527  *
     3       C         -0.34758018  *   1.12653062  *  -0.24802281  *
     4       C         -1.08498388  *   0.27739084  *  -1.30023745  *
     5       C         -1.51994849  *  -1.04759610  *  -0.74322558  *
     6       C         -1.17381147  *  -1.45676667  *   0.48270943  *
     7       C         -0.36851821  *  -0.55267872  *   1.37677417  *
     8       O         -1.24679999  *   0.46552812  *   1.87124843  *
     9       C         -1.32690833  *   1.50716768  *   0.88866566  *
    10       H          1.08575423  *  -1.29307631  *  -0.94420126  *
    11       H          2.28006570  *  -1.18407767  *   0.34953062  *
    12       H          2.24796369  *   0.03961354  *  -0.92984407  *
    13       H          1.26071208  *   0.90158363  *   1.22248889  *
    14       H          0.12710044  *   2.00557003  *  -0.71240294  *
    15       H         -0.42902328  *   0.11317879  *  -2.17991270  *
    16       H         -1.96285727  *   0.83435798  *  -1.68578515  *
    17       H         -2.12579239  *  -1.65467224  *  -1.41075585  *
    18       H         -1.47354065  *  -2.40905439  *   0.90048302  *
    19       H          0.03349664  *  -1.03808554  *   2.28005896  *
    20       H         -1.04175992  *   2.43008018  *   1.41511293  *
    21       H         -2.37807097  *   1.55864891  *   0.57247631  *



          CARTESIAN COORDINATES 

    NO.       ATOM           X           Y           Z

     1         C          1.6171     -0.5892     -0.2911
     2         C          0.6666      0.2502      0.5403
     3         C         -0.3476      1.1265     -0.2480
     4         C         -1.0850      0.2774     -1.3002
     5         C         -1.5199     -1.0476     -0.7432
     6         C         -1.1738     -1.4568      0.4827
     7         C         -0.3685     -0.5527      1.3768
     8         O         -1.2468      0.4655      1.8712
     9         C         -1.3269      1.5072      0.8887
    10         H          1.0858     -1.2931     -0.9442
    11         H          2.2801     -1.1841      0.3495
    12         H          2.2480      0.0396     -0.9298
    13         H          1.2607      0.9016      1.2225
    14         H          0.1271      2.0056     -0.7124
    15         H         -0.4290      0.1132     -2.1799
    16         H         -1.9629      0.8344     -1.6858
    17         H         -2.1258     -1.6547     -1.4108
    18         H         -1.4735     -2.4091      0.9005
    19         H          0.0335     -1.0381      2.2801
    20         H         -1.0418      2.4301      1.4151
    21         H         -2.3781      1.5586      0.5725

 General Reference for PM7:
 "Optimization of Parameters for Semiempirical Methods VI: More Modifications to the 
 NDDO Approximations and Re-optimization of Parameters", J. J. P. Stewart, J. Mol. Mod., 1:32, 19 (2013)
 https://link.springer.com/article/10.1007/s00894-012-1667-x

           Empirical Formula: C8 H12 O  =    21 atoms



      MOLECULAR POINT GROUP   :   C1  


      RHF CALCULATION, NO. OF DOUBLY OCCUPIED LEVELS = 25

  SCF CRITERION =    0.1000E-07

 -------------------------------------------------------------------------------
 PM7 1SCF GRADIENTS DISP RELSCF=0.0001
 Title: ASE calculation



     1SCF WAS SPECIFIED, SO BFGS WAS NOT USED                 
     SCF FIELD WAS ACHIEVED                                   


                              PM7 CALCULATION
                                                       MOPAC v23.2 Linux
                                                       Fri Sep 19 21:35:15 2025




          FINAL HEAT OF FORMATION =        -32.19900 KCAL/MOL =    -134.72060 KJ/MOL

          TOTAL ENERGY            =     -33197.63843 KCAL/MOL = ELECTRONIC ENERGY + CORE-CORE REPULSION
          ENERGY OF ATOMS         =      33167.45855 KCAL/MOL
                              SUM =        -30.17988 KCAL/MOL
          DISPERSION ENERGY       =         -2.01912 KCAL/MOL
                              SUM =        -32.19900 KCAL/MOL = FINAL HEAT OF FORMATION



          TOTAL ENERGY            =      -1439.58585 EV
          ELECTRONIC ENERGY       =      -7728.53733 EV 
          CORE-CORE REPULSION     =       6288.95148 EV
          COSMO AREA              =        157.00 SQUARE ANGSTROMS
          COSMO VOLUME            =        162.18 CUBIC ANGSTROMS

          GRADIENT NORM           =          0.90344          =       0.19715 PER ATOM
          IONIZATION POTENTIAL    =          9.589749 EV
          HOMO LUMO ENERGIES (EV) =         -9.590  0.950
          NO. OF FILLED LEVELS    =         25
          MOLECULAR WEIGHT        =        124.1822         POINT GROUP:  C1  

          MOLECULAR DIMENSIONS (Angstroms)

            Atom       Atom       Distance
            H    21    H    11     5.41022
            H    20    H    17     4.92683
            H    19    H    15     4.14143


          SCF CALCULATIONS        =          1

          WALL-CLOCK TIME         =      0.891 SECONDS
          COMPUTATION TIME        =      0.584 SECONDS

          LARGEST ATOMIC GRADIENTS

          Atom     Label                     Cartesian Gradients           Cartesian Coordinates       |Gradient|
                                           X          Y          Z        X          Y          Z

             8       O                  -0.128     -0.211     -0.292   -1.24680    0.46553    1.87125      0.382
            10       H                  -0.292      0.189      0.033    1.08575   -1.29308   -0.94420      0.349
             2       C                   0.258     -0.017     -0.187    0.66660    0.25023    0.54026      0.319
             6       C                  -0.210      0.148      0.159   -1.17381   -1.45677    0.48271      0.302
             4       C                   0.105      0.073      0.175   -1.08498    0.27739   -1.30024      0.217
             5       C                   0.198      0.001      0.006   -1.51995   -1.04760   -0.74323      0.198
             7       C                   0.180     -0.041     -0.062   -0.36852   -0.55268    1.37677      0.195
             1       C                   0.140     -0.101     -0.087    1.61711   -0.58916   -0.29109      0.193
            13       H                  -0.089      0.150     -0.024    1.26071    0.90158    1.22249      0.176
            17       H                  -0.049     -0.165      0.027   -2.12579   -1.65467   -1.41076      0.174



       FINAL  POINT  AND  DERIVATIVES

   PARAMETER     ATOM    TYPE            VALUE        GRADIENT
      1          1  C    CARTESIAN X     1.617108      0.139868  KCAL/ANGSTROM
      2          1  C    CARTESIAN Y    -0.589158     -0.100628  KCAL/ANGSTROM
      3          1  C    CARTESIAN Z    -0.291089     -0.086859  KCAL/ANGSTROM
      4          2  C    CARTESIAN X     0.666598      0.257631  KCAL/ANGSTROM
      5          2  C    CARTESIAN Y     0.250233     -0.017063  KCAL/ANGSTROM
      6          2  C    CARTESIAN Z     0.540255     -0.186731  KCAL/ANGSTROM
      7          3  C    CARTESIAN X    -0.347580      0.065875  KCAL/ANGSTROM
      8          3  C    CARTESIAN Y     1.126531      0.039173  KCAL/ANGSTROM
      9          3  C    CARTESIAN Z    -0.248023      0.047535  KCAL/ANGSTROM
     10          4  C    CARTESIAN X    -1.084984      0.104810  KCAL/ANGSTROM
     11          4  C    CARTESIAN Y     0.277391      0.073493  KCAL/ANGSTROM
     12          4  C    CARTESIAN Z    -1.300237      0.174829  KCAL/ANGSTROM
     13          5  C    CARTESIAN X    -1.519948      0.198357  KCAL/ANGSTROM
     14          5  C    CARTESIAN Y    -1.047596      0.000639  KCAL/ANGSTROM
     15          5  C    CARTESIAN Z    -0.743226      0.005673  KCAL/ANGSTROM
     16          6  C    CARTESIAN X    -1.173811     -0.210110  KCAL/ANGSTROM
     17          6  C    CARTESIAN Y    -1.456767      0.148433  KCAL/ANGSTROM
     18          6  C    CARTESIAN Z     0.482709      0.159098  KCAL/ANGSTROM
     19          7  C    CARTESIAN X    -0.368518      0.179555  KCAL/ANGSTROM
     20          7  C    CARTESIAN Y    -0.552679     -0.041388  KCAL/ANGSTROM
     21          7  C    CARTESIAN Z     1.376774     -0.062483  KCAL/ANGSTROM
     22          8  O    CARTESIAN X    -1.246800     -0.128002  KCAL/ANGSTROM
     23          8  O    CARTESIAN Y     0.465528     -0.210670  KCAL/ANGSTROM
     24          8  O    CARTESIAN Z     1.871248     -0.291844  KCAL/ANGSTROM
     25          9  C    CARTESIAN X    -1.326908     -0.023608  KCAL/ANGSTROM
     26          9  C    CARTESIAN Y     1.507168     -0.041411  KCAL/ANGSTROM
     27          9  C    CARTESIAN Z     0.888666      0.053498  KCAL/ANGSTROM
     28         10  H    CARTESIAN X     1.085754     -0.292132  KCAL/ANGSTROM
     29         10  H    CARTESIAN Y    -1.293076      0.189009  KCAL/ANGSTROM
     30         10  H    CARTESIAN Z    -0.944201      0.032834  KCAL/ANGSTROM
     31         11  H    CARTESIAN X     2.280066     -0.093980  KCAL/ANGSTROM
     32         11  H    CARTESIAN Y    -1.184078     -0.075596  KCAL/ANGSTROM
     33         11  H    CARTESIAN Z     0.349531      0.101282  KCAL/ANGSTROM
     34         12  H    CARTESIAN X     2.247964      0.054040  KCAL/ANGSTROM
     35         12  H    CARTESIAN Y     0.039614      0.009142  KCAL/ANGSTROM
     36         12  H    CARTESIAN Z    -0.929844      0.104547  KCAL/ANGSTROM
     37         13  H    CARTESIAN X     1.260712     -0.089223  KCAL/ANGSTROM
     38         13  H    CARTESIAN Y     0.901584      0.150281  KCAL/ANGSTROM
     39         13  H    CARTESIAN Z     1.222489     -0.023937  KCAL/ANGSTROM
     40         14  H    CARTESIAN X     0.127100     -0.035968  KCAL/ANGSTROM
     41         14  H    CARTESIAN Y     2.005570     -0.059860  KCAL/ANGSTROM
     42         14  H    CARTESIAN Z    -0.712403     -0.074113  KCAL/ANGSTROM
     43         15  H    CARTESIAN X    -0.429023     -0.107823  KCAL/ANGSTROM
     44         15  H    CARTESIAN Y     0.113179      0.069917  KCAL/ANGSTROM
     45         15  H    CARTESIAN Z    -2.179913     -0.058457  KCAL/ANGSTROM
     46         16  H    CARTESIAN X    -1.962857     -0.027643  KCAL/ANGSTROM
     47         16  H    CARTESIAN Y     0.834358      0.047909  KCAL/ANGSTROM
     48         16  H    CARTESIAN Z    -1.685785      0.021866  KCAL/ANGSTROM
     49         17  H    CARTESIAN X    -2.125792     -0.048510  KCAL/ANGSTROM
     50         17  H    CARTESIAN Y    -1.654672     -0.164791  KCAL/ANGSTROM
     51         17  H    CARTESIAN Z    -1.410756      0.027076  KCAL/ANGSTROM
     52         18  H    CARTESIAN X    -1.473541      0.032544  KCAL/ANGSTROM
     53         18  H    CARTESIAN Y    -2.409054     -0.061031  KCAL/ANGSTROM
     54         18  H    CARTESIAN Z     0.900483     -0.067066  KCAL/ANGSTROM
     55         19  H    CARTESIAN X     0.033497      0.001148  KCAL/ANGSTROM
     56         19  H    CARTESIAN Y    -1.038086      0.001153  KCAL/ANGSTROM
     57         19  H    CARTESIAN Z     2.280059      0.158840  KCAL/ANGSTROM
     58         20  H    CARTESIAN X    -1.041760      0.064489  KCAL/ANGSTROM
     59         20  H    CARTESIAN Y     2.430080     -0.025507  KCAL/ANGSTROM
     60         20  H    CARTESIAN Z     1.415113     -0.011397  KCAL/ANGSTROM
     61         21  H    CARTESIAN X    -2.378071     -0.041319  KCAL/ANGSTROM
     62         21  H    CARTESIAN Y     1.558649      0.068794  KCAL/ANGSTROM
     63         21  H    CARTESIAN Z     0.572476     -0.024195  KCAL/ANGSTROM




   ATOM   CHEMICAL          X               Y               Z
  NUMBER   SYMBOL      (ANGSTROMS)     (ANGSTROMS)     (ANGSTROMS)

     1       C          1.61710826  *  -0.58915772  *  -0.29108905  *
     2       C          0.66659750  *   0.25023334  *   0.54025527  *
     3       C         -0.34758018  *   1.12653062  *  -0.24802281  *
     4       C         -1.08498388  *   0.27739084  *  -1.30023745  *
     5       C         -1.51994849  *  -1.04759610  *  -0.74322558  *
     6       C         -1.17381147  *  -1.45676667  *   0.48270943  *
     7       C         -0.36851821  *  -0.55267872  *   1.37677417  *
     8       O         -1.24679999  *   0.46552812  *   1.87124843  *
     9       C         -1.32690833  *   1.50716768  *   0.88866566  *
    10       H          1.08575423  *  -1.29307631  *  -0.94420126  *
    11       H          2.28006570  *  -1.18407767  *   0.34953062  *
    12       H          2.24796369  *   0.03961354  *  -0.92984407  *
    13       H          1.26071208  *   0.90158363  *   1.22248889  *
    14       H          0.12710044  *   2.00557003  *  -0.71240294  *
    15       H         -0.42902328  *   0.11317879  *  -2.17991270  *
    16       H         -1.96285727  *   0.83435798  *  -1.68578515  *
    17       H         -2.12579239  *  -1.65467224  *  -1.41075585  *
    18       H         -1.47354065  *  -2.40905439  *   0.90048302  *
    19       H          0.03349664  *  -1.03808554  *   2.28005896  *
    20       H         -1.04175992  *   2.43008018  *   1.41511293  *
    21       H         -2.37807097  *   1.55864891  *   0.57247631  *

                             CARTESIAN COORDINATES

   1    C        1.617108257    -0.589157721    -0.291089046
   2    C        0.666597502     0.250233341     0.540255270
   3    C       -0.347580177     1.126530619    -0.248022813
   4    C       -1.084983881     0.277390837    -1.300237447
   5    C       -1.519948491    -1.047596099    -0.743225575
   6    C       -1.173811474    -1.456766674     0.482709428
   7    C       -0.368518212    -0.552678723     1.376774166
   8    O       -1.246799988     0.465528125     1.871248430
   9    C       -1.326908332     1.507167684     0.888665655
  10    H        1.085754226    -1.293076307    -0.944201259
  11    H        2.280065697    -1.184077671     0.349530622
  12    H        2.247963695     0.039613541    -0.929844066
  13    H        1.260712077     0.901583630     1.222488891
  14    H        0.127100435     2.005570031    -0.712402938
  15    H       -0.429023281     0.113178789    -2.179912696
  16    H       -1.962857271     0.834357981    -1.685785146
  17    H       -2.125792386    -1.654672240    -1.410755848
  18    H       -1.473540648    -2.409054389     0.900483019
  19    H        0.033496636    -1.038085543     2.280058959
  20    H       -1.041759917     2.430080177     1.415112926
  21    H       -2.378070972     1.558648910     0.572476306


           Empirical Formula: C8 H12 O  =    21 atoms



      MOLECULAR POINT GROUP   :   C1  


                  EIGENVALUES  
 -31.61141 -28.01924 -26.51010 -26.33093 -23.80344 -22.88875 -20.43312 -19.75879
 -17.98173 -17.37735 -15.82359 -15.17975 -14.81616 -14.57461 -13.93051 -13.66791
 -13.57220 -13.25695 -12.68061 -11.94433 -11.75763 -11.27227 -11.12922  -9.84572
  -9.58975   0.95018   2.63280   3.36580   3.71768   3.94736   4.28116   4.44465
   4.60935   4.79462   4.94710   5.49791   5.61662   5.74606   5.76734   5.83018
   5.97381   6.07295   6.14942   6.19547   6.28952   6.32024   6.46284   6.94685


              NET ATOMIC CHARGES AND DIPOLE CONTRIBUTIONS

  ATOM NO.   TYPE          CHARGE      No. of ELECS.   s-Pop       p-Pop       
    1          C          -0.448266        4.4483     1.05122     3.39704
    2          C          -0.136623        4.1366     1.07303     3.06359
    3          C          -0.146650        4.1467     1.07727     3.06938
    4          C          -0.284921        4.2849     1.05834     3.22658
    5          C          -0.126395        4.1264     1.09191     3.03448
    6          C          -0.211058        4.2111     1.09683     3.11423
    7          C           0.106484        3.8935     1.09306     2.80046
    8          O          -0.404408        6.4044     1.89017     4.51424
    9          C          -0.056543        4.0565     1.09658     2.95996
   10          H           0.156257        0.8437     0.84374
   11          H           0.147398        0.8526     0.85260
   12          H           0.145617        0.8544     0.85438
   13          H           0.142692        0.8573     0.85731
   14          H           0.137687        0.8623     0.86231
   15          H           0.148718        0.8513     0.85128
   16          H           0.147106        0.8529     0.85289
   17          H           0.139114        0.8609     0.86089
   18          H           0.148095        0.8519     0.85191
   19          H           0.137423        0.8626     0.86258
   20          H           0.126046        0.8740     0.87395
   21          H           0.132226        0.8678     0.86777
 DIPOLE           X         Y         Z       TOTAL
 POINT-CHG.     1.185     0.238    -2.054     2.383
 HYBRID        -0.162    -0.005    -0.008     0.162
 SUM            1.024     0.233    -2.062     2.314


          ATOMIC ORBITAL ELECTRON POPULATIONS

     Atom    s        px        py        pz   
    1  C   1.05122   1.12025   1.13671   1.14008
    2  C   1.07303   1.00115   1.02936   1.03308
    3  C   1.07727   1.01216   1.05116   1.00606
    4  C   1.05834   1.11981   1.03483   1.07194
    5  C   1.09191   1.00865   1.00414   1.02170
    6  C   1.09683   1.03496   1.06762   1.01165
    7  C   1.09306   0.90292   0.89260   1.00493
    8  O   1.89017   1.70788   1.37158   1.43478
    9  C   1.09658   1.08114   0.94703   0.93179
   10  H   0.84374
   11  H   0.85260
   12  H   0.85438
   13  H   0.85731
   14  H   0.86231
   15  H   0.85128
   16  H   0.85289
   17  H   0.86089
   18  H   0.85191
   19  H   0.86258
   20  H   0.87395
   21  H   0.86777

 **********************
 *                    *
 * JOB ENDED NORMALLY *
 *                    *
 **********************



 TOTAL JOB TIME:             1.44 SECONDS

 == MOPAC DONE ==
