 *******************************************************************************
 **                                                                           **
 **                              MOPAC v23.2                                  **
 **                                                                           **
 *******************************************************************************
 **          Digital Object Identifier (DOI): 10.5281/zenodo.6511958          **
 **    Visit the DOI location for information on how to cite this program.    **
 *******************************************************************************

                              PM7 CALCULATION RESULTS

 *******************************************************************************
 *  CALCULATION DONE: (MAX THREADS = 40)             Fri Sep 19 21:32:22 2025  *
 *  PM7        - The PM7 Hamiltonian to be used
 *  EPS=37.5   - USE ANDREAS KLAMT'S COSMO IMPLICIT SOLVATION MODEL
 *  1SCF       - DO 1 SCF AND THEN STOP 
 *  T=         - A TIME OF 172800.0 SECONDS REQUESTED
 *  DUMP=N     - RESTART FILE WRITTEN EVERY 7200.0 SECONDS REQUESTED
 *  RELSCF     - DEFAULT SCF CRITERION MULTIPLIED BY 0.0001
 *              (DEFAULT SCF CRITERION = 0.00010)
 *  GRADIENTS  - ALL GRADIENTS TO BE PRINTED
 *  DISP       - PRINT DISPERSION AND HYDROGEN BOND ENERGIES
 *******************************************************************************
PM7 1SCF GRADIENTS EPS=37.5 DISP RELSCF=0.0001
 Title: ASE calculation

   ATOM   CHEMICAL          X               Y               Z
  NUMBER   SYMBOL      (ANGSTROMS)     (ANGSTROMS)     (ANGSTROMS)

     1       C         -0.68737054  *  -1.67015623  *  -0.11028414  *
     2       C         -0.63510541  *  -0.22996279  *   0.42377557  *
     3       C         -1.89826623  *   0.01783715  *   1.28308540  *
     4       O         -1.94863510  *   1.34722539  *   1.75566938  *
     5       C          0.58582027  *  -0.09003864  *   1.28905377  *
     6       C          1.67983935  *   0.58430485  *   0.92496452  *
     7       C          1.81268374  *   1.30970333  *  -0.37396664  *
     8       C          0.75483735  *   0.86621534  *  -1.39413409  *
     9       C         -0.62483318  *   0.78591328  *  -0.73536577  *
    10       H         -0.73628572  *  -2.40208383  *   0.70284686  *
    11       H         -1.55369495  *  -1.82856440  *  -0.76012410  *
    12       H          0.21029535  *  -1.89809634  *  -0.69815422  *
    13       H         -2.82643624  *  -0.07227830  *   0.69009483  *
    14       H         -1.94985567  *  -0.66159294  *   2.15151202  *
    15       H         -1.08988303  *   1.60580588  *   2.14807528  *
    16       H          0.52773810  *  -0.60632767  *   2.24555239  *
    17       H          2.54920040  *   0.65382986  *   1.57766101  *
    18       H          2.82643624  *   1.15904704  *  -0.79724148  *
    19       H          1.72455362  *   2.40208383  *  -0.18960014  *
    20       H          1.02974580  *  -0.11716651  *  -1.81827269  *
    21       H          0.72974003  *   1.56960585  *  -2.24555239  *
    22       H         -1.39508283  *   0.52194883  *  -1.48134572  *
    23       H         -0.91403299  *   1.78616871  *  -0.35110959  *



          CARTESIAN COORDINATES 

    NO.       ATOM           X           Y           Z

     1         C         -0.6874     -1.6702     -0.1103
     2         C         -0.6351     -0.2300      0.4238
     3         C         -1.8983      0.0178      1.2831
     4         O         -1.9486      1.3472      1.7557
     5         C          0.5858     -0.0900      1.2891
     6         C          1.6798      0.5843      0.9250
     7         C          1.8127      1.3097     -0.3740
     8         C          0.7548      0.8662     -1.3941
     9         C         -0.6248      0.7859     -0.7354
    10         H         -0.7363     -2.4021      0.7028
    11         H         -1.5537     -1.8286     -0.7601
    12         H          0.2103     -1.8981     -0.6982
    13         H         -2.8264     -0.0723      0.6901
    14         H         -1.9499     -0.6616      2.1515
    15         H         -1.0899      1.6058      2.1481
    16         H          0.5277     -0.6063      2.2456
    17         H          2.5492      0.6538      1.5777
    18         H          2.8264      1.1590     -0.7972
    19         H          1.7246      2.4021     -0.1896
    20         H          1.0297     -0.1172     -1.8183
    21         H          0.7297      1.5696     -2.2456
    22         H         -1.3951      0.5219     -1.4813
    23         H         -0.9140      1.7862     -0.3511

 General Reference for PM7:
 "Optimization of Parameters for Semiempirical Methods VI: More Modifications to the 
 NDDO Approximations and Re-optimization of Parameters", J. J. P. Stewart, J. Mol. Mod., 1:32, 19 (2013)
 https://link.springer.com/article/10.1007/s00894-012-1667-x

           Empirical Formula: C8 H14 O  =    23 atoms



      MOLECULAR POINT GROUP   :   C1  


      RHF CALCULATION, NO. OF DOUBLY OCCUPIED LEVELS = 26

  SCF CRITERION =    0.1000E-07

 -------------------------------------------------------------------------------
 PM7 1SCF GRADIENTS EPS=37.5 DISP RELSCF=0.0001
 Title: ASE calculation



     1SCF WAS SPECIFIED, SO BFGS WAS NOT USED                 
     SCF FIELD WAS ACHIEVED                                   


                              PM7 CALCULATION
                                                       MOPAC v23.2 Linux
                                                       Fri Sep 19 21:32:23 2025




          FINAL HEAT OF FORMATION =        -60.54071 KCAL/MOL =    -253.30231 KJ/MOL

          TOTAL ENERGY            =     -33840.22050 KCAL/MOL = ELECTRONIC ENERGY + CORE-CORE REPULSION + SOLVATION ENERGY
          ENERGY OF ATOMS         =      33782.22825 KCAL/MOL
                              SUM =        -57.99226 KCAL/MOL
          DISPERSION ENERGY       =         -2.54845 KCAL/MOL
                              SUM =        -60.54071 KCAL/MOL = FINAL HEAT OF FORMATION

          VAN DER WAALS AREA      =        168.26 SQUARE ANGSTROMS


          TOTAL ENERGY            =      -1467.45085 EV
          ELECTRONIC ENERGY       =      -2473.89749 EV 
          CORE-CORE REPULSION     =       1006.44664 EV

          DIELECTRIC ENERGY       =         -0.25488 EV
          COSMO AREA              =        168.26 SQUARE ANGSTROMS
          COSMO VOLUME            =        176.60 CUBIC ANGSTROMS

          GRADIENT NORM           =          7.04472          =       1.46893 PER ATOM
          IONIZATION POTENTIAL    =          9.758549 EV
          HOMO LUMO ENERGIES (EV) =         -9.759  1.025
          NO. OF FILLED LEVELS    =         26
          MOLECULAR WEIGHT        =        126.1980         POINT GROUP:  C1  

          MOLECULAR DIMENSIONS (Angstroms)

            Atom       Atom       Distance
            H    18    H    13     5.97355
            H    16    H    21     4.67496
            H    15    H    12     4.48278


          SCF CALCULATIONS        =          2

          WALL-CLOCK TIME         =      0.977 SECONDS
          COMPUTATION TIME        =      0.538 SECONDS

          LARGEST ATOMIC GRADIENTS

          Atom     Label                     Cartesian Gradients           Cartesian Coordinates       |Gradient|
                                           X          Y          Z        X          Y          Z

             3       C                   1.145      3.158      2.832   -1.89827    0.01784    1.28309      4.394
            15       H                  -2.657     -1.914     -1.152   -1.08988    1.60581    2.14808      3.471
             4       O                   1.234     -1.022     -1.548   -1.94864    1.34723    1.75567      2.228
             1       C                  -0.487     -1.168     -0.413   -0.68737   -1.67016   -0.11028      1.331
             7       C                   0.830      0.874     -0.545    1.81268    1.30970   -0.37397      1.323
             9       C                   0.497     -0.962     -0.463   -0.62483    0.78591   -0.73537      1.177
            23       H                  -0.822      0.407      0.487   -0.91403    1.78617   -0.35111      1.038
            13       H                   0.037      0.705      0.731   -2.82644   -0.07228    0.69009      1.016
             6       C                   0.620     -0.285      0.445    1.67984    0.58430    0.92496      0.815
             2       C                   0.218     -0.434     -0.653   -0.63511   -0.22996    0.42378      0.814



       FINAL  POINT  AND  DERIVATIVES

   PARAMETER     ATOM    TYPE            VALUE        GRADIENT
      1          1  C    CARTESIAN X    -0.687371     -0.486614  KCAL/ANGSTROM
      2          1  C    CARTESIAN Y    -1.670156     -1.167617  KCAL/ANGSTROM
      3          1  C    CARTESIAN Z    -0.110284     -0.412731  KCAL/ANGSTROM
      4          2  C    CARTESIAN X    -0.635105      0.217860  KCAL/ANGSTROM
      5          2  C    CARTESIAN Y    -0.229963     -0.433541  KCAL/ANGSTROM
      6          2  C    CARTESIAN Z     0.423776     -0.653007  KCAL/ANGSTROM
      7          3  C    CARTESIAN X    -1.898266      1.145283  KCAL/ANGSTROM
      8          3  C    CARTESIAN Y     0.017837      3.158329  KCAL/ANGSTROM
      9          3  C    CARTESIAN Z     1.283085      2.832052  KCAL/ANGSTROM
     10          4  O    CARTESIAN X    -1.948635      1.234097  KCAL/ANGSTROM
     11          4  O    CARTESIAN Y     1.347225     -1.021973  KCAL/ANGSTROM
     12          4  O    CARTESIAN Z     1.755669     -1.547550  KCAL/ANGSTROM
     13          5  C    CARTESIAN X     0.585820      0.159369  KCAL/ANGSTROM
     14          5  C    CARTESIAN Y    -0.090039     -0.289371  KCAL/ANGSTROM
     15          5  C    CARTESIAN Z     1.289054      0.444271  KCAL/ANGSTROM
     16          6  C    CARTESIAN X     1.679839      0.620067  KCAL/ANGSTROM
     17          6  C    CARTESIAN Y     0.584305     -0.284570  KCAL/ANGSTROM
     18          6  C    CARTESIAN Z     0.924965      0.445310  KCAL/ANGSTROM
     19          7  C    CARTESIAN X     1.812684      0.829529  KCAL/ANGSTROM
     20          7  C    CARTESIAN Y     1.309703      0.874472  KCAL/ANGSTROM
     21          7  C    CARTESIAN Z    -0.373967     -0.545404  KCAL/ANGSTROM
     22          8  C    CARTESIAN X     0.754837      0.111695  KCAL/ANGSTROM
     23          8  C    CARTESIAN Y     0.866215     -0.059449  KCAL/ANGSTROM
     24          8  C    CARTESIAN Z    -1.394134     -0.607301  KCAL/ANGSTROM
     25          9  C    CARTESIAN X    -0.624833      0.496608  KCAL/ANGSTROM
     26          9  C    CARTESIAN Y     0.785913     -0.961874  KCAL/ANGSTROM
     27          9  C    CARTESIAN Z    -0.735366     -0.462523  KCAL/ANGSTROM
     28         10  H    CARTESIAN X    -0.736286      0.325568  KCAL/ANGSTROM
     29         10  H    CARTESIAN Y    -2.402084      0.301120  KCAL/ANGSTROM
     30         10  H    CARTESIAN Z     0.702847     -0.269903  KCAL/ANGSTROM
     31         11  H    CARTESIAN X    -1.553695      0.660860  KCAL/ANGSTROM
     32         11  H    CARTESIAN Y    -1.828564      0.183270  KCAL/ANGSTROM
     33         11  H    CARTESIAN Z    -0.760124      0.154498  KCAL/ANGSTROM
     34         12  H    CARTESIAN X     0.210295      0.130031  KCAL/ANGSTROM
     35         12  H    CARTESIAN Y    -1.898096      0.257513  KCAL/ANGSTROM
     36         12  H    CARTESIAN Z    -0.698154      0.249814  KCAL/ANGSTROM
     37         13  H    CARTESIAN X    -2.826436      0.037167  KCAL/ANGSTROM
     38         13  H    CARTESIAN Y    -0.072278      0.704726  KCAL/ANGSTROM
     39         13  H    CARTESIAN Z     0.690095      0.731192  KCAL/ANGSTROM
     40         14  H    CARTESIAN X    -1.949856     -0.533963  KCAL/ANGSTROM
     41         14  H    CARTESIAN Y    -0.661593      0.154122  KCAL/ANGSTROM
     42         14  H    CARTESIAN Z     2.151512     -0.452599  KCAL/ANGSTROM
     43         15  H    CARTESIAN X    -1.089883     -2.656608  KCAL/ANGSTROM
     44         15  H    CARTESIAN Y     1.605806     -1.914353  KCAL/ANGSTROM
     45         15  H    CARTESIAN Z     2.148075     -1.151522  KCAL/ANGSTROM
     46         16  H    CARTESIAN X     0.527738      0.096882  KCAL/ANGSTROM
     47         16  H    CARTESIAN Y    -0.606328      0.240235  KCAL/ANGSTROM
     48         16  H    CARTESIAN Z     2.245552     -0.372678  KCAL/ANGSTROM
     49         17  H    CARTESIAN X     2.549200     -0.532426  KCAL/ANGSTROM
     50         17  H    CARTESIAN Y     0.653830     -0.090908  KCAL/ANGSTROM
     51         17  H    CARTESIAN Z     1.577661     -0.377982  KCAL/ANGSTROM
     52         18  H    CARTESIAN X     2.826436     -0.492731  KCAL/ANGSTROM
     53         18  H    CARTESIAN Y     1.159047     -0.556878  KCAL/ANGSTROM
     54         18  H    CARTESIAN Z    -0.797241      0.131130  KCAL/ANGSTROM
     55         19  H    CARTESIAN X     1.724554     -0.236313  KCAL/ANGSTROM
     56         19  H    CARTESIAN Y     2.402084     -0.418553  KCAL/ANGSTROM
     57         19  H    CARTESIAN Z    -0.189600      0.052019  KCAL/ANGSTROM
     58         20  H    CARTESIAN X     1.029746     -0.148011  KCAL/ANGSTROM
     59         20  H    CARTESIAN Y    -0.117167      0.495179  KCAL/ANGSTROM
     60         20  H    CARTESIAN Z    -1.818273      0.205542  KCAL/ANGSTROM
     61         21  H    CARTESIAN X     0.729740     -0.116543  KCAL/ANGSTROM
     62         21  H    CARTESIAN Y     1.569606     -0.189200  KCAL/ANGSTROM
     63         21  H    CARTESIAN Z    -2.245552      0.711666  KCAL/ANGSTROM
     64         22  H    CARTESIAN X    -1.395083     -0.040131  KCAL/ANGSTROM
     65         22  H    CARTESIAN Y     0.521949      0.612263  KCAL/ANGSTROM
     66         22  H    CARTESIAN Z    -1.481346      0.409106  KCAL/ANGSTROM
     67         23  H    CARTESIAN X    -0.914033     -0.821675  KCAL/ANGSTROM
     68         23  H    CARTESIAN Y     1.786169      0.407055  KCAL/ANGSTROM
     69         23  H    CARTESIAN Z    -0.351110      0.486597  KCAL/ANGSTROM




   ATOM   CHEMICAL          X               Y               Z
  NUMBER   SYMBOL      (ANGSTROMS)     (ANGSTROMS)     (ANGSTROMS)

     1       C         -0.68737054  *  -1.67015623  *  -0.11028414  *
     2       C         -0.63510541  *  -0.22996279  *   0.42377557  *
     3       C         -1.89826623  *   0.01783715  *   1.28308540  *
     4       O         -1.94863510  *   1.34722539  *   1.75566938  *
     5       C          0.58582027  *  -0.09003864  *   1.28905377  *
     6       C          1.67983935  *   0.58430485  *   0.92496452  *
     7       C          1.81268374  *   1.30970333  *  -0.37396664  *
     8       C          0.75483735  *   0.86621534  *  -1.39413409  *
     9       C         -0.62483318  *   0.78591328  *  -0.73536577  *
    10       H         -0.73628572  *  -2.40208383  *   0.70284686  *
    11       H         -1.55369495  *  -1.82856440  *  -0.76012410  *
    12       H          0.21029535  *  -1.89809634  *  -0.69815422  *
    13       H         -2.82643624  *  -0.07227830  *   0.69009483  *
    14       H         -1.94985567  *  -0.66159294  *   2.15151202  *
    15       H         -1.08988303  *   1.60580588  *   2.14807528  *
    16       H          0.52773810  *  -0.60632767  *   2.24555239  *
    17       H          2.54920040  *   0.65382986  *   1.57766101  *
    18       H          2.82643624  *   1.15904704  *  -0.79724148  *
    19       H          1.72455362  *   2.40208383  *  -0.18960014  *
    20       H          1.02974580  *  -0.11716651  *  -1.81827269  *
    21       H          0.72974003  *   1.56960585  *  -2.24555239  *
    22       H         -1.39508283  *   0.52194883  *  -1.48134572  *
    23       H         -0.91403299  *   1.78616871  *  -0.35110959  *

                             CARTESIAN COORDINATES

   1    C       -0.687370545    -1.670156230    -0.110284142
   2    C       -0.635105405    -0.229962793     0.423775568
   3    C       -1.898266226     0.017837150     1.283085396
   4    O       -1.948635102     1.347225388     1.755669380
   5    C        0.585820274    -0.090038643     1.289053768
   6    C        1.679839349     0.584304846     0.924964522
   7    C        1.812683740     1.309703334    -0.373966645
   8    C        0.754837352     0.866215342    -1.394134086
   9    C       -0.624833179     0.785913278    -0.735365773
  10    H       -0.736285722    -2.402083830     0.702846864
  11    H       -1.553694951    -1.828564397    -0.760124103
  12    H        0.210295353    -1.898096342    -0.698154220
  13    H       -2.826436239    -0.072278305     0.690094826
  14    H       -1.949855672    -0.661592944     2.151512022
  15    H       -1.089883033     1.605805877     2.148075276
  16    H        0.527738099    -0.606327671     2.245552387
  17    H        2.549200405     0.653829864     1.577661008
  18    H        2.826436239     1.159047039    -0.797241476
  19    H        1.724553618     2.402083830    -0.189600141
  20    H        1.029745796    -0.117166510    -1.818272688
  21    H        0.729740026     1.569605854    -2.245552387
  22    H       -1.395082831     0.521948834    -1.481345725
  23    H       -0.914032987     1.786168708    -0.351109592


           Empirical Formula: C8 H14 O  =    23 atoms



      MOLECULAR POINT GROUP   :   C1  


                  EIGENVALUES  
 -30.85653 -29.04215 -27.26565 -25.82066 -23.48999 -23.29259 -20.86769 -20.11794
 -17.59852 -17.13957 -16.28240 -15.49891 -15.21973 -14.82661 -14.28737 -13.59301
 -13.52697 -13.32519 -12.85144 -12.59404 -12.16494 -11.58497 -11.27433 -10.92154
 -10.63112  -9.75855   1.02526   2.84344   3.69912   3.86782   4.18983   4.28755
   4.50875   4.75601   5.05131   5.51519   5.60204   5.79823   5.84168   5.86419
   5.92862   5.94849   6.17406   6.18593   6.27391   6.35205   6.56693   6.66335
   6.75482   7.06579


              NET ATOMIC CHARGES AND DIPOLE CONTRIBUTIONS

  ATOM NO.   TYPE          CHARGE      No. of ELECS.   s-Pop       p-Pop       
    1          C          -0.464620        4.4646     1.05809     3.40653
    2          C           0.034022        3.9660     1.05901     2.90697
    3          C          -0.012305        4.0123     1.09609     2.91621
    4          O          -0.626118        6.6261     1.84289     4.78323
    5          C          -0.214551        4.2146     1.09429     3.12026
    6          C          -0.145561        4.1456     1.09251     3.05305
    7          C          -0.283710        4.2837     1.05434     3.22937
    8          C          -0.264674        4.2647     1.05760     3.20707
    9          C          -0.284345        4.2843     1.06299     3.22135
   10          H           0.152086        0.8479     0.84791
   11          H           0.154158        0.8458     0.84584
   12          H           0.156325        0.8437     0.84367
   13          H           0.144529        0.8555     0.85547
   14          H           0.129907        0.8701     0.87009
   15          H           0.354217        0.6458     0.64578
   16          H           0.150443        0.8496     0.84956
   17          H           0.146068        0.8539     0.85393
   18          H           0.149544        0.8505     0.85046
   19          H           0.156275        0.8437     0.84372
   20          H           0.140947        0.8591     0.85905
   21          H           0.136881        0.8631     0.86312
   22          H           0.140397        0.8596     0.85960
   23          H           0.150084        0.8499     0.84992
 DIPOLE           X         Y         Z       TOTAL
 POINT-CHG.     1.556    -1.654    -0.771     2.399
 HYBRID         0.289     0.263     0.162     0.423
 SUM            1.845    -1.391    -0.610     2.390


          ATOMIC ORBITAL ELECTRON POPULATIONS

     Atom    s        px        py        pz   
    1  C   1.05809   1.18706   1.05292   1.16655
    2  C   1.05901   0.96494   0.96689   0.97513
    3  C   1.09609   1.05808   0.79835   1.05979
    4  O   1.84289   1.52010   1.41332   1.84981
    5  C   1.09429   1.00383   1.04586   1.07056
    6  C   1.09251   1.04278   0.99039   1.01988
    7  C   1.05434   1.09579   1.11754   1.01604
    8  C   1.05760   0.99934   1.15212   1.05561
    9  C   1.06299   1.04569   1.10969   1.06598
   10  H   0.84791
   11  H   0.84584
   12  H   0.84367
   13  H   0.85547
   14  H   0.87009
   15  H   0.64578
   16  H   0.84956
   17  H   0.85393
   18  H   0.85046
   19  H   0.84372
   20  H   0.85905
   21  H   0.86312
   22  H   0.85960
   23  H   0.84992

 **********************
 *                    *
 * JOB ENDED NORMALLY *
 *                    *
 **********************



 TOTAL JOB TIME:             1.40 SECONDS

 == MOPAC DONE ==
