 *******************************************************************************
 **                                                                           **
 **                              MOPAC v23.2                                  **
 **                                                                           **
 *******************************************************************************
 **          Digital Object Identifier (DOI): 10.5281/zenodo.6511958          **
 **    Visit the DOI location for information on how to cite this program.    **
 *******************************************************************************

                              PM7 CALCULATION RESULTS

 *******************************************************************************
 *  CALCULATION DONE: (MAX THREADS = 40)             Fri Sep 19 21:29:01 2025  *
 *  PM7        - The PM7 Hamiltonian to be used
 *  1SCF       - DO 1 SCF AND THEN STOP 
 *  T=         - A TIME OF 172800.0 SECONDS REQUESTED
 *  DUMP=N     - RESTART FILE WRITTEN EVERY 7200.0 SECONDS REQUESTED
 *  RELSCF     - DEFAULT SCF CRITERION MULTIPLIED BY 0.0001
 *              (DEFAULT SCF CRITERION = 0.00010)
 *  GRADIENTS  - ALL GRADIENTS TO BE PRINTED
 *  DISP       - PRINT DISPERSION AND HYDROGEN BOND ENERGIES
 *******************************************************************************
PM7 1SCF GRADIENTS DISP RELSCF=0.0001
 Title: ASE calculation

   ATOM   CHEMICAL          X               Y               Z
  NUMBER   SYMBOL      (ANGSTROMS)     (ANGSTROMS)     (ANGSTROMS)

     1       C         -1.49944031  *   1.76262873  *  -0.18809931  *
     2       C         -0.91026695  *   0.49717702  *   0.41795926  *
     3       C         -1.56985350  *  -0.78831653  *  -0.12204460  *
     4       C         -0.42784115  *  -1.81093966  *  -0.15977235  *
     5       O          0.79564013  *  -1.13162723  *   0.10009686  *
     6       C          0.59553758  *   0.28387283  *   0.12126049  *
     7       C          1.50813441  *   0.80601740  *   1.22252284  *
     8       C          1.03258193  *   0.80358229  *  -1.26492368  *
     9       O          2.34160365  *   0.36758798  *  -1.56329186  *
    10       H         -1.46569252  *   1.76198894  *  -1.28353797  *
    11       H         -2.55199579  *   1.88106192  *   0.09837757  *
    12       H         -0.96638851  *   2.65639839  *   0.15886618  *
    13       H         -1.04685676  *   0.53485464  *   1.52610002  *
    14       H         -2.39876672  *  -1.11428437  *   0.52423496  *
    15       H         -2.00268351  *  -0.63164830  *  -1.12353753  *
    16       H         -0.49959340  *  -2.57366020  *   0.63369579  *
    17       H         -0.31259105  *  -2.29847016  *  -1.14089977  *
    18       H          1.33395903  *   1.86884258  *   1.41605414  *
    19       H          2.56573000  *   0.68458923  *   0.94178105  *
    20       H          1.36039499  *   0.25173939  *   2.15763913  *
    21       H          0.36038730  *   0.44578911  *  -2.06388002  *
    22       H          1.10800092  *   1.90345187  *  -1.29361395  *
    23       H          2.43158936  *  -0.58045365  *  -1.31548344  *



          CARTESIAN COORDINATES 

    NO.       ATOM           X           Y           Z

     1         C         -1.4994      1.7626     -0.1881
     2         C         -0.9103      0.4972      0.4180
     3         C         -1.5699     -0.7883     -0.1220
     4         C         -0.4278     -1.8109     -0.1598
     5         O          0.7956     -1.1316      0.1001
     6         C          0.5955      0.2839      0.1213
     7         C          1.5081      0.8060      1.2225
     8         C          1.0326      0.8036     -1.2649
     9         O          2.3416      0.3676     -1.5633
    10         H         -1.4657      1.7620     -1.2835
    11         H         -2.5520      1.8811      0.0984
    12         H         -0.9664      2.6564      0.1589
    13         H         -1.0469      0.5349      1.5261
    14         H         -2.3988     -1.1143      0.5242
    15         H         -2.0027     -0.6316     -1.1235
    16         H         -0.4996     -2.5737      0.6337
    17         H         -0.3126     -2.2985     -1.1409
    18         H          1.3340      1.8688      1.4161
    19         H          2.5657      0.6846      0.9418
    20         H          1.3604      0.2517      2.1576
    21         H          0.3604      0.4458     -2.0639
    22         H          1.1080      1.9035     -1.2936
    23         H          2.4316     -0.5805     -1.3155

 General Reference for PM7:
 "Optimization of Parameters for Semiempirical Methods VI: More Modifications to the 
 NDDO Approximations and Re-optimization of Parameters", J. J. P. Stewart, J. Mol. Mod., 1:32, 19 (2013)
 https://link.springer.com/article/10.1007/s00894-012-1667-x

           Empirical Formula: C7 H14 O2  =    23 atoms



      MOLECULAR POINT GROUP   :   C1  


      RHF CALCULATION, NO. OF DOUBLY OCCUPIED LEVELS = 27

  SCF CRITERION =    0.1000E-07

 -------------------------------------------------------------------------------
 PM7 1SCF GRADIENTS DISP RELSCF=0.0001
 Title: ASE calculation



     1SCF WAS SPECIFIED, SO BFGS WAS NOT USED                 
     SCF FIELD WAS ACHIEVED                                   


                              PM7 CALCULATION
                                                       MOPAC v23.2 Linux
                                                       Fri Sep 19 21:29:01 2025




          FINAL HEAT OF FORMATION =       -110.70125 KCAL/MOL =    -463.17405 KJ/MOL

          TOTAL ENERGY            =     -37819.96407 KCAL/MOL = ELECTRONIC ENERGY + CORE-CORE REPULSION
          ENERGY OF ATOMS         =      37712.04263 KCAL/MOL
                              SUM =       -107.92144 KCAL/MOL
          DISPERSION ENERGY       =         -2.50723 KCAL/MOL
          H-BOND ENERGY           =         -0.27258 KCAL/MOL
                              SUM =       -110.70125 KCAL/MOL = FINAL HEAT OF FORMATION



          TOTAL ENERGY            =      -1640.02886 EV
          ELECTRONIC ENERGY       =      -8685.84611 EV 
          CORE-CORE REPULSION     =       7045.81724 EV
          COSMO AREA              =        168.02 SQUARE ANGSTROMS
          COSMO VOLUME            =        176.41 CUBIC ANGSTROMS

          GRADIENT NORM           =          0.99576          =       0.20763 PER ATOM
          IONIZATION POTENTIAL    =          9.788875 EV
          HOMO LUMO ENERGIES (EV) =         -9.789  2.109
          NO. OF FILLED LEVELS    =         27
          MOLECULAR WEIGHT        =        130.1864         POINT GROUP:  C1  

          MOLECULAR DIMENSIONS (Angstroms)

            Atom       Atom       Distance
            H    23    H    11     5.73535
            H    16    H    22     5.13234
            H    20    H    15     4.41347


          SCF CALCULATIONS        =          1

          WALL-CLOCK TIME         =      0.844 SECONDS
          COMPUTATION TIME        =      0.542 SECONDS

          LARGEST ATOMIC GRADIENTS

          Atom     Label                     Cartesian Gradients           Cartesian Coordinates       |Gradient|
                                           X          Y          Z        X          Y          Z

            14       H                   0.153      0.250      0.283   -2.39877   -1.11428    0.52423      0.407
            22       H                  -0.009     -0.320      0.227    1.10800    1.90345   -1.29361      0.392
             9       O                   0.213      0.191     -0.110    2.34160    0.36759   -1.56329      0.307
            16       H                  -0.149     -0.012      0.214   -0.49959   -2.57366    0.63370      0.261
             5       O                  -0.118      0.158     -0.145    0.79564   -1.13163    0.10010      0.245
            23       H                  -0.113      0.161     -0.100    2.43159   -0.58045   -1.31548      0.221
            19       H                   0.080     -0.200      0.001    2.56573    0.68459    0.94178      0.216
            21       H                  -0.130      0.165      0.004    0.36039    0.44579   -2.06388      0.210
            12       H                  -0.178     -0.091     -0.007   -0.96639    2.65640    0.15887      0.200
            18       H                  -0.177      0.023     -0.090    1.33396    1.86884    1.41605      0.199



       FINAL  POINT  AND  DERIVATIVES

   PARAMETER     ATOM    TYPE            VALUE        GRADIENT
      1          1  C    CARTESIAN X    -1.499440      0.030194  KCAL/ANGSTROM
      2          1  C    CARTESIAN Y     1.762629     -0.102167  KCAL/ANGSTROM
      3          1  C    CARTESIAN Z    -0.188099     -0.063063  KCAL/ANGSTROM
      4          2  C    CARTESIAN X    -0.910267      0.026147  KCAL/ANGSTROM
      5          2  C    CARTESIAN Y     0.497177     -0.003895  KCAL/ANGSTROM
      6          2  C    CARTESIAN Z     0.417959     -0.059626  KCAL/ANGSTROM
      7          3  C    CARTESIAN X    -1.569853     -0.010716  KCAL/ANGSTROM
      8          3  C    CARTESIAN Y    -0.788317     -0.069114  KCAL/ANGSTROM
      9          3  C    CARTESIAN Z    -0.122045     -0.053806  KCAL/ANGSTROM
     10          4  C    CARTESIAN X    -0.427841      0.009188  KCAL/ANGSTROM
     11          4  C    CARTESIAN Y    -1.810940     -0.073741  KCAL/ANGSTROM
     12          4  C    CARTESIAN Z    -0.159772      0.032624  KCAL/ANGSTROM
     13          5  O    CARTESIAN X     0.795640     -0.117579  KCAL/ANGSTROM
     14          5  O    CARTESIAN Y    -1.131627      0.158186  KCAL/ANGSTROM
     15          5  O    CARTESIAN Z     0.100097     -0.145069  KCAL/ANGSTROM
     16          6  C    CARTESIAN X     0.595538      0.027543  KCAL/ANGSTROM
     17          6  C    CARTESIAN Y     0.283873      0.098252  KCAL/ANGSTROM
     18          6  C    CARTESIAN Z     0.121260     -0.005357  KCAL/ANGSTROM
     19          7  C    CARTESIAN X     1.508134      0.046172  KCAL/ANGSTROM
     20          7  C    CARTESIAN Y     0.806017     -0.031346  KCAL/ANGSTROM
     21          7  C    CARTESIAN Z     1.222523      0.088570  KCAL/ANGSTROM
     22          8  C    CARTESIAN X     1.032582      0.138339  KCAL/ANGSTROM
     23          8  C    CARTESIAN Y     0.803582     -0.123772  KCAL/ANGSTROM
     24          8  C    CARTESIAN Z    -1.264924     -0.069828  KCAL/ANGSTROM
     25          9  O    CARTESIAN X     2.341604      0.213304  KCAL/ANGSTROM
     26          9  O    CARTESIAN Y     0.367588      0.191449  KCAL/ANGSTROM
     27          9  O    CARTESIAN Z    -1.563292     -0.109512  KCAL/ANGSTROM
     28         10  H    CARTESIAN X    -1.465693     -0.036843  KCAL/ANGSTROM
     29         10  H    CARTESIAN Y     1.761989      0.188946  KCAL/ANGSTROM
     30         10  H    CARTESIAN Z    -1.283538     -0.002104  KCAL/ANGSTROM
     31         11  H    CARTESIAN X    -2.551996      0.130795  KCAL/ANGSTROM
     32         11  H    CARTESIAN Y     1.881062     -0.022970  KCAL/ANGSTROM
     33         11  H    CARTESIAN Z     0.098378     -0.098574  KCAL/ANGSTROM
     34         12  H    CARTESIAN X    -0.966389     -0.177760  KCAL/ANGSTROM
     35         12  H    CARTESIAN Y     2.656398     -0.091349  KCAL/ANGSTROM
     36         12  H    CARTESIAN Z     0.158866     -0.006828  KCAL/ANGSTROM
     37         13  H    CARTESIAN X    -1.046857      0.015150  KCAL/ANGSTROM
     38         13  H    CARTESIAN Y     0.534855      0.019123  KCAL/ANGSTROM
     39         13  H    CARTESIAN Z     1.526100      0.011708  KCAL/ANGSTROM
     40         14  H    CARTESIAN X    -2.398767      0.152733  KCAL/ANGSTROM
     41         14  H    CARTESIAN Y    -1.114284      0.249992  KCAL/ANGSTROM
     42         14  H    CARTESIAN Z     0.524235      0.282824  KCAL/ANGSTROM
     43         15  H    CARTESIAN X    -2.002684      0.003268  KCAL/ANGSTROM
     44         15  H    CARTESIAN Y    -0.631648     -0.169878  KCAL/ANGSTROM
     45         15  H    CARTESIAN Z    -1.123538     -0.089476  KCAL/ANGSTROM
     46         16  H    CARTESIAN X    -0.499593     -0.149004  KCAL/ANGSTROM
     47         16  H    CARTESIAN Y    -2.573660     -0.012362  KCAL/ANGSTROM
     48         16  H    CARTESIAN Z     0.633696      0.214298  KCAL/ANGSTROM
     49         17  H    CARTESIAN X    -0.312591      0.107358  KCAL/ANGSTROM
     50         17  H    CARTESIAN Y    -2.298470      0.027934  KCAL/ANGSTROM
     51         17  H    CARTESIAN Z    -1.140900     -0.066273  KCAL/ANGSTROM
     52         18  H    CARTESIAN X     1.333959     -0.176582  KCAL/ANGSTROM
     53         18  H    CARTESIAN Y     1.868843      0.023145  KCAL/ANGSTROM
     54         18  H    CARTESIAN Z     1.416054     -0.089538  KCAL/ANGSTROM
     55         19  H    CARTESIAN X     2.565730      0.080246  KCAL/ANGSTROM
     56         19  H    CARTESIAN Y     0.684589     -0.200358  KCAL/ANGSTROM
     57         19  H    CARTESIAN Z     0.941781      0.001233  KCAL/ANGSTROM
     58         20  H    CARTESIAN X     1.360395     -0.060075  KCAL/ANGSTROM
     59         20  H    CARTESIAN Y     0.251739     -0.062051  KCAL/ANGSTROM
     60         20  H    CARTESIAN Z     2.157639      0.097757  KCAL/ANGSTROM
     61         21  H    CARTESIAN X     0.360387     -0.130319  KCAL/ANGSTROM
     62         21  H    CARTESIAN Y     0.445789      0.164611  KCAL/ANGSTROM
     63         21  H    CARTESIAN Z    -2.063880      0.003866  KCAL/ANGSTROM
     64         22  H    CARTESIAN X     1.108001     -0.008697  KCAL/ANGSTROM
     65         22  H    CARTESIAN Y     1.903452     -0.319938  KCAL/ANGSTROM
     66         22  H    CARTESIAN Z    -1.293614      0.226520  KCAL/ANGSTROM
     67         23  H    CARTESIAN X     2.431589     -0.112886  KCAL/ANGSTROM
     68         23  H    CARTESIAN Y    -0.580454      0.161304  KCAL/ANGSTROM
     69         23  H    CARTESIAN Z    -1.315483     -0.100329  KCAL/ANGSTROM




   ATOM   CHEMICAL          X               Y               Z
  NUMBER   SYMBOL      (ANGSTROMS)     (ANGSTROMS)     (ANGSTROMS)

     1       C         -1.49944031  *   1.76262873  *  -0.18809931  *
     2       C         -0.91026695  *   0.49717702  *   0.41795926  *
     3       C         -1.56985350  *  -0.78831653  *  -0.12204460  *
     4       C         -0.42784115  *  -1.81093966  *  -0.15977235  *
     5       O          0.79564013  *  -1.13162723  *   0.10009686  *
     6       C          0.59553758  *   0.28387283  *   0.12126049  *
     7       C          1.50813441  *   0.80601740  *   1.22252284  *
     8       C          1.03258193  *   0.80358229  *  -1.26492368  *
     9       O          2.34160365  *   0.36758798  *  -1.56329186  *
    10       H         -1.46569252  *   1.76198894  *  -1.28353797  *
    11       H         -2.55199579  *   1.88106192  *   0.09837757  *
    12       H         -0.96638851  *   2.65639839  *   0.15886618  *
    13       H         -1.04685676  *   0.53485464  *   1.52610002  *
    14       H         -2.39876672  *  -1.11428437  *   0.52423496  *
    15       H         -2.00268351  *  -0.63164830  *  -1.12353753  *
    16       H         -0.49959340  *  -2.57366020  *   0.63369579  *
    17       H         -0.31259105  *  -2.29847016  *  -1.14089977  *
    18       H          1.33395903  *   1.86884258  *   1.41605414  *
    19       H          2.56573000  *   0.68458923  *   0.94178105  *
    20       H          1.36039499  *   0.25173939  *   2.15763913  *
    21       H          0.36038730  *   0.44578911  *  -2.06388002  *
    22       H          1.10800092  *   1.90345187  *  -1.29361395  *
    23       H          2.43158936  *  -0.58045365  *  -1.31548344  *

                             CARTESIAN COORDINATES

   1    C       -1.499440307     1.762628734    -0.188099306
   2    C       -0.910266952     0.497177019     0.417959259
   3    C       -1.569853496    -0.788316532    -0.122044603
   4    C       -0.427841145    -1.810939661    -0.159772353
   5    O        0.795640127    -1.131627227     0.100096863
   6    C        0.595537579     0.283872832     0.121260492
   7    C        1.508134410     0.806017399     1.222522845
   8    C        1.032581932     0.803582286    -1.264923676
   9    O        2.341603650     0.367587976    -1.563291855
  10    H       -1.465692524     1.761988939    -1.283537975
  11    H       -2.551995791     1.881061918     0.098377571
  12    H       -0.966388511     2.656398388     0.158866182
  13    H       -1.046856756     0.534854638     1.526100022
  14    H       -2.398766722    -1.114284366     0.524234963
  15    H       -2.002683514    -0.631648303    -1.123537530
  16    H       -0.499593401    -2.573660200     0.633695794
  17    H       -0.312591051    -2.298470157    -1.140899770
  18    H        1.333959034     1.868842579     1.416054141
  19    H        2.565730002     0.684589225     0.941781050
  20    H        1.360394992     0.251739388     2.157639127
  21    H        0.360387295     0.445789112    -2.063880019
  22    H        1.108000921     1.903451871    -1.293613954
  23    H        2.431589360    -0.580453654    -1.315483443


           Empirical Formula: C7 H14 O2  =    23 atoms



      MOLECULAR POINT GROUP   :   C1  


                  EIGENVALUES  
 -31.22871 -29.00930 -27.94183 -26.76091 -24.79058 -23.60742 -22.38520 -20.46456
 -19.16734 -17.24908 -16.49486 -16.00763 -15.77775 -15.18372 -14.76313 -14.01546
 -13.95574 -13.36220 -13.25292 -12.92078 -12.81903 -12.21214 -11.89406 -11.70911
 -11.24287 -10.48973  -9.78888   2.10927   3.13247   3.37423   3.74435   3.90130
   4.07452   4.29640   4.47460   4.86627   5.14596   5.42103   5.47982   5.67550
   5.73160   5.83349   5.85161   5.92676   6.01974   6.02351   6.21095   6.55968
   6.69003   7.03485


              NET ATOMIC CHARGES AND DIPOLE CONTRIBUTIONS

  ATOM NO.   TYPE          CHARGE      No. of ELECS.   s-Pop       p-Pop       
    1          C          -0.452891        4.4529     1.05323     3.39966
    2          C          -0.133080        4.1331     1.07187     3.06121
    3          C          -0.325983        4.3260     1.07115     3.25484
    4          C          -0.029159        4.0292     1.08987     2.93929
    5          O          -0.440841        6.4408     1.88215     4.55869
    6          C           0.228513        3.7715     1.09769     2.67380
    7          C          -0.477852        4.4779     1.05873     3.41912
    8          C          -0.048756        4.0488     1.09418     2.95458
    9          O          -0.541647        6.5416     1.85294     4.68871
   10          H           0.149377        0.8506     0.85062
   11          H           0.149682        0.8503     0.85032
   12          H           0.150518        0.8495     0.84948
   13          H           0.147444        0.8526     0.85256
   14          H           0.145858        0.8541     0.85414
   15          H           0.147344        0.8527     0.85266
   16          H           0.131521        0.8685     0.86848
   17          H           0.124725        0.8753     0.87528
   18          H           0.151625        0.8484     0.84838
   19          H           0.173349        0.8267     0.82665
   20          H           0.159040        0.8410     0.84096
   21          H           0.121906        0.8781     0.87809
   22          H           0.141743        0.8583     0.85826
   23          H           0.327564        0.6724     0.67244
 DIPOLE           X         Y         Z       TOTAL
 POINT-CHG.    -3.454     0.502     0.773     3.575
 HYBRID         0.268    -0.383     0.048     0.470
 SUM           -3.185     0.119     0.821     3.292


          ATOMIC ORBITAL ELECTRON POPULATIONS

     Atom    s        px        py        pz   
    1  C   1.05323   1.15912   1.08106   1.15949
    2  C   1.07187   0.98994   0.96289   1.10837
    3  C   1.07115   1.07246   1.02412   1.15826
    4  C   1.08987   0.83649   0.98192   1.12088
    5  O   1.88215   1.35659   1.26440   1.93770
    6  C   1.09769   0.94090   0.77319   0.95971
    7  C   1.05873   1.15292   1.15237   1.11383
    8  C   1.09418   0.85019   1.08006   1.02433
    9  O   1.85294   1.37045   1.43193   1.88633
   10  H   0.85062
   11  H   0.85032
   12  H   0.84948
   13  H   0.85256
   14  H   0.85414
   15  H   0.85266
   16  H   0.86848
   17  H   0.87528
   18  H   0.84838
   19  H   0.82665
   20  H   0.84096
   21  H   0.87809
   22  H   0.85826
   23  H   0.67244

 **********************
 *                    *
 * JOB ENDED NORMALLY *
 *                    *
 **********************



 TOTAL JOB TIME:             1.48 SECONDS

 == MOPAC DONE ==
