 *******************************************************************************
 **                                                                           **
 **                              MOPAC v23.2                                  **
 **                                                                           **
 *******************************************************************************
 **          Digital Object Identifier (DOI): 10.5281/zenodo.6511958          **
 **    Visit the DOI location for information on how to cite this program.    **
 *******************************************************************************

                              PM7 CALCULATION RESULTS

 *******************************************************************************
 *  CALCULATION DONE: (MAX THREADS = 40)             Fri Sep 19 21:43:14 2025  *
 *  PM7        - The PM7 Hamiltonian to be used
 *  1SCF       - DO 1 SCF AND THEN STOP 
 *  T=         - A TIME OF 172800.0 SECONDS REQUESTED
 *  DUMP=N     - RESTART FILE WRITTEN EVERY 7200.0 SECONDS REQUESTED
 *  RELSCF     - DEFAULT SCF CRITERION MULTIPLIED BY 0.0001
 *              (DEFAULT SCF CRITERION = 0.00010)
 *  GRADIENTS  - ALL GRADIENTS TO BE PRINTED
 *  DISP       - PRINT DISPERSION AND HYDROGEN BOND ENERGIES
 *******************************************************************************
PM7 1SCF GRADIENTS DISP RELSCF=0.0001
 Title: ASE calculation

   ATOM   CHEMICAL          X               Y               Z
  NUMBER   SYMBOL      (ANGSTROMS)     (ANGSTROMS)     (ANGSTROMS)

     1       C          2.42620845  *  -0.96458233  *  -0.46618694  *
     2       C          1.22758128  *  -0.18440385  *   0.07070761  *
     3       C          1.18284605  *   1.21393301  *  -0.56885063  *
     4       O          0.09629750  *   2.02320808  *  -0.16022731  *
     5       C         -0.99054848  *   1.39762135  *   0.49601028  *
     6       C         -1.31445972  *   0.02395390  *  -0.04849875  *
     7       C         -2.44772773  *  -0.01269192  *  -1.03187628  *
     8       C         -1.06740968  *  -1.17424965  *   0.85093522  *
     9       C         -0.08738833  *  -0.86075763  *  -0.25642834  *
    10       H          2.38090225  *  -1.08740218  *  -1.55404455  *
    11       H          3.36918335  *  -0.45758444  *  -0.22969489  *
    12       H          2.47235821  *  -1.96719301  *  -0.02453992  *
    13       H          1.33590320  *  -0.07425529  *   1.17758516  *
    14       H          2.06315429  *   1.82265292  *  -0.29321646  *
    15       H          1.10374165  *   1.14774033  *  -1.67015982  *
    16       H         -0.75021975  *   1.37268240  *   1.57573726  *
    17       H         -1.80374291  *   2.13025143  *   0.32697621  *
    18       H         -2.61063665  *  -1.01564539  *  -1.44422221  *
    19       H         -3.39091074  *   0.30399974  *  -0.56730161  *
    20       H         -2.25298874  *   0.65943272  *  -1.88041417  *
    21       H         -1.71233182  *  -2.04371832  *   0.76323867  *
    22       H         -0.78326866  *  -1.03027804  *   1.88796415  *
    23       H         -0.04897423  *  -1.52629904  *  -1.11967272  *



          CARTESIAN COORDINATES 

    NO.       ATOM           X           Y           Z

     1         C          2.4262     -0.9646     -0.4662
     2         C          1.2276     -0.1844      0.0707
     3         C          1.1828      1.2139     -0.5689
     4         O          0.0963      2.0232     -0.1602
     5         C         -0.9905      1.3976      0.4960
     6         C         -1.3145      0.0240     -0.0485
     7         C         -2.4477     -0.0127     -1.0319
     8         C         -1.0674     -1.1742      0.8509
     9         C         -0.0874     -0.8608     -0.2564
    10         H          2.3809     -1.0874     -1.5540
    11         H          3.3692     -0.4576     -0.2297
    12         H          2.4724     -1.9672     -0.0245
    13         H          1.3359     -0.0743      1.1776
    14         H          2.0632      1.8227     -0.2932
    15         H          1.1037      1.1477     -1.6702
    16         H         -0.7502      1.3727      1.5757
    17         H         -1.8037      2.1303      0.3270
    18         H         -2.6106     -1.0156     -1.4442
    19         H         -3.3909      0.3040     -0.5673
    20         H         -2.2530      0.6594     -1.8804
    21         H         -1.7123     -2.0437      0.7632
    22         H         -0.7833     -1.0303      1.8880
    23         H         -0.0490     -1.5263     -1.1197

 General Reference for PM7:
 "Optimization of Parameters for Semiempirical Methods VI: More Modifications to the 
 NDDO Approximations and Re-optimization of Parameters", J. J. P. Stewart, J. Mol. Mod., 1:32, 19 (2013)
 https://link.springer.com/article/10.1007/s00894-012-1667-x

           Empirical Formula: C8 H14 O  =    23 atoms



      MOLECULAR POINT GROUP   :   C1  


      RHF CALCULATION, NO. OF DOUBLY OCCUPIED LEVELS = 26

  SCF CRITERION =    0.1000E-07

 -------------------------------------------------------------------------------
 PM7 1SCF GRADIENTS DISP RELSCF=0.0001
 Title: ASE calculation



     1SCF WAS SPECIFIED, SO BFGS WAS NOT USED                 
     SCF FIELD WAS ACHIEVED                                   


                              PM7 CALCULATION
                                                       MOPAC v23.2 Linux
                                                       Fri Sep 19 21:43:15 2025




          FINAL HEAT OF FORMATION =        -38.08659 KCAL/MOL =    -159.35430 KJ/MOL

          TOTAL ENERGY            =     -33817.98088 KCAL/MOL = ELECTRONIC ENERGY + CORE-CORE REPULSION
          ENERGY OF ATOMS         =      33782.22825 KCAL/MOL
                              SUM =        -35.75263 KCAL/MOL
          DISPERSION ENERGY       =         -2.33396 KCAL/MOL
                              SUM =        -38.08659 KCAL/MOL = FINAL HEAT OF FORMATION



          TOTAL ENERGY            =      -1466.48645 EV
          ELECTRONIC ENERGY       =      -7994.08951 EV 
          CORE-CORE REPULSION     =       6527.60306 EV
          COSMO AREA              =        170.44 SQUARE ANGSTROMS
          COSMO VOLUME            =        176.77 CUBIC ANGSTROMS

          GRADIENT NORM           =          1.05225          =       0.21941 PER ATOM
          IONIZATION POTENTIAL    =          9.570456 EV
          HOMO LUMO ENERGIES (EV) =         -9.570  2.206
          NO. OF FILLED LEVELS    =         26
          MOLECULAR WEIGHT        =        126.1980         POINT GROUP:  C1  

          MOLECULAR DIMENSIONS (Angstroms)

            Atom       Atom       Distance
            H    19    H    11     6.81123
            H    14    H    21     4.43571
            H    16    H    10     3.74265


          SCF CALCULATIONS        =          1

          WALL-CLOCK TIME         =      0.898 SECONDS
          COMPUTATION TIME        =      0.282 SECONDS

          LARGEST ATOMIC GRADIENTS

          Atom     Label                     Cartesian Gradients           Cartesian Coordinates       |Gradient|
                                           X          Y          Z        X          Y          Z

            21       H                  -0.348      0.081     -0.156   -1.71233   -2.04372    0.76324      0.390
            23       H                  -0.180     -0.006      0.327   -0.04897   -1.52630   -1.11967      0.373
             9       C                  -0.082      0.274     -0.186   -0.08739   -0.86076   -0.25643      0.341
             4       O                   0.106     -0.289      0.008    0.09630    2.02321   -0.16023      0.308
            18       H                  -0.052      0.229      0.171   -2.61064   -1.01565   -1.44422      0.291
            12       H                   0.160      0.212      0.034    2.47236   -1.96719   -0.02454      0.268
            11       H                  -0.086      0.213      0.031    3.36918   -0.45758   -0.22969      0.232
             5       C                   0.069     -0.193     -0.085   -0.99055    1.39762    0.49601      0.222
            10       H                   0.125      0.042      0.177    2.38090   -1.08740   -1.55404      0.221
             3       C                   0.037     -0.178     -0.098    1.18285    1.21393   -0.56885      0.206



       FINAL  POINT  AND  DERIVATIVES

   PARAMETER     ATOM    TYPE            VALUE        GRADIENT
      1          1  C    CARTESIAN X     2.426208      0.003051  KCAL/ANGSTROM
      2          1  C    CARTESIAN Y    -0.964582      0.127290  KCAL/ANGSTROM
      3          1  C    CARTESIAN Z    -0.466187      0.045907  KCAL/ANGSTROM
      4          2  C    CARTESIAN X     1.227581     -0.052656  KCAL/ANGSTROM
      5          2  C    CARTESIAN Y    -0.184404     -0.040042  KCAL/ANGSTROM
      6          2  C    CARTESIAN Z     0.070708     -0.098300  KCAL/ANGSTROM
      7          3  C    CARTESIAN X     1.182846      0.037338  KCAL/ANGSTROM
      8          3  C    CARTESIAN Y     1.213933     -0.177585  KCAL/ANGSTROM
      9          3  C    CARTESIAN Z    -0.568851     -0.098028  KCAL/ANGSTROM
     10          4  O    CARTESIAN X     0.096298      0.106089  KCAL/ANGSTROM
     11          4  O    CARTESIAN Y     2.023208     -0.289353  KCAL/ANGSTROM
     12          4  O    CARTESIAN Z    -0.160227      0.007765  KCAL/ANGSTROM
     13          5  C    CARTESIAN X    -0.990548      0.069469  KCAL/ANGSTROM
     14          5  C    CARTESIAN Y     1.397621     -0.193187  KCAL/ANGSTROM
     15          5  C    CARTESIAN Z     0.496010     -0.085159  KCAL/ANGSTROM
     16          6  C    CARTESIAN X    -1.314460      0.000454  KCAL/ANGSTROM
     17          6  C    CARTESIAN Y     0.023954     -0.029099  KCAL/ANGSTROM
     18          6  C    CARTESIAN Z    -0.048499     -0.046412  KCAL/ANGSTROM
     19          7  C    CARTESIAN X    -2.447728      0.070922  KCAL/ANGSTROM
     20          7  C    CARTESIAN Y    -0.012692      0.065675  KCAL/ANGSTROM
     21          7  C    CARTESIAN Z    -1.031876      0.105430  KCAL/ANGSTROM
     22          8  C    CARTESIAN X    -1.067410      0.077998  KCAL/ANGSTROM
     23          8  C    CARTESIAN Y    -1.174250     -0.153320  KCAL/ANGSTROM
     24          8  C    CARTESIAN Z     0.850935     -0.037306  KCAL/ANGSTROM
     25          9  C    CARTESIAN X    -0.087388     -0.081803  KCAL/ANGSTROM
     26          9  C    CARTESIAN Y    -0.860758      0.273827  KCAL/ANGSTROM
     27          9  C    CARTESIAN Z    -0.256428     -0.185556  KCAL/ANGSTROM
     28         10  H    CARTESIAN X     2.380902      0.124775  KCAL/ANGSTROM
     29         10  H    CARTESIAN Y    -1.087402      0.042118  KCAL/ANGSTROM
     30         10  H    CARTESIAN Z    -1.554045      0.177119  KCAL/ANGSTROM
     31         11  H    CARTESIAN X     3.369183     -0.085978  KCAL/ANGSTROM
     32         11  H    CARTESIAN Y    -0.457584      0.212899  KCAL/ANGSTROM
     33         11  H    CARTESIAN Z    -0.229695      0.031101  KCAL/ANGSTROM
     34         12  H    CARTESIAN X     2.472358      0.160352  KCAL/ANGSTROM
     35         12  H    CARTESIAN Y    -1.967193      0.212455  KCAL/ANGSTROM
     36         12  H    CARTESIAN Z    -0.024540      0.033726  KCAL/ANGSTROM
     37         13  H    CARTESIAN X     1.335903     -0.028172  KCAL/ANGSTROM
     38         13  H    CARTESIAN Y    -0.074255     -0.178135  KCAL/ANGSTROM
     39         13  H    CARTESIAN Z     1.177585     -0.074135  KCAL/ANGSTROM
     40         14  H    CARTESIAN X     2.063154     -0.084693  KCAL/ANGSTROM
     41         14  H    CARTESIAN Y     1.822653     -0.041624  KCAL/ANGSTROM
     42         14  H    CARTESIAN Z    -0.293216      0.010187  KCAL/ANGSTROM
     43         15  H    CARTESIAN X     1.103742     -0.019320  KCAL/ANGSTROM
     44         15  H    CARTESIAN Y     1.147740     -0.038274  KCAL/ANGSTROM
     45         15  H    CARTESIAN Z    -1.670160     -0.107155  KCAL/ANGSTROM
     46         16  H    CARTESIAN X    -0.750220     -0.002304  KCAL/ANGSTROM
     47         16  H    CARTESIAN Y     1.372682      0.147337  KCAL/ANGSTROM
     48         16  H    CARTESIAN Z     1.575737     -0.032100  KCAL/ANGSTROM
     49         17  H    CARTESIAN X    -1.803743      0.080846  KCAL/ANGSTROM
     50         17  H    CARTESIAN Y     2.130251      0.014138  KCAL/ANGSTROM
     51         17  H    CARTESIAN Z     0.326976      0.112014  KCAL/ANGSTROM
     52         18  H    CARTESIAN X    -2.610637     -0.052484  KCAL/ANGSTROM
     53         18  H    CARTESIAN Y    -1.015645      0.229351  KCAL/ANGSTROM
     54         18  H    CARTESIAN Z    -1.444222      0.171352  KCAL/ANGSTROM
     55         19  H    CARTESIAN X    -3.390911      0.107650  KCAL/ANGSTROM
     56         19  H    CARTESIAN Y     0.304000     -0.037377  KCAL/ANGSTROM
     57         19  H    CARTESIAN Z    -0.567302     -0.079243  KCAL/ANGSTROM
     58         20  H    CARTESIAN X    -2.252989     -0.030411  KCAL/ANGSTROM
     59         20  H    CARTESIAN Y     0.659433     -0.113666  KCAL/ANGSTROM
     60         20  H    CARTESIAN Z    -1.880414      0.026425  KCAL/ANGSTROM
     61         21  H    CARTESIAN X    -1.712332     -0.348379  KCAL/ANGSTROM
     62         21  H    CARTESIAN Y    -2.043718      0.081288  KCAL/ANGSTROM
     63         21  H    CARTESIAN Z     0.763239     -0.156082  KCAL/ANGSTROM
     64         22  H    CARTESIAN X    -0.783269      0.127107  KCAL/ANGSTROM
     65         22  H    CARTESIAN Y    -1.030278     -0.108440  KCAL/ANGSTROM
     66         22  H    CARTESIAN Z     1.887964     -0.048715  KCAL/ANGSTROM
     67         23  H    CARTESIAN X    -0.048974     -0.179852  KCAL/ANGSTROM
     68         23  H    CARTESIAN Y    -1.526299     -0.006279  KCAL/ANGSTROM
     69         23  H    CARTESIAN Z    -1.119673      0.327165  KCAL/ANGSTROM




   ATOM   CHEMICAL          X               Y               Z
  NUMBER   SYMBOL      (ANGSTROMS)     (ANGSTROMS)     (ANGSTROMS)

     1       C          2.42620845  *  -0.96458233  *  -0.46618694  *
     2       C          1.22758128  *  -0.18440385  *   0.07070761  *
     3       C          1.18284605  *   1.21393301  *  -0.56885063  *
     4       O          0.09629750  *   2.02320808  *  -0.16022731  *
     5       C         -0.99054848  *   1.39762135  *   0.49601028  *
     6       C         -1.31445972  *   0.02395390  *  -0.04849875  *
     7       C         -2.44772773  *  -0.01269192  *  -1.03187628  *
     8       C         -1.06740968  *  -1.17424965  *   0.85093522  *
     9       C         -0.08738833  *  -0.86075763  *  -0.25642834  *
    10       H          2.38090225  *  -1.08740218  *  -1.55404455  *
    11       H          3.36918335  *  -0.45758444  *  -0.22969489  *
    12       H          2.47235821  *  -1.96719301  *  -0.02453992  *
    13       H          1.33590320  *  -0.07425529  *   1.17758516  *
    14       H          2.06315429  *   1.82265292  *  -0.29321646  *
    15       H          1.10374165  *   1.14774033  *  -1.67015982  *
    16       H         -0.75021975  *   1.37268240  *   1.57573726  *
    17       H         -1.80374291  *   2.13025143  *   0.32697621  *
    18       H         -2.61063665  *  -1.01564539  *  -1.44422221  *
    19       H         -3.39091074  *   0.30399974  *  -0.56730161  *
    20       H         -2.25298874  *   0.65943272  *  -1.88041417  *
    21       H         -1.71233182  *  -2.04371832  *   0.76323867  *
    22       H         -0.78326866  *  -1.03027804  *   1.88796415  *
    23       H         -0.04897423  *  -1.52629904  *  -1.11967272  *

                             CARTESIAN COORDINATES

   1    C        2.426208455    -0.964582332    -0.466186941
   2    C        1.227581279    -0.184403849     0.070707606
   3    C        1.182846049     1.213933008    -0.568850627
   4    O        0.096297501     2.023208084    -0.160227308
   5    C       -0.990548480     1.397621348     0.496010284
   6    C       -1.314459721     0.023953904    -0.048498751
   7    C       -2.447727728    -0.012691921    -1.031876281
   8    C       -1.067409676    -1.174249655     0.850935221
   9    C       -0.087388326    -0.860757632    -0.256428344
  10    H        2.380902251    -1.087402178    -1.554044555
  11    H        3.369183347    -0.457584443    -0.229694891
  12    H        2.472358212    -1.967193006    -0.024539920
  13    H        1.335903199    -0.074255295     1.177585156
  14    H        2.063154288     1.822652920    -0.293216461
  15    H        1.103741652     1.147740335    -1.670159822
  16    H       -0.750219745     1.372682396     1.575737256
  17    H       -1.803742909     2.130251435     0.326976213
  18    H       -2.610636646    -1.015645386    -1.444222213
  19    H       -3.390910742     0.303999736    -0.567301613
  20    H       -2.252988744     0.659432724    -1.880414170
  21    H       -1.712331816    -2.043718325     0.763238671
  22    H       -0.783268664    -1.030278038     1.887964151
  23    H       -0.048974227    -1.526299042    -1.119672719


           Empirical Formula: C8 H14 O  =    23 atoms



      MOLECULAR POINT GROUP   :   C1  


                  EIGENVALUES  
 -31.69311 -28.77416 -27.91376 -25.14876 -24.29230 -22.96696 -21.27976 -19.78676
 -18.18078 -16.70287 -16.42878 -15.97920 -14.97908 -14.76790 -14.11215 -13.82222
 -13.55029 -13.27622 -13.02952 -12.62649 -12.15492 -11.98934 -11.60069 -10.65534
 -10.50411  -9.57046   2.20644   2.60733   3.65524   3.88970   4.02296   4.15150
   4.59472   4.60189   4.82678   5.04936   5.65235   5.69425   5.72312   5.76771
   5.80157   5.82598   5.87108   6.07483   6.11660   6.27043   6.40906   6.48793
   6.85824   6.91257


              NET ATOMIC CHARGES AND DIPOLE CONTRIBUTIONS

  ATOM NO.   TYPE          CHARGE      No. of ELECS.   s-Pop       p-Pop       
    1          C          -0.449609        4.4496     1.05406     3.39554
    2          C          -0.124293        4.1243     1.06029     3.06401
    3          C          -0.041945        4.0419     1.09161     2.95034
    4          O          -0.417426        6.4174     1.87405     4.54338
    5          C          -0.030692        4.0307     1.08546     2.94523
    6          C          -0.029556        4.0296     1.04338     2.98617
    7          C          -0.437635        4.4376     1.04967     3.38797
    8          C          -0.352999        4.3530     1.05653     3.29647
    9          C          -0.172342        4.1723     1.05658     3.11576
   10          H           0.148178        0.8518     0.85182
   11          H           0.147861        0.8521     0.85214
   12          H           0.151442        0.8486     0.84856
   13          H           0.147760        0.8522     0.85224
   14          H           0.131805        0.8682     0.86820
   15          H           0.127484        0.8725     0.87252
   16          H           0.122027        0.8780     0.87797
   17          H           0.144612        0.8554     0.85539
   18          H           0.148349        0.8517     0.85165
   19          H           0.152034        0.8480     0.84797
   20          H           0.158808        0.8412     0.84119
   21          H           0.159408        0.8406     0.84059
   22          H           0.158021        0.8420     0.84198
   23          H           0.158707        0.8413     0.84129
 DIPOLE           X         Y         Z       TOTAL
 POINT-CHG.     0.082    -1.538     0.050     1.541
 HYBRID        -0.038    -0.064    -0.051     0.090
 SUM            0.044    -1.602    -0.001     1.602


          ATOMIC ORBITAL ELECTRON POPULATIONS

     Atom    s        px        py        pz   
    1  C   1.05406   1.08766   1.14446   1.16342
    2  C   1.06029   0.96770   0.98990   1.10640
    3  C   1.09161   0.91900   0.95745   1.07389
    4  O   1.87405   1.35125   1.37922   1.81291
    5  C   1.08546   0.92694   0.98742   1.03087
    6  C   1.04338   1.00390   0.94277   1.03951
    7  C   1.04967   1.08987   1.18154   1.11656
    8  C   1.05653   1.13239   1.10107   1.06301
    9  C   1.05658   0.94859   1.08803   1.07914
   10  H   0.85182
   11  H   0.85214
   12  H   0.84856
   13  H   0.85224
   14  H   0.86820
   15  H   0.87252
   16  H   0.87797
   17  H   0.85539
   18  H   0.85165
   19  H   0.84797
   20  H   0.84119
   21  H   0.84059
   22  H   0.84198
   23  H   0.84129

 **********************
 *                    *
 * JOB ENDED NORMALLY *
 *                    *
 **********************



 TOTAL JOB TIME:             1.48 SECONDS

 == MOPAC DONE ==
