 *******************************************************************************
 **                                                                           **
 **                              MOPAC v23.2                                  **
 **                                                                           **
 *******************************************************************************
 **          Digital Object Identifier (DOI): 10.5281/zenodo.6511958          **
 **    Visit the DOI location for information on how to cite this program.    **
 *******************************************************************************

                              PM7 CALCULATION RESULTS

 *******************************************************************************
 *  CALCULATION DONE: (MAX THREADS = 40)             Fri Sep 19 21:37:46 2025  *
 *  PM7        - The PM7 Hamiltonian to be used
 *
 *
 *
 *                 CHARGE ON SYSTEM = +1
 *
 *
 *
 *  EPS=37.5   - USE ANDREAS KLAMT'S COSMO IMPLICIT SOLVATION MODEL
 *  1SCF       - DO 1 SCF AND THEN STOP 
 *  T=         - A TIME OF 172800.0 SECONDS REQUESTED
 *  DUMP=N     - RESTART FILE WRITTEN EVERY 7200.0 SECONDS REQUESTED
 *  RELSCF     - DEFAULT SCF CRITERION MULTIPLIED BY 0.0001
 *              (DEFAULT SCF CRITERION = 0.00010)
 *  GRADIENTS  - ALL GRADIENTS TO BE PRINTED
 *  DISP       - PRINT DISPERSION AND HYDROGEN BOND ENERGIES
 *******************************************************************************
PM7 1SCF GRADIENTS EPS=37.5 DISP RELSCF=0.0001 CHARGE=1
 Title: ASE calculation

   ATOM   CHEMICAL          X               Y               Z
  NUMBER   SYMBOL      (ANGSTROMS)     (ANGSTROMS)     (ANGSTROMS)

     1       C         -2.06882698  *  -1.99177945  *  -0.39205926  *
     2       C         -1.43607095  *  -0.84162530  *   0.37413216  *
     3       C         -0.04232476  *  -0.53039532  *  -0.10934194  *
     4       C          0.97409501  *  -1.63825639  *  -0.01932571  *
     5       C          2.41579449  *  -1.18872261  *  -0.15990653  *
     6       O         -0.07641892  *   0.13938033  *  -1.42651547  *
     7       C          0.39543610  *   0.89865515  *  -0.28502273  *
     8       C         -0.40598083  *   2.02527730  *   0.07212106  *
     9       N         -1.03181179  *   2.94438438  *   0.38476924  *
    10       H         -1.53797304  *  -2.94438438  *  -0.26021006  *
    11       H         -2.15415996  *  -1.79754162  *  -1.46815212  *
    12       H         -3.10035869  *  -2.17832543  *  -0.03581990  *
    13       H         -2.10278545  *   0.05193765  *   0.33417628  *
    14       H         -1.38774605  *  -1.08931515  *   1.46815212  *
    15       H          0.73561854  *  -2.42464461  *  -0.78084401  *
    16       H          0.84188722  *  -2.16956891  *   0.96140203  *
    17       H          2.73583874  *  -0.50390068  *   0.63919804  *
    18       H          3.10035869  *  -2.05764390  *  -0.07075118  *
    19       H          2.65070570  *  -0.74496632  *  -1.13437876  *
    20       H          1.50105095  *   1.12956771  *  -0.33073779  *



          CARTESIAN COORDINATES 

    NO.       ATOM           X           Y           Z

     1         C         -2.0688     -1.9918     -0.3921
     2         C         -1.4361     -0.8416      0.3741
     3         C         -0.0423     -0.5304     -0.1093
     4         C          0.9741     -1.6383     -0.0193
     5         C          2.4158     -1.1887     -0.1599
     6         O         -0.0764      0.1394     -1.4265
     7         C          0.3954      0.8987     -0.2850
     8         C         -0.4060      2.0253      0.0721
     9         N         -1.0318      2.9444      0.3848
    10         H         -1.5380     -2.9444     -0.2602
    11         H         -2.1542     -1.7975     -1.4682
    12         H         -3.1004     -2.1783     -0.0358
    13         H         -2.1028      0.0519      0.3342
    14         H         -1.3877     -1.0893      1.4682
    15         H          0.7356     -2.4246     -0.7808
    16         H          0.8419     -2.1696      0.9614
    17         H          2.7358     -0.5039      0.6392
    18         H          3.1004     -2.0576     -0.0708
    19         H          2.6507     -0.7450     -1.1344
    20         H          1.5011      1.1296     -0.3307

 General Reference for PM7:
 "Optimization of Parameters for Semiempirical Methods VI: More Modifications to the 
 NDDO Approximations and Re-optimization of Parameters", J. J. P. Stewart, J. Mol. Mod., 1:32, 19 (2013)
 https://link.springer.com/article/10.1007/s00894-012-1667-x

           Empirical Formula: C7 H11 N O  =    20 atoms



      MOLECULAR POINT GROUP   :   C1  


          UHF CALCULATION, NO. OF ALPHA ELECTRONS =   25
                           NO. OF BETA  ELECTRONS =   24
  SCF CRITERION =    0.1000E-07

 -------------------------------------------------------------------------------
 PM7 1SCF GRADIENTS EPS=37.5 DISP RELSCF=0.0001 CHARGE=1
 Title: ASE calculation



     1SCF WAS SPECIFIED, SO BFGS WAS NOT USED                 
     SCF FIELD WAS ACHIEVED                                   


                              PM7 CALCULATION
                                                       MOPAC v23.2 Linux
                                                       Fri Sep 19 21:37:54 2025




          FINAL HEAT OF FORMATION =        172.03126 KCAL/MOL =     719.77880 KJ/MOL

          TOTAL ENERGY            =     -34149.82200 KCAL/MOL = ELECTRONIC ENERGY + CORE-CORE REPULSION + SOLVATION ENERGY
          ENERGY OF ATOMS         =      34323.93363 KCAL/MOL
                              SUM =        174.11163 KCAL/MOL
          DISPERSION ENERGY       =         -2.08037 KCAL/MOL
                              SUM =        172.03126 KCAL/MOL = FINAL HEAT OF FORMATION

          VAN DER WAALS AREA      =        173.49 SQUARE ANGSTROMS


          TOTAL ENERGY            =      -1480.87644 EV
          ELECTRONIC ENERGY       =      -2190.25089 EV 
          CORE-CORE REPULSION     =        709.37445 EV

          DIELECTRIC ENERGY       =         -2.61309 EV
          COSMO AREA              =        173.49 SQUARE ANGSTROMS
          COSMO VOLUME            =        172.99 CUBIC ANGSTROMS

          GRADIENT NORM           =         13.86853          =       3.10110 PER ATOM
          IONIZATION POTENTIAL    =         12.382713 EV
          ALPHA SOMO LUMO (EV)    =        -12.383 -1.679
          BETA  SOMO LUMO (EV)    =        -12.384 -4.535
          NO. OF ALPHA ELECTRONS  =         25
          NO. OF BETA  ELECTRONS  =         24
          MOLECULAR WEIGHT        =        125.1700         POINT GROUP:  C1  

          MOLECULAR DIMENSIONS (Angstroms)

            Atom       Atom       Distance
            H    18    N     9     6.50405
            H    12    H    20     5.66057
            H    14    H    11     2.97102


          SCF CALCULATIONS        =          2

          WALL-CLOCK TIME         =      7.273 SECONDS
          COMPUTATION TIME        =      1.237 SECONDS

          LARGEST ATOMIC GRADIENTS

          Atom     Label                     Cartesian Gradients           Cartesian Coordinates       |Gradient|
                                           X          Y          Z        X          Y          Z

             7       C                   6.186      4.731      2.278    0.39544    0.89866   -0.28502      8.114
             5       C                  -3.837      4.522     -1.340    2.41579   -1.18872   -0.15991      6.080
             1       C                   4.224      1.870     -1.097   -2.06883   -1.99178   -0.39206      4.748
            20       H                  -3.094     -1.267      0.084    1.50105    1.12957   -0.33074      3.344
             6       O                  -1.930     -0.235     -2.634   -0.07642    0.13938   -1.42652      3.274
            18       H                   2.027     -1.293      0.338    3.10036   -2.05764   -0.07075      2.428
             4       C                   0.875     -1.367     -1.551    0.97410   -1.63826   -0.01933      2.245
            17       H                   1.508     -1.349      0.954    2.73584   -0.50390    0.63920      2.237
             3       C                  -0.098      0.275      2.209   -0.04232   -0.53040   -0.10934      2.228
             8       C                  -0.876      0.609     -1.869   -0.40598    2.02528    0.07212      2.152



       FINAL  POINT  AND  DERIVATIVES

   PARAMETER     ATOM    TYPE            VALUE        GRADIENT
      1          1  C    CARTESIAN X    -2.068827      4.224253  KCAL/ANGSTROM
      2          1  C    CARTESIAN Y    -1.991779      1.870467  KCAL/ANGSTROM
      3          1  C    CARTESIAN Z    -0.392059     -1.096722  KCAL/ANGSTROM
      4          2  C    CARTESIAN X    -1.436071     -0.838532  KCAL/ANGSTROM
      5          2  C    CARTESIAN Y    -0.841625     -0.023669  KCAL/ANGSTROM
      6          2  C    CARTESIAN Z     0.374132     -0.075384  KCAL/ANGSTROM
      7          3  C    CARTESIAN X    -0.042325     -0.098435  KCAL/ANGSTROM
      8          3  C    CARTESIAN Y    -0.530395      0.274653  KCAL/ANGSTROM
      9          3  C    CARTESIAN Z    -0.109342      2.208857  KCAL/ANGSTROM
     10          4  C    CARTESIAN X     0.974095      0.875280  KCAL/ANGSTROM
     11          4  C    CARTESIAN Y    -1.638256     -1.367438  KCAL/ANGSTROM
     12          4  C    CARTESIAN Z    -0.019326     -1.550761  KCAL/ANGSTROM
     13          5  C    CARTESIAN X     2.415794     -3.837259  KCAL/ANGSTROM
     14          5  C    CARTESIAN Y    -1.188723      4.522018  KCAL/ANGSTROM
     15          5  C    CARTESIAN Z    -0.159907     -1.339741  KCAL/ANGSTROM
     16          6  O    CARTESIAN X    -0.076419     -1.930462  KCAL/ANGSTROM
     17          6  O    CARTESIAN Y     0.139380     -0.234898  KCAL/ANGSTROM
     18          6  O    CARTESIAN Z    -1.426515     -2.633883  KCAL/ANGSTROM
     19          7  C    CARTESIAN X     0.395436      6.185970  KCAL/ANGSTROM
     20          7  C    CARTESIAN Y     0.898655      4.730648  KCAL/ANGSTROM
     21          7  C    CARTESIAN Z    -0.285023      2.278330  KCAL/ANGSTROM
     22          8  C    CARTESIAN X    -0.405981     -0.876084  KCAL/ANGSTROM
     23          8  C    CARTESIAN Y     2.025277      0.609139  KCAL/ANGSTROM
     24          8  C    CARTESIAN Z     0.072121     -1.869068  KCAL/ANGSTROM
     25          9  N    CARTESIAN X    -1.031812      0.258929  KCAL/ANGSTROM
     26          9  N    CARTESIAN Y     2.944384     -1.030125  KCAL/ANGSTROM
     27          9  N    CARTESIAN Z     0.384769      0.094818  KCAL/ANGSTROM
     28         10  H    CARTESIAN X    -1.537973     -1.620327  KCAL/ANGSTROM
     29         10  H    CARTESIAN Y    -2.944384     -0.965588  KCAL/ANGSTROM
     30         10  H    CARTESIAN Z    -0.260210      0.258076  KCAL/ANGSTROM
     31         11  H    CARTESIAN X    -2.154160     -1.498831  KCAL/ANGSTROM
     32         11  H    CARTESIAN Y    -1.797542     -0.714722  KCAL/ANGSTROM
     33         11  H    CARTESIAN Z    -1.468152      0.420901  KCAL/ANGSTROM
     34         12  H    CARTESIAN X    -3.100359     -1.783964  KCAL/ANGSTROM
     35         12  H    CARTESIAN Y    -2.178325     -1.010208  KCAL/ANGSTROM
     36         12  H    CARTESIAN Z    -0.035820      0.323749  KCAL/ANGSTROM
     37         13  H    CARTESIAN X    -2.102785     -0.778227  KCAL/ANGSTROM
     38         13  H    CARTESIAN Y     0.051938      0.355394  KCAL/ANGSTROM
     39         13  H    CARTESIAN Z     0.334176      0.118850  KCAL/ANGSTROM
     40         14  H    CARTESIAN X    -1.387746     -0.572329  KCAL/ANGSTROM
     41         14  H    CARTESIAN Y    -1.089315     -0.459024  KCAL/ANGSTROM
     42         14  H    CARTESIAN Z     1.468152      0.466384  KCAL/ANGSTROM
     43         15  H    CARTESIAN X     0.735619      0.195153  KCAL/ANGSTROM
     44         15  H    CARTESIAN Y    -2.424645     -0.626116  KCAL/ANGSTROM
     45         15  H    CARTESIAN Z    -0.780844      0.122828  KCAL/ANGSTROM
     46         16  H    CARTESIAN X     0.841887      0.193947  KCAL/ANGSTROM
     47         16  H    CARTESIAN Y    -2.169569     -0.757000  KCAL/ANGSTROM
     48         16  H    CARTESIAN Z     0.961402      0.718209  KCAL/ANGSTROM
     49         17  H    CARTESIAN X     2.735839      1.508025  KCAL/ANGSTROM
     50         17  H    CARTESIAN Y    -0.503901     -1.349240  KCAL/ANGSTROM
     51         17  H    CARTESIAN Z     0.639198      0.953888  KCAL/ANGSTROM
     52         18  H    CARTESIAN X     3.100359      2.027193  KCAL/ANGSTROM
     53         18  H    CARTESIAN Y    -2.057644     -1.292859  KCAL/ANGSTROM
     54         18  H    CARTESIAN Z    -0.070751      0.338171  KCAL/ANGSTROM
     55         19  H    CARTESIAN X     2.650706      1.459347  KCAL/ANGSTROM
     56         19  H    CARTESIAN Y    -0.744966     -1.264049  KCAL/ANGSTROM
     57         19  H    CARTESIAN Z    -1.134379      0.178739  KCAL/ANGSTROM
     58         20  H    CARTESIAN X     1.501051     -3.093647  KCAL/ANGSTROM
     59         20  H    CARTESIAN Y     1.129568     -1.267383  KCAL/ANGSTROM
     60         20  H    CARTESIAN Z    -0.330738      0.083755  KCAL/ANGSTROM




   ATOM   CHEMICAL          X               Y               Z
  NUMBER   SYMBOL      (ANGSTROMS)     (ANGSTROMS)     (ANGSTROMS)

     1       C         -2.06882698  *  -1.99177945  *  -0.39205926  *
     2       C         -1.43607095  *  -0.84162530  *   0.37413216  *
     3       C         -0.04232476  *  -0.53039532  *  -0.10934194  *
     4       C          0.97409501  *  -1.63825639  *  -0.01932571  *
     5       C          2.41579449  *  -1.18872261  *  -0.15990653  *
     6       O         -0.07641892  *   0.13938033  *  -1.42651547  *
     7       C          0.39543610  *   0.89865515  *  -0.28502273  *
     8       C         -0.40598083  *   2.02527730  *   0.07212106  *
     9       N         -1.03181179  *   2.94438438  *   0.38476924  *
    10       H         -1.53797304  *  -2.94438438  *  -0.26021006  *
    11       H         -2.15415996  *  -1.79754162  *  -1.46815212  *
    12       H         -3.10035869  *  -2.17832543  *  -0.03581990  *
    13       H         -2.10278545  *   0.05193765  *   0.33417628  *
    14       H         -1.38774605  *  -1.08931515  *   1.46815212  *
    15       H          0.73561854  *  -2.42464461  *  -0.78084401  *
    16       H          0.84188722  *  -2.16956891  *   0.96140203  *
    17       H          2.73583874  *  -0.50390068  *   0.63919804  *
    18       H          3.10035869  *  -2.05764390  *  -0.07075118  *
    19       H          2.65070570  *  -0.74496632  *  -1.13437876  *
    20       H          1.50105095  *   1.12956771  *  -0.33073779  *

                             CARTESIAN COORDINATES

   1    C       -2.068826978    -1.991779448    -0.392059265
   2    C       -1.436070945    -0.841625298     0.374132163
   3    C       -0.042324763    -0.530395322    -0.109341944
   4    C        0.974095007    -1.638256394    -0.019325714
   5    C        2.415794487    -1.188722614    -0.159906532
   6    O       -0.076418920     0.139380328    -1.426515466
   7    C        0.395436098     0.898655147    -0.285022727
   8    C       -0.405980826     2.025277298     0.072121061
   9    N       -1.031811794     2.944384380     0.384769241
  10    H       -1.537973037    -2.944384380    -0.260210055
  11    H       -2.154159960    -1.797541615    -1.468152122
  12    H       -3.100358689    -2.178325433    -0.035819900
  13    H       -2.102785454     0.051937653     0.334176275
  14    H       -1.387746046    -1.089315146     1.468152122
  15    H        0.735618537    -2.424644615    -0.780844014
  16    H        0.841887219    -2.169568906     0.961402029
  17    H        2.735838741    -0.503900682     0.639198041
  18    H        3.100358689    -2.057643901    -0.070751181
  19    H        2.650705705    -0.744966316    -1.134378755
  20    H        1.501050949     1.129567706    -0.330737792


           Empirical Formula: C7 H11 N O  =    20 atoms



      MOLECULAR POINT GROUP   :   C1  


          ALPHA EIGENVALUES  
 -37.35835 -36.16023 -30.55930 -27.92964 -27.62237 -24.40403 -22.31645 -21.83100
 -19.84838 -18.79200 -17.40027 -16.82664 -16.53193 -15.66007 -15.58421 -15.44402
 -14.70831 -14.54365 -14.29148 -14.05427 -13.50691 -12.94756 -12.89785 -12.69776
 -12.38271  -1.67872  -0.82860  -0.15846   0.61657   1.03703   1.40035   2.11875
   2.30083   3.44171   3.51994   3.56618   4.42946   4.49080   4.57433   5.14859
   5.22142   5.39392   5.42137   5.48796   5.59067   6.49676   6.52543


           BETA EIGENVALUES 
 -36.18415 -34.52539 -29.54058 -27.81523 -26.92423 -24.27628 -22.18379 -21.47234
 -19.27722 -18.27336 -17.14764 -16.73741 -16.13797 -15.62121 -15.27926 -14.72166
 -14.55691 -14.32526 -14.04352 -13.45368 -13.02001 -12.90801 -12.59948 -12.38442
  -4.53544  -1.12968  -0.55712  -0.06641   0.68742   1.05153   1.48754   2.14722
   2.31848   3.45207   3.54192   3.60495   4.42655   4.49399   4.57529   5.15457
   5.22396   5.39505   5.42317   5.48800   5.59040   6.49891   6.52639


              NET ATOMIC CHARGES AND DIPOLE CONTRIBUTIONS

  ATOM NO.   TYPE          CHARGE      No. of ELECS.   s-Pop       p-Pop       
    1          C          -0.446063        4.4461     1.05094     3.39513
    2          C          -0.300788        4.3008     1.06384     3.23695
    3          C           0.127848        3.8722     1.13597     2.73618
    4          C          -0.283768        4.2838     1.06274     3.22103
    5          C          -0.465778        4.4658     1.05236     3.41342
    6          O           0.377270        5.6227     1.94599     3.67674
    7          C          -0.113476        4.1135     1.10427     3.00921
    8          C           0.142820        3.8572     1.08762     2.76956
    9          N          -0.187664        5.1877     1.82607     3.36159
   10          H           0.167265        0.8327     0.83274
   11          H           0.165049        0.8350     0.83495
   12          H           0.179442        0.8206     0.82056
   13          H           0.187766        0.8122     0.81223
   14          H           0.214406        0.7856     0.78559
   15          H           0.204950        0.7950     0.79505
   16          H           0.209717        0.7903     0.79028
   17          H           0.171528        0.8285     0.82847
   18          H           0.183477        0.8165     0.81652
   19          H           0.166359        0.8336     0.83364
   20          H           0.299639        0.7004     0.70036
 DIPOLE           X         Y         Z       TOTAL
 POINT-CHG.     2.572    -3.558    -1.485     4.634
 HYBRID         0.163    -0.031    -0.698     0.718
 SUM            2.734    -3.589    -2.183     5.013


          ATOMIC ORBITAL ELECTRON POPULATIONS

     Atom    s        px        py        pz   
    1  C   1.05094   1.17262   1.07670   1.14580
    2  C   1.06384   0.94844   1.13684   1.15166
    3  C   1.13597   1.04458   0.92711   0.76449
    4  C   1.06274   0.97283   1.02151   1.22668
    5  C   1.05236   1.01640   1.20464   1.19237
    6  O   1.94599   1.12726   1.38470   1.16478
    7  C   1.10427   1.13415   0.96272   0.91233
    8  C   1.08762   0.91619   0.91331   0.94005
    9  N   1.82607   1.12336   1.16802   1.07021
   10  H   0.83274
   11  H   0.83495
   12  H   0.82056
   13  H   0.81223
   14  H   0.78559
   15  H   0.79505
   16  H   0.79028
   17  H   0.82847
   18  H   0.81652
   19  H   0.83364
   20  H   0.70036


                    (SZ)    =    0.500000
                    (S**2)  =    0.764790


          ATOMIC ORBITAL SPIN POPULATIONS

    Atom   Total    s     px     py     pz   
         Atomic
    1  C -0.0016 -0.000 -0.000 -0.001 -0.000
    2  C  0.0305  0.002  0.019  0.002  0.007
    3  C -0.0603 -0.004  0.000  0.004 -0.061
    4  C  0.0324  0.002  0.011  0.019 -0.000
    5  C  0.0008 -0.000 -0.000  0.001 -0.000
    6  O  1.0166  0.012  0.778  0.129  0.098
    7  C -0.0623 -0.004  0.002 -0.001 -0.059
    8  C  0.0301  0.006  0.007  0.009  0.008
    9  N -0.0118 -0.000 -0.005  0.004 -0.011
   10  H  0.0002  0.000
   11  H  0.0004  0.000
   12  H  0.0011  0.001
   13  H -0.0007 -0.001
   14  H -0.0007 -0.001
   15  H -0.0022 -0.002
   16  H -0.0028 -0.003
   17  H  0.0007  0.001
   18  H  0.0027  0.003
   19  H  0.0002  0.000
   20  H  0.0267  0.027

 **********************
 *                    *
 * JOB ENDED NORMALLY *
 *                    *
 **********************



 TOTAL JOB TIME:             7.73 SECONDS

 == MOPAC DONE ==
