 *******************************************************************************
 **                                                                           **
 **                              MOPAC v23.2                                  **
 **                                                                           **
 *******************************************************************************
 **          Digital Object Identifier (DOI): 10.5281/zenodo.6511958          **
 **    Visit the DOI location for information on how to cite this program.    **
 *******************************************************************************

                              PM7 CALCULATION RESULTS

 *******************************************************************************
 *  CALCULATION DONE: (MAX THREADS = 40)             Fri Sep 19 21:31:32 2025  *
 *  PM7        - The PM7 Hamiltonian to be used
 *  EPS=37.5   - USE ANDREAS KLAMT'S COSMO IMPLICIT SOLVATION MODEL
 *  1SCF       - DO 1 SCF AND THEN STOP 
 *  T=         - A TIME OF 172800.0 SECONDS REQUESTED
 *  DUMP=N     - RESTART FILE WRITTEN EVERY 7200.0 SECONDS REQUESTED
 *  RELSCF     - DEFAULT SCF CRITERION MULTIPLIED BY 0.0001
 *              (DEFAULT SCF CRITERION = 0.00010)
 *  GRADIENTS  - ALL GRADIENTS TO BE PRINTED
 *  DISP       - PRINT DISPERSION AND HYDROGEN BOND ENERGIES
 *******************************************************************************
PM7 1SCF GRADIENTS EPS=37.5 DISP RELSCF=0.0001
 Title: ASE calculation

   ATOM   CHEMICAL          X               Y               Z
  NUMBER   SYMBOL      (ANGSTROMS)     (ANGSTROMS)     (ANGSTROMS)

     1       C          2.80851683  *  -0.33462094  *   0.97307359  *
     2       C          1.31186894  *  -0.64244807  *   1.02176168  *
     3       C          0.56783571  *   0.08498034  *  -0.10545495  *
     4       C         -0.93678464  *  -0.11973428  *  -0.03235025  *
     5       C         -1.35824290  *  -1.56626540  *  -0.18709349  *
     6       C         -1.65037697  *   0.61801062  *   1.17517862  *
     7       C         -2.40122769  *   1.49972335  *   0.16048629  *
     8       O         -1.42794044  *   2.17109254  *  -0.64893765  *
     9       C         -1.73073539  *   0.81825597  *  -0.99948218  *
    10       H          3.24876165  *  -0.63785914  *   0.01617444  *
    11       H          3.00182504  *   0.73695025  *   1.10096934  *
    12       H          3.34769628  *  -0.86455417  *   1.76645035  *
    13       H          0.89455505  *  -0.34580334  *   2.00279990  *
    14       H          1.15110539  *  -1.73401230  *   0.94098688  *
    15       H          0.94617985  *  -0.25323136  *  -1.08942628  *
    16       H          0.79488179  *   1.17183392  *  -0.06387451  *
    17       H         -1.02239007  *  -2.17109254  *   0.66398726  *
    18       H         -2.44791474  *  -1.67250298  *  -0.24745105  *
    19       H         -0.92942790  *  -2.01357331  *  -1.09264131  *
    20       H         -0.97221339  *   1.16178034  *   1.83632724  *
    21       H         -2.29205134  *  -0.02653302  *   1.77557600  *
    22       H         -3.34769628  *   1.96877521  *   0.30279871  *
    23       H         -2.01019711  *   0.59881511  *  -2.00279990  *



          CARTESIAN COORDINATES 

    NO.       ATOM           X           Y           Z

     1         C          2.8085     -0.3346      0.9731
     2         C          1.3119     -0.6424      1.0218
     3         C          0.5678      0.0850     -0.1055
     4         C         -0.9368     -0.1197     -0.0324
     5         C         -1.3582     -1.5663     -0.1871
     6         C         -1.6504      0.6180      1.1752
     7         C         -2.4012      1.4997      0.1605
     8         O         -1.4279      2.1711     -0.6489
     9         C         -1.7307      0.8183     -0.9995
    10         H          3.2488     -0.6379      0.0162
    11         H          3.0018      0.7370      1.1010
    12         H          3.3477     -0.8646      1.7665
    13         H          0.8946     -0.3458      2.0028
    14         H          1.1511     -1.7340      0.9410
    15         H          0.9462     -0.2532     -1.0894
    16         H          0.7949      1.1718     -0.0639
    17         H         -1.0224     -2.1711      0.6640
    18         H         -2.4479     -1.6725     -0.2475
    19         H         -0.9294     -2.0136     -1.0926
    20         H         -0.9722      1.1618      1.8363
    21         H         -2.2921     -0.0265      1.7756
    22         H         -3.3477      1.9688      0.3028
    23         H         -2.0102      0.5988     -2.0028

 General Reference for PM7:
 "Optimization of Parameters for Semiempirical Methods VI: More Modifications to the 
 NDDO Approximations and Re-optimization of Parameters", J. J. P. Stewart, J. Mol. Mod., 1:32, 19 (2013)
 https://link.springer.com/article/10.1007/s00894-012-1667-x

           Empirical Formula: C8 H14 O  =    23 atoms



      MOLECULAR POINT GROUP   :   C1  


      RHF CALCULATION, NO. OF DOUBLY OCCUPIED LEVELS = 26

  SCF CRITERION =    0.1000E-07

 -------------------------------------------------------------------------------
 PM7 1SCF GRADIENTS EPS=37.5 DISP RELSCF=0.0001
 Title: ASE calculation



     1SCF WAS SPECIFIED, SO BFGS WAS NOT USED                 
     SCF FIELD WAS ACHIEVED                                   


                              PM7 CALCULATION
                                                       MOPAC v23.2 Linux
                                                       Fri Sep 19 21:31:33 2025




          FINAL HEAT OF FORMATION =        -16.10805 KCAL/MOL =     -67.39609 KJ/MOL

          TOTAL ENERGY            =     -33796.11954 KCAL/MOL = ELECTRONIC ENERGY + CORE-CORE REPULSION + SOLVATION ENERGY
          ENERGY OF ATOMS         =      33782.22825 KCAL/MOL
                              SUM =        -13.89129 KCAL/MOL
          DISPERSION ENERGY       =         -2.21676 KCAL/MOL
                              SUM =        -16.10805 KCAL/MOL = FINAL HEAT OF FORMATION

          VAN DER WAALS AREA      =        174.27 SQUARE ANGSTROMS


          TOTAL ENERGY            =      -1465.53845 EV
          ELECTRONIC ENERGY       =      -2406.46546 EV 
          CORE-CORE REPULSION     =        940.92701 EV

          DIELECTRIC ENERGY       =         -0.19548 EV
          COSMO AREA              =        174.27 SQUARE ANGSTROMS
          COSMO VOLUME            =        178.42 CUBIC ANGSTROMS

          GRADIENT NORM           =          9.20011          =       1.91835 PER ATOM
          IONIZATION POTENTIAL    =         10.414544 EV
          HOMO LUMO ENERGIES (EV) =        -10.415  1.932
          NO. OF FILLED LEVELS    =         26
          MOLECULAR WEIGHT        =        126.1980         POINT GROUP:  C1  

          MOLECULAR DIMENSIONS (Angstroms)

            Atom       Atom       Distance
            H    22    H    12     7.41608
            H    19    H    11     4.38628
            H    23    H    21     3.69332


          SCF CALCULATIONS        =          2

          WALL-CLOCK TIME         =      1.000 SECONDS
          COMPUTATION TIME        =      0.668 SECONDS

          LARGEST ATOMIC GRADIENTS

          Atom     Label                     Cartesian Gradients           Cartesian Coordinates       |Gradient|
                                           X          Y          Z        X          Y          Z

             8       O                  -2.861     -4.487      1.037   -1.42794    2.17109   -0.64894      5.422
             7       C                   0.932      3.153     -2.058   -2.40123    1.49972    0.16049      3.878
             9       C                   0.416      3.156     -0.935   -1.73074    0.81826   -0.99948      3.318
             6       C                  -1.213     -2.015      1.794   -1.65038    0.61801    1.17518      2.958
            22       H                   1.888     -0.649     -0.207   -3.34770    1.96878    0.30280      2.007
             5       C                  -0.564     -1.799      0.213   -1.35824   -1.56627   -0.18709      1.898
            23       H                   0.331      0.143      1.642   -2.01020    0.59882   -2.00280      1.681
             3       C                  -0.141     -1.344     -0.262    0.56784    0.08498   -0.10545      1.377
             1       C                   1.007     -0.169      0.024    2.80852   -0.33462    0.97307      1.021
             4       C                  -0.383      0.918     -0.156   -0.93678   -0.11973   -0.03235      1.007



       FINAL  POINT  AND  DERIVATIVES

   PARAMETER     ATOM    TYPE            VALUE        GRADIENT
      1          1  C    CARTESIAN X     2.808517      1.006775  KCAL/ANGSTROM
      2          1  C    CARTESIAN Y    -0.334621     -0.168773  KCAL/ANGSTROM
      3          1  C    CARTESIAN Z     0.973074      0.023616  KCAL/ANGSTROM
      4          2  C    CARTESIAN X     1.311869     -0.556123  KCAL/ANGSTROM
      5          2  C    CARTESIAN Y    -0.642448     -0.583374  KCAL/ANGSTROM
      6          2  C    CARTESIAN Z     1.021762      0.358035  KCAL/ANGSTROM
      7          3  C    CARTESIAN X     0.567836     -0.141113  KCAL/ANGSTROM
      8          3  C    CARTESIAN Y     0.084980     -1.344273  KCAL/ANGSTROM
      9          3  C    CARTESIAN Z    -0.105455     -0.261642  KCAL/ANGSTROM
     10          4  C    CARTESIAN X    -0.936785     -0.383419  KCAL/ANGSTROM
     11          4  C    CARTESIAN Y    -0.119734      0.917879  KCAL/ANGSTROM
     12          4  C    CARTESIAN Z    -0.032350     -0.155932  KCAL/ANGSTROM
     13          5  C    CARTESIAN X    -1.358243     -0.564475  KCAL/ANGSTROM
     14          5  C    CARTESIAN Y    -1.566265     -1.799299  KCAL/ANGSTROM
     15          5  C    CARTESIAN Z    -0.187093      0.213405  KCAL/ANGSTROM
     16          6  C    CARTESIAN X    -1.650377     -1.212961  KCAL/ANGSTROM
     17          6  C    CARTESIAN Y     0.618011     -2.015156  KCAL/ANGSTROM
     18          6  C    CARTESIAN Z     1.175179      1.794052  KCAL/ANGSTROM
     19          7  C    CARTESIAN X    -2.401228      0.932023  KCAL/ANGSTROM
     20          7  C    CARTESIAN Y     1.499723      3.152653  KCAL/ANGSTROM
     21          7  C    CARTESIAN Z     0.160486     -2.057873  KCAL/ANGSTROM
     22          8  O    CARTESIAN X    -1.427940     -2.861053  KCAL/ANGSTROM
     23          8  O    CARTESIAN Y     2.171093     -4.487382  KCAL/ANGSTROM
     24          8  O    CARTESIAN Z    -0.648938      1.036899  KCAL/ANGSTROM
     25          9  C    CARTESIAN X    -1.730735      0.416182  KCAL/ANGSTROM
     26          9  C    CARTESIAN Y     0.818256      3.155706  KCAL/ANGSTROM
     27          9  C    CARTESIAN Z    -0.999482     -0.935036  KCAL/ANGSTROM
     28         10  H    CARTESIAN X     3.248762     -0.191440  KCAL/ANGSTROM
     29         10  H    CARTESIAN Y    -0.637859     -0.222299  KCAL/ANGSTROM
     30         10  H    CARTESIAN Z     0.016174     -0.019240  KCAL/ANGSTROM
     31         11  H    CARTESIAN X     3.001825     -0.309459  KCAL/ANGSTROM
     32         11  H    CARTESIAN Y     0.736950      0.097106  KCAL/ANGSTROM
     33         11  H    CARTESIAN Z     1.100969      0.143089  KCAL/ANGSTROM
     34         12  H    CARTESIAN X     3.347696     -0.301704  KCAL/ANGSTROM
     35         12  H    CARTESIAN Y    -0.864554     -0.100765  KCAL/ANGSTROM
     36         12  H    CARTESIAN Z     1.766450     -0.025269  KCAL/ANGSTROM
     37         13  H    CARTESIAN X     0.894555      0.210381  KCAL/ANGSTROM
     38         13  H    CARTESIAN Y    -0.345803      0.281728  KCAL/ANGSTROM
     39         13  H    CARTESIAN Z     2.002800     -0.101132  KCAL/ANGSTROM
     40         14  H    CARTESIAN X     1.151105      0.392661  KCAL/ANGSTROM
     41         14  H    CARTESIAN Y    -1.734012      0.322791  KCAL/ANGSTROM
     42         14  H    CARTESIAN Z     0.940987     -0.247156  KCAL/ANGSTROM
     43         15  H    CARTESIAN X     0.946180      0.035894  KCAL/ANGSTROM
     44         15  H    CARTESIAN Y    -0.253231      0.583325  KCAL/ANGSTROM
     45         15  H    CARTESIAN Z    -1.089426      0.292294  KCAL/ANGSTROM
     46         16  H    CARTESIAN X     0.794882     -0.294974  KCAL/ANGSTROM
     47         16  H    CARTESIAN Y     1.171834      0.744155  KCAL/ANGSTROM
     48         16  H    CARTESIAN Z    -0.063875     -0.157416  KCAL/ANGSTROM
     49         17  H    CARTESIAN X    -1.022390     -0.006760  KCAL/ANGSTROM
     50         17  H    CARTESIAN Y    -2.171093      0.691086  KCAL/ANGSTROM
     51         17  H    CARTESIAN Z     0.663987     -0.590000  KCAL/ANGSTROM
     52         18  H    CARTESIAN X    -2.447915      0.644199  KCAL/ANGSTROM
     53         18  H    CARTESIAN Y    -1.672503      0.306993  KCAL/ANGSTROM
     54         18  H    CARTESIAN Z    -0.247451      0.307337  KCAL/ANGSTROM
     55         19  H    CARTESIAN X    -0.929428      0.285498  KCAL/ANGSTROM
     56         19  H    CARTESIAN Y    -2.013573      0.239300  KCAL/ANGSTROM
     57         19  H    CARTESIAN Z    -1.092641      0.350156  KCAL/ANGSTROM
     58         20  H    CARTESIAN X    -0.972213      0.056029  KCAL/ANGSTROM
     59         20  H    CARTESIAN Y     1.161780      0.473119  KCAL/ANGSTROM
     60         20  H    CARTESIAN Z     1.836327     -0.839046  KCAL/ANGSTROM
     61         21  H    CARTESIAN X    -2.292051      0.625320  KCAL/ANGSTROM
     62         21  H    CARTESIAN Y    -0.026533      0.261951  KCAL/ANGSTROM
     63         21  H    CARTESIAN Z     1.775576     -0.563697  KCAL/ANGSTROM
     64         22  H    CARTESIAN X    -3.347696      1.887924  KCAL/ANGSTROM
     65         22  H    CARTESIAN Y     1.968775     -0.649361  KCAL/ANGSTROM
     66         22  H    CARTESIAN Z     0.302799     -0.207432  KCAL/ANGSTROM
     67         23  H    CARTESIAN X    -2.010197      0.330595  KCAL/ANGSTROM
     68         23  H    CARTESIAN Y     0.598815      0.142890  KCAL/ANGSTROM
     69         23  H    CARTESIAN Z    -2.002800      1.641986  KCAL/ANGSTROM




   ATOM   CHEMICAL          X               Y               Z
  NUMBER   SYMBOL      (ANGSTROMS)     (ANGSTROMS)     (ANGSTROMS)

     1       C          2.80851683  *  -0.33462094  *   0.97307359  *
     2       C          1.31186894  *  -0.64244807  *   1.02176168  *
     3       C          0.56783571  *   0.08498034  *  -0.10545495  *
     4       C         -0.93678464  *  -0.11973428  *  -0.03235025  *
     5       C         -1.35824290  *  -1.56626540  *  -0.18709349  *
     6       C         -1.65037697  *   0.61801062  *   1.17517862  *
     7       C         -2.40122769  *   1.49972335  *   0.16048629  *
     8       O         -1.42794044  *   2.17109254  *  -0.64893765  *
     9       C         -1.73073539  *   0.81825597  *  -0.99948218  *
    10       H          3.24876165  *  -0.63785914  *   0.01617444  *
    11       H          3.00182504  *   0.73695025  *   1.10096934  *
    12       H          3.34769628  *  -0.86455417  *   1.76645035  *
    13       H          0.89455505  *  -0.34580334  *   2.00279990  *
    14       H          1.15110539  *  -1.73401230  *   0.94098688  *
    15       H          0.94617985  *  -0.25323136  *  -1.08942628  *
    16       H          0.79488179  *   1.17183392  *  -0.06387451  *
    17       H         -1.02239007  *  -2.17109254  *   0.66398726  *
    18       H         -2.44791474  *  -1.67250298  *  -0.24745105  *
    19       H         -0.92942790  *  -2.01357331  *  -1.09264131  *
    20       H         -0.97221339  *   1.16178034  *   1.83632724  *
    21       H         -2.29205134  *  -0.02653302  *   1.77557600  *
    22       H         -3.34769628  *   1.96877521  *   0.30279871  *
    23       H         -2.01019711  *   0.59881511  *  -2.00279990  *

                             CARTESIAN COORDINATES

   1    C        2.808516832    -0.334620940     0.973073588
   2    C        1.311868943    -0.642448074     1.021761676
   3    C        0.567835710     0.084980336    -0.105454948
   4    C       -0.936784636    -0.119734283    -0.032350248
   5    C       -1.358242903    -1.566265399    -0.187093489
   6    C       -1.650376973     0.618010620     1.175178623
   7    C       -2.401227690     1.499723354     0.160486293
   8    O       -1.427940439     2.171092540    -0.648937653
   9    C       -1.730735395     0.818255974    -0.999482184
  10    H        3.248761653    -0.637859136     0.016174439
  11    H        3.001825040     0.736950255     1.100969337
  12    H        3.347696282    -0.864554170     1.766450352
  13    H        0.894555048    -0.345803341     2.002799898
  14    H        1.151105385    -1.734012297     0.940986882
  15    H        0.946179851    -0.253231365    -1.089426283
  16    H        0.794881794     1.171833923    -0.063874507
  17    H       -1.022390071    -2.171092540     0.663987257
  18    H       -2.447914742    -1.672502980    -0.247451046
  19    H       -0.929427899    -2.013573306    -1.092641305
  20    H       -0.972213394     1.161780345     1.836327238
  21    H       -2.292051337    -0.026533024     1.775576001
  22    H       -3.347696282     1.968775212     0.302798710
  23    H       -2.010197111     0.598815112    -2.002799898


           Empirical Formula: C8 H14 O  =    23 atoms



      MOLECULAR POINT GROUP   :   C1  


                  EIGENVALUES  
 -33.03511 -29.20256 -27.34784 -25.01599 -23.67619 -22.65677 -21.07325 -19.98472
 -18.19260 -17.00241 -16.08552 -15.86258 -15.61224 -14.83148 -14.08684 -14.06323
 -13.46307 -13.04400 -12.86674 -12.46974 -12.24006 -11.85351 -11.44357 -11.27588
 -10.86219 -10.41454   1.93193   2.24349   3.08703   3.18499   3.53696   3.99614
   4.31287   4.59137   4.68675   4.82902   5.47251   5.67087   5.78366   5.80344
   5.84618   5.86587   5.90517   5.90902   6.17961   6.43618   6.67461   6.70023
   7.01568   7.07584


              NET ATOMIC CHARGES AND DIPOLE CONTRIBUTIONS

  ATOM NO.   TYPE          CHARGE      No. of ELECS.   s-Pop       p-Pop       
    1          C          -0.451248        4.4512     1.05330     3.39795
    2          C          -0.252146        4.2521     1.05496     3.19719
    3          C          -0.297419        4.2974     1.06154     3.23588
    4          C           0.066113        3.9339     1.07247     2.86142
    5          C          -0.469683        4.4697     1.05455     3.41514
    6          C          -0.333581        4.3336     1.08268     3.25090
    7          C           0.015212        3.9848     1.10099     2.88380
    8          O          -0.422980        6.4230     1.91689     4.50609
    9          C          -0.019620        4.0196     1.11375     2.90587
   10          H           0.147209        0.8528     0.85279
   11          H           0.148540        0.8515     0.85146
   12          H           0.145549        0.8545     0.85445
   13          H           0.138331        0.8617     0.86167
   14          H           0.138325        0.8617     0.86167
   15          H           0.148724        0.8513     0.85128
   16          H           0.153205        0.8468     0.84679
   17          H           0.159597        0.8404     0.84040
   18          H           0.157048        0.8430     0.84295
   19          H           0.157554        0.8424     0.84245
   20          H           0.162677        0.8373     0.83732
   21          H           0.162613        0.8374     0.83739
   22          H           0.173577        0.8264     0.82642
   23          H           0.172404        0.8276     0.82760
 DIPOLE           X         Y         Z       TOTAL
 POINT-CHG.    -1.128    -3.147     0.831     3.444
 HYBRID         0.308     0.603    -0.141     0.692
 SUM           -0.819    -2.544     0.690     2.760


          ATOMIC ORBITAL ELECTRON POPULATIONS

     Atom    s        px        py        pz   
    1  C   1.05330   1.04557   1.17455   1.17783
    2  C   1.05496   0.99288   1.12212   1.08219
    3  C   1.06154   0.99716   1.14210   1.09661
    4  C   1.07247   0.96516   0.94471   0.95154
    5  C   1.05455   1.17451   1.05257   1.18806
    6  C   1.08268   1.10897   1.08623   1.05570
    7  C   1.10099   0.96940   0.96583   0.94857
    8  O   1.91689   1.64366   1.28101   1.58141
    9  C   1.11375   1.03682   0.82376   1.04529
   10  H   0.85279
   11  H   0.85146
   12  H   0.85445
   13  H   0.86167
   14  H   0.86167
   15  H   0.85128
   16  H   0.84679
   17  H   0.84040
   18  H   0.84295
   19  H   0.84245
   20  H   0.83732
   21  H   0.83739
   22  H   0.82642
   23  H   0.82760

 **********************
 *                    *
 * JOB ENDED NORMALLY *
 *                    *
 **********************



 TOTAL JOB TIME:             1.35 SECONDS

 == MOPAC DONE ==
