 *******************************************************************************
 **                                                                           **
 **                              MOPAC v23.2                                  **
 **                                                                           **
 *******************************************************************************
 **          Digital Object Identifier (DOI): 10.5281/zenodo.6511958          **
 **    Visit the DOI location for information on how to cite this program.    **
 *******************************************************************************

                              PM7 CALCULATION RESULTS

 *******************************************************************************
 *  CALCULATION DONE: (MAX THREADS = 40)             Fri Sep 19 21:38:13 2025  *
 *  PM7        - The PM7 Hamiltonian to be used
 *
 *
 *
 *                 CHARGE ON SYSTEM = +1
 *
 *
 *
 *  EPS=37.5   - USE ANDREAS KLAMT'S COSMO IMPLICIT SOLVATION MODEL
 *  1SCF       - DO 1 SCF AND THEN STOP 
 *  T=         - A TIME OF 172800.0 SECONDS REQUESTED
 *  DUMP=N     - RESTART FILE WRITTEN EVERY 7200.0 SECONDS REQUESTED
 *  RELSCF     - DEFAULT SCF CRITERION MULTIPLIED BY 0.0001
 *              (DEFAULT SCF CRITERION = 0.00010)
 *  GRADIENTS  - ALL GRADIENTS TO BE PRINTED
 *  DISP       - PRINT DISPERSION AND HYDROGEN BOND ENERGIES
 *******************************************************************************
PM7 1SCF GRADIENTS EPS=37.5 DISP RELSCF=0.0001 CHARGE=1
 Title: ASE calculation

   ATOM   CHEMICAL          X               Y               Z
  NUMBER   SYMBOL      (ANGSTROMS)     (ANGSTROMS)     (ANGSTROMS)

     1       C         -1.40417161  *  -1.87308954  *   0.51365282  *
     2       C         -1.21517382  *  -0.77821257  *  -0.52532296  *
     3       C         -2.08481237  *   0.46493257  *  -0.24701093  *
     4       C         -1.18800467  *   1.60328290  *   0.01113518  *
     5       O         -1.12068830  *   2.72634595  *   0.29766509  *
     6       O          0.27888644  *   0.97875456  *  -0.20810011  *
     7       C          0.19974851  *  -0.25327781  *  -0.48409949  *
     8       C          1.43028413  *  -1.03082508  *  -0.72007852  *
     9       C          2.10437090  *  -1.33582471  *   0.55264573  *
    10       H         -1.24773396  *  -1.52639046  *   1.54516854  *
    11       H         -2.42409692  *  -2.29485663  *   0.47570169  *
    12       H         -0.72438684  *  -2.72634595  *   0.35700755  *
    13       H         -1.44386730  *  -1.19880702  *  -1.54516854  *
    14       H         -2.77873925  *   0.68460542  *  -1.09988910  *
    15       H         -2.78108409  *   0.30107615  *   0.61879521  *
    16       H          1.22750919  *  -1.96737478  *  -1.30219888  *
    17       H          2.16175621  *  -0.45147531  *  -1.36601142  *
    18       H          2.00287715  *  -0.72188113  *   1.42036785  *
    19       H          2.78108409  *  -2.16587976  *   0.61699518  *



          CARTESIAN COORDINATES 

    NO.       ATOM           X           Y           Z

     1         C         -1.4042     -1.8731      0.5137
     2         C         -1.2152     -0.7782     -0.5253
     3         C         -2.0848      0.4649     -0.2470
     4         C         -1.1880      1.6033      0.0111
     5         O         -1.1207      2.7263      0.2977
     6         O          0.2789      0.9788     -0.2081
     7         C          0.1997     -0.2533     -0.4841
     8         C          1.4303     -1.0308     -0.7201
     9         C          2.1044     -1.3358      0.5526
    10         H         -1.2477     -1.5264      1.5452
    11         H         -2.4241     -2.2949      0.4757
    12         H         -0.7244     -2.7263      0.3570
    13         H         -1.4439     -1.1988     -1.5452
    14         H         -2.7787      0.6846     -1.0999
    15         H         -2.7811      0.3011      0.6188
    16         H          1.2275     -1.9674     -1.3022
    17         H          2.1618     -0.4515     -1.3660
    18         H          2.0029     -0.7219      1.4204
    19         H          2.7811     -2.1659      0.6170

 General Reference for PM7:
 "Optimization of Parameters for Semiempirical Methods VI: More Modifications to the 
 NDDO Approximations and Re-optimization of Parameters", J. J. P. Stewart, J. Mol. Mod., 1:32, 19 (2013)
 https://link.springer.com/article/10.1007/s00894-012-1667-x

           Empirical Formula: C7 H10 O2  =    19 atoms



      MOLECULAR POINT GROUP   :   C1  


          UHF CALCULATION, NO. OF ALPHA ELECTRONS =   25
                           NO. OF BETA  ELECTRONS =   24
  SCF CRITERION =    0.1000E-07

 -------------------------------------------------------------------------------
 PM7 1SCF GRADIENTS EPS=37.5 DISP RELSCF=0.0001 CHARGE=1
 Title: ASE calculation



     1SCF WAS SPECIFIED, SO BFGS WAS NOT USED                 
     SCF FIELD WAS ACHIEVED                                   


                              PM7 CALCULATION
                                                       MOPAC v23.2 Linux
                                                       Fri Sep 19 21:38:16 2025




          FINAL HEAT OF FORMATION =         64.75298 KCAL/MOL =     270.92646 KJ/MOL

          TOTAL ENERGY            =     -36415.76078 KCAL/MOL = ELECTRONIC ENERGY + CORE-CORE REPULSION + SOLVATION ENERGY
          ENERGY OF ATOMS         =      36482.50324 KCAL/MOL
                              SUM =         66.74245 KCAL/MOL
          DISPERSION ENERGY       =         -1.98948 KCAL/MOL
                              SUM =         64.75298 KCAL/MOL = FINAL HEAT OF FORMATION

          VAN DER WAALS AREA      =        165.19 SQUARE ANGSTROMS


          TOTAL ENERGY            =      -1579.13685 EV
          ELECTRONIC ENERGY       =      -2297.75210 EV 
          CORE-CORE REPULSION     =        718.61526 EV

          DIELECTRIC ENERGY       =         -2.39995 EV
          COSMO AREA              =        165.19 SQUARE ANGSTROMS
          COSMO VOLUME            =        164.59 CUBIC ANGSTROMS

          GRADIENT NORM           =         23.61122          =       5.41678 PER ATOM
          IONIZATION POTENTIAL    =          9.985456 EV
          ALPHA SOMO LUMO (EV)    =         -9.985 -1.566
          BETA  SOMO LUMO (EV)    =        -12.356 -1.546
          NO. OF ALPHA ELECTRONS  =         25
          NO. OF BETA  ELECTRONS  =         24
          MOLECULAR WEIGHT        =        126.1548         POINT GROUP:  C1  

          MOLECULAR DIMENSIONS (Angstroms)

            Atom       Atom       Distance
            H    19    H    14     6.47955
            H    11    O     5     5.06445
            H    10    H    17     3.54347


          SCF CALCULATIONS        =          2

          WALL-CLOCK TIME         =      2.602 SECONDS
          COMPUTATION TIME        =      0.495 SECONDS

          LARGEST ATOMIC GRADIENTS

          Atom     Label                     Cartesian Gradients           Cartesian Coordinates       |Gradient|
                                           X          Y          Z        X          Y          Z

             4       C                   3.689     13.421      4.220   -1.18800    1.60328    0.01114     14.544
             8       C                  -1.733     -0.557     -8.473    1.43028   -1.03083   -0.72008      8.667
             7       C                   3.952      6.582      3.629    0.19975   -0.25328   -0.48410      8.492
             5       O                  -1.561     -6.927     -1.595   -1.12069    2.72635    0.29767      7.278
             6       O                  -0.611     -6.422     -1.968    0.27889    0.97875   -0.20810      6.744
             3       C                  -5.559     -0.463     -2.259   -2.08481    0.46493   -0.24701      6.018
             2       C                  -1.506     -1.623     -4.176   -1.21517   -0.77821   -0.52532      4.727
            17       H                   1.522      0.530      1.856    2.16176   -0.45148   -1.36601      2.458
             1       C                  -0.380      2.277     -0.605   -1.40417   -1.87309    0.51365      2.387
             9       C                  -1.770     -0.010      1.401    2.10437   -1.33582    0.55265      2.257



       FINAL  POINT  AND  DERIVATIVES

   PARAMETER     ATOM    TYPE            VALUE        GRADIENT
      1          1  C    CARTESIAN X    -1.404172     -0.380330  KCAL/ANGSTROM
      2          1  C    CARTESIAN Y    -1.873090      2.277197  KCAL/ANGSTROM
      3          1  C    CARTESIAN Z     0.513653     -0.605124  KCAL/ANGSTROM
      4          2  C    CARTESIAN X    -1.215174     -1.506344  KCAL/ANGSTROM
      5          2  C    CARTESIAN Y    -0.778213     -1.622533  KCAL/ANGSTROM
      6          2  C    CARTESIAN Z    -0.525323     -4.176234  KCAL/ANGSTROM
      7          3  C    CARTESIAN X    -2.084812     -5.558799  KCAL/ANGSTROM
      8          3  C    CARTESIAN Y     0.464933     -0.462554  KCAL/ANGSTROM
      9          3  C    CARTESIAN Z    -0.247011     -2.258826  KCAL/ANGSTROM
     10          4  C    CARTESIAN X    -1.188005      3.689004  KCAL/ANGSTROM
     11          4  C    CARTESIAN Y     1.603283     13.420897  KCAL/ANGSTROM
     12          4  C    CARTESIAN Z     0.011135      4.220453  KCAL/ANGSTROM
     13          5  O    CARTESIAN X    -1.120688     -1.560900  KCAL/ANGSTROM
     14          5  O    CARTESIAN Y     2.726346     -6.927096  KCAL/ANGSTROM
     15          5  O    CARTESIAN Z     0.297665     -1.594739  KCAL/ANGSTROM
     16          6  O    CARTESIAN X     0.278886     -0.610791  KCAL/ANGSTROM
     17          6  O    CARTESIAN Y     0.978755     -6.421955  KCAL/ANGSTROM
     18          6  O    CARTESIAN Z    -0.208100     -1.967739  KCAL/ANGSTROM
     19          7  C    CARTESIAN X     0.199749      3.951685  KCAL/ANGSTROM
     20          7  C    CARTESIAN Y    -0.253278      6.582013  KCAL/ANGSTROM
     21          7  C    CARTESIAN Z    -0.484099      3.629262  KCAL/ANGSTROM
     22          8  C    CARTESIAN X     1.430284     -1.733359  KCAL/ANGSTROM
     23          8  C    CARTESIAN Y    -1.030825     -0.557132  KCAL/ANGSTROM
     24          8  C    CARTESIAN Z    -0.720079     -8.473354  KCAL/ANGSTROM
     25          9  C    CARTESIAN X     2.104371     -1.769804  KCAL/ANGSTROM
     26          9  C    CARTESIAN Y    -1.335825     -0.009591  KCAL/ANGSTROM
     27          9  C    CARTESIAN Z     0.552646      1.400898  KCAL/ANGSTROM
     28         10  H    CARTESIAN X    -1.247734      0.001346  KCAL/ANGSTROM
     29         10  H    CARTESIAN Y    -1.526390     -1.059338  KCAL/ANGSTROM
     30         10  H    CARTESIAN Z     1.545169      0.498843  KCAL/ANGSTROM
     31         11  H    CARTESIAN X    -2.424097     -0.538804  KCAL/ANGSTROM
     32         11  H    CARTESIAN Y    -2.294857     -1.481464  KCAL/ANGSTROM
     33         11  H    CARTESIAN Z     0.475702      0.562562  KCAL/ANGSTROM
     34         12  H    CARTESIAN X    -0.724387     -0.012272  KCAL/ANGSTROM
     35         12  H    CARTESIAN Y    -2.726346     -1.059351  KCAL/ANGSTROM
     36         12  H    CARTESIAN Z     0.357008      0.906288  KCAL/ANGSTROM
     37         13  H    CARTESIAN X    -1.443867     -0.471510  KCAL/ANGSTROM
     38         13  H    CARTESIAN Y    -1.198807     -0.367158  KCAL/ANGSTROM
     39         13  H    CARTESIAN Z    -1.545169      2.121047  KCAL/ANGSTROM
     40         14  H    CARTESIAN X    -2.778739      0.534571  KCAL/ANGSTROM
     41         14  H    CARTESIAN Y     0.684605     -0.913174  KCAL/ANGSTROM
     42         14  H    CARTESIAN Z    -1.099889      1.093342  KCAL/ANGSTROM
     43         15  H    CARTESIAN X    -2.781084      0.626117  KCAL/ANGSTROM
     44         15  H    CARTESIAN Y     0.301076     -0.871078  KCAL/ANGSTROM
     45         15  H    CARTESIAN Z     0.618795     -0.310817  KCAL/ANGSTROM
     46         16  H    CARTESIAN X     1.227509      0.755852  KCAL/ANGSTROM
     47         16  H    CARTESIAN Y    -1.967375     -0.261105  KCAL/ANGSTROM
     48         16  H    CARTESIAN Z    -1.302199      1.818507  KCAL/ANGSTROM
     49         17  H    CARTESIAN X     2.161756      1.522068  KCAL/ANGSTROM
     50         17  H    CARTESIAN Y    -0.451475      0.529983  KCAL/ANGSTROM
     51         17  H    CARTESIAN Z    -1.366011      1.856089  KCAL/ANGSTROM
     52         18  H    CARTESIAN X     2.002877      1.462092  KCAL/ANGSTROM
     53         18  H    CARTESIAN Y    -0.721881      0.131012  KCAL/ANGSTROM
     54         18  H    CARTESIAN Z     1.420368      0.586352  KCAL/ANGSTROM
     55         19  H    CARTESIAN X     2.781084      1.600177  KCAL/ANGSTROM
     56         19  H    CARTESIAN Y    -2.165880     -0.927577  KCAL/ANGSTROM
     57         19  H    CARTESIAN Z     0.616995      0.693186  KCAL/ANGSTROM




   ATOM   CHEMICAL          X               Y               Z
  NUMBER   SYMBOL      (ANGSTROMS)     (ANGSTROMS)     (ANGSTROMS)

     1       C         -1.40417161  *  -1.87308954  *   0.51365282  *
     2       C         -1.21517382  *  -0.77821257  *  -0.52532296  *
     3       C         -2.08481237  *   0.46493257  *  -0.24701093  *
     4       C         -1.18800467  *   1.60328290  *   0.01113518  *
     5       O         -1.12068830  *   2.72634595  *   0.29766509  *
     6       O          0.27888644  *   0.97875456  *  -0.20810011  *
     7       C          0.19974851  *  -0.25327781  *  -0.48409949  *
     8       C          1.43028413  *  -1.03082508  *  -0.72007852  *
     9       C          2.10437090  *  -1.33582471  *   0.55264573  *
    10       H         -1.24773396  *  -1.52639046  *   1.54516854  *
    11       H         -2.42409692  *  -2.29485663  *   0.47570169  *
    12       H         -0.72438684  *  -2.72634595  *   0.35700755  *
    13       H         -1.44386730  *  -1.19880702  *  -1.54516854  *
    14       H         -2.77873925  *   0.68460542  *  -1.09988910  *
    15       H         -2.78108409  *   0.30107615  *   0.61879521  *
    16       H          1.22750919  *  -1.96737478  *  -1.30219888  *
    17       H          2.16175621  *  -0.45147531  *  -1.36601142  *
    18       H          2.00287715  *  -0.72188113  *   1.42036785  *
    19       H          2.78108409  *  -2.16587976  *   0.61699518  *

                             CARTESIAN COORDINATES

   1    C       -1.404171607    -1.873089542     0.513652818
   2    C       -1.215173819    -0.778212568    -0.525322957
   3    C       -2.084812367     0.464932567    -0.247010931
   4    C       -1.188004665     1.603282896     0.011135178
   5    O       -1.120688305     2.726345955     0.297665092
   6    O        0.278886440     0.978754560    -0.208100113
   7    C        0.199748513    -0.253277810    -0.484099486
   8    C        1.430284126    -1.030825083    -0.720078515
   9    C        2.104370905    -1.335824706     0.552645728
  10    H       -1.247733961    -1.526390458     1.545168538
  11    H       -2.424096915    -2.294856631     0.475701692
  12    H       -0.724386842    -2.726345955     0.357007549
  13    H       -1.443867302    -1.198807025    -1.545168538
  14    H       -2.778739251     0.684605418    -1.099889096
  15    H       -2.781084092     0.301076152     0.618795209
  16    H        1.227509186    -1.967374783    -1.302198878
  17    H        2.161756214    -0.451475311    -1.366011420
  18    H        2.002877153    -0.721881133     1.420367846
  19    H        2.781084092    -2.165879762     0.616995176


           Empirical Formula: C7 H10 O2  =    19 atoms



      MOLECULAR POINT GROUP   :   C1  


          ALPHA EIGENVALUES  
 -34.11593 -33.73651 -30.09274 -29.00136 -26.11889 -24.10649 -21.86107 -21.69750
 -20.61313 -18.20251 -17.77472 -17.04265 -16.74455 -15.94838 -15.85006 -15.65586
 -14.78758 -14.66802 -14.37899 -13.78765 -13.53620 -13.37449 -12.89636 -12.37594
  -9.98546  -1.56555  -0.45478  -0.41267   1.28233   1.60269   1.84438   2.60542
   2.85292   3.11516   3.49795   3.70580   4.26040   4.44486   4.72612   5.07584
   5.15460   5.21565   5.27773   5.68280   5.84642   6.33683


           BETA EIGENVALUES 
 -34.11572 -33.74119 -30.09323 -28.90463 -26.08007 -23.99291 -21.84181 -21.55307
 -20.52973 -18.18607 -17.74949 -16.97882 -16.68692 -15.90688 -15.78835 -15.61519
 -14.76163 -14.50749 -14.24017 -13.68022 -13.42472 -13.37019 -12.89065 -12.35630
  -1.54552  -0.46531  -0.41452   0.01041   1.28945   1.60403   1.85965   2.63632
   2.85653   3.11819   3.70432   3.81944   4.26121   4.52670   4.72662   5.07636
   5.16147   5.21603   5.33827   5.84552   6.10400   6.33767


              NET ATOMIC CHARGES AND DIPOLE CONTRIBUTIONS

  ATOM NO.   TYPE          CHARGE      No. of ELECS.   s-Pop       p-Pop       
    1          C          -0.454334        4.4543     1.05390     3.40043
    2          C          -0.172556        4.1726     1.07894     3.09362
    3          C          -0.363821        4.3638     1.07548     3.28834
    4          C           0.642873        3.3571     1.17745     2.17968
    5          O          -0.248525        6.2485     1.86468     4.38384
    6          O          -0.384049        6.3840     1.87425     4.50979
    7          C           0.549808        3.4502     1.18108     2.26911
    8          C          -0.366651        4.3667     1.05901     3.30764
    9          C          -0.285038        4.2850     1.12099     3.16405
   10          H           0.175205        0.8248     0.82480
   11          H           0.187175        0.8128     0.81283
   12          H           0.177128        0.8229     0.82287
   13          H           0.233953        0.7660     0.76605
   14          H           0.250021        0.7500     0.74998
   15          H           0.249747        0.7503     0.75025
   16          H           0.227602        0.7724     0.77240
   17          H           0.250913        0.7491     0.74909
   18          H           0.160753        0.8392     0.83925
   19          H           0.169797        0.8302     0.83020
 DIPOLE           X         Y         Z       TOTAL
 POINT-CHG.    -2.759    -4.393    -2.344     5.692
 HYBRID         0.266     1.054     0.054     1.089
 SUM           -2.493    -3.338    -2.290     4.754


          ATOMIC ORBITAL ELECTRON POPULATIONS

     Atom    s        px        py        pz   
    1  C   1.05390   1.21977   1.08445   1.09622
    2  C   1.07894   0.93073   1.01203   1.15085
    3  C   1.07548   1.07032   0.96848   1.24953
    4  C   1.17745   0.71602   0.82026   0.64340
    5  O   1.86468   1.70193   1.25342   1.42850
    6  O   1.87425   1.61128   1.31059   1.58793
    7  C   1.18108   0.97396   0.79043   0.50473
    8  C   1.05901   1.03231   1.16015   1.11519
    9  C   1.12099   1.05230   1.10779   1.00395
   10  H   0.82480
   11  H   0.81283
   12  H   0.82287
   13  H   0.76605
   14  H   0.74998
   15  H   0.75025
   16  H   0.77240
   17  H   0.74909
   18  H   0.83925
   19  H   0.83020


                    (SZ)    =    0.500000
                    (S**2)  =    0.753181


          ATOMIC ORBITAL SPIN POPULATIONS

    Atom   Total    s     px     py     pz   
         Atomic
    1  C  0.0001  0.000  0.000  0.000 -0.000
    2  C  0.0010  0.000  0.001  0.000 -0.000
    3  C  0.0004  0.000  0.000  0.000  0.000
    4  C  0.0003  0.000  0.000  0.000  0.000
    5  O  0.0001  0.000  0.000  0.000 -0.000
    6  O -0.0037 -0.000 -0.000 -0.000 -0.003
    7  C  0.0075  0.002  0.003  0.002  0.000
    8  C -0.0349 -0.006 -0.009  0.003 -0.022
    9  C  1.0406  0.026  0.563  0.342  0.110
   10  H -0.0000 -0.000
   11  H  0.0001  0.000
   12  H -0.0000 -0.000
   13  H -0.0001 -0.000
   14  H -0.0000 -0.000
   15  H -0.0000 -0.000
   16  H  0.0118  0.012
   17  H  0.0351  0.035
   18  H -0.0289 -0.029
   19  H -0.0292 -0.029

 **********************
 *                    *
 * JOB ENDED NORMALLY *
 *                    *
 **********************



 TOTAL JOB TIME:             3.07 SECONDS

 == MOPAC DONE ==
