 *******************************************************************************
 **                                                                           **
 **                              MOPAC v23.2                                  **
 **                                                                           **
 *******************************************************************************
 **          Digital Object Identifier (DOI): 10.5281/zenodo.6511958          **
 **    Visit the DOI location for information on how to cite this program.    **
 *******************************************************************************

                              PM7 CALCULATION RESULTS

 *******************************************************************************
 *  CALCULATION DONE: (MAX THREADS = 40)             Fri Sep 19 21:44:01 2025  *
 *  PM7        - The PM7 Hamiltonian to be used
 *
 *
 *
 *                 CHARGE ON SYSTEM = +1
 *
 *
 *
 *  EPS=37.5   - USE ANDREAS KLAMT'S COSMO IMPLICIT SOLVATION MODEL
 *  1SCF       - DO 1 SCF AND THEN STOP 
 *  T=         - A TIME OF 172800.0 SECONDS REQUESTED
 *  DUMP=N     - RESTART FILE WRITTEN EVERY 7200.0 SECONDS REQUESTED
 *  RELSCF     - DEFAULT SCF CRITERION MULTIPLIED BY 0.0001
 *              (DEFAULT SCF CRITERION = 0.00010)
 *  GRADIENTS  - ALL GRADIENTS TO BE PRINTED
 *  DISP       - PRINT DISPERSION AND HYDROGEN BOND ENERGIES
 *******************************************************************************
PM7 1SCF GRADIENTS EPS=37.5 DISP RELSCF=0.0001 CHARGE=1
 Title: ASE calculation

   ATOM   CHEMICAL          X               Y               Z
  NUMBER   SYMBOL      (ANGSTROMS)     (ANGSTROMS)     (ANGSTROMS)

     1       C          2.05311166  *  -0.46101952  *  -2.06293907  *
     2       O          1.16262843  *   0.43062786  *  -1.33497971  *
     3       C          0.05288544  *  -0.01211654  *  -0.91472912  *
     4       C          0.57587062  *   0.39348482  *   1.97611823  *
     5       C         -0.27979980  *   1.32686757  *   1.24125307  *
     6       C         -0.92253521  *   0.75486794  *  -0.01049884  *
     7       C         -1.66763677  *  -0.60953945  *   0.16684882  *
     8       C         -2.15383945  *  -1.12252178  *  -1.13635712  *
     9       C         -0.64675375  *  -1.29083231  *  -0.86219995  *
    10       H          2.75869709  *  -0.88126035  *  -1.33081039  *
    11       H          2.56970361  *   0.23581877  *  -2.74878635  *
    12       H          1.52170910  *  -1.24108301  *  -2.61699283  *
    13       H          0.54975436  *  -0.65951624  *   1.82843506  *
    14       H          1.22807841  *   0.75066692  *   2.74878635  *
    15       H         -1.08897151  *   1.69676622  *   1.93254243  *
    16       H          0.28308827  *   2.26180610  *   0.98947275  *
    17       H         -1.52647327  *   1.52858900  *  -0.53642793  *
    18       H         -1.96192177  *  -0.96376055  *   1.14374044  *
    19       H         -2.75869709  *  -2.04180257  *  -1.15774038  *
    20       H         -2.49455287  *  -0.46138141  *  -1.93718986  *
    21       H         -0.17689593  *  -2.26180610  *  -0.88372818  *



          CARTESIAN COORDINATES 

    NO.       ATOM           X           Y           Z

     1         C          2.0531     -0.4610     -2.0629
     2         O          1.1626      0.4306     -1.3350
     3         C          0.0529     -0.0121     -0.9147
     4         C          0.5759      0.3935      1.9761
     5         C         -0.2798      1.3269      1.2413
     6         C         -0.9225      0.7549     -0.0105
     7         C         -1.6676     -0.6095      0.1668
     8         C         -2.1538     -1.1225     -1.1364
     9         C         -0.6468     -1.2908     -0.8622
    10         H          2.7587     -0.8813     -1.3308
    11         H          2.5697      0.2358     -2.7488
    12         H          1.5217     -1.2411     -2.6170
    13         H          0.5498     -0.6595      1.8284
    14         H          1.2281      0.7507      2.7488
    15         H         -1.0890      1.6968      1.9325
    16         H          0.2831      2.2618      0.9895
    17         H         -1.5265      1.5286     -0.5364
    18         H         -1.9619     -0.9638      1.1437
    19         H         -2.7587     -2.0418     -1.1577
    20         H         -2.4946     -0.4614     -1.9372
    21         H         -0.1769     -2.2618     -0.8837

 General Reference for PM7:
 "Optimization of Parameters for Semiempirical Methods VI: More Modifications to the 
 NDDO Approximations and Re-optimization of Parameters", J. J. P. Stewart, J. Mol. Mod., 1:32, 19 (2013)
 https://link.springer.com/article/10.1007/s00894-012-1667-x

           Empirical Formula: C8 H12 O  =    21 atoms



      MOLECULAR POINT GROUP   :   C1  


          UHF CALCULATION, NO. OF ALPHA ELECTRONS =   25
                           NO. OF BETA  ELECTRONS =   24
  SCF CRITERION =    0.1000E-07

 -------------------------------------------------------------------------------
 PM7 1SCF GRADIENTS EPS=37.5 DISP RELSCF=0.0001 CHARGE=1
 Title: ASE calculation



     1SCF WAS SPECIFIED, SO BFGS WAS NOT USED                 
     SCF FIELD WAS ACHIEVED                                   


                              PM7 CALCULATION
                                                       MOPAC v23.2 Linux
                                                       Fri Sep 19 21:44:03 2025




          FINAL HEAT OF FORMATION =        162.34289 KCAL/MOL =     679.24264 KJ/MOL

          TOTAL ENERGY            =     -33002.85174 KCAL/MOL = ELECTRONIC ENERGY + CORE-CORE REPULSION + SOLVATION ENERGY
          ENERGY OF ATOMS         =      33167.45855 KCAL/MOL
                              SUM =        164.60681 KCAL/MOL
          DISPERSION ENERGY       =         -2.26393 KCAL/MOL
                              SUM =        162.34289 KCAL/MOL = FINAL HEAT OF FORMATION

          VAN DER WAALS AREA      =        171.51 SQUARE ANGSTROMS


          TOTAL ENERGY            =      -1431.13910 EV
          ELECTRONIC ENERGY       =      -2293.69068 EV 
          CORE-CORE REPULSION     =        862.55157 EV

          DIELECTRIC ENERGY       =         -2.09100 EV
          COSMO AREA              =        171.51 SQUARE ANGSTROMS
          COSMO VOLUME            =        173.54 CUBIC ANGSTROMS

          GRADIENT NORM           =          9.67675          =       2.11164 PER ATOM
          IONIZATION POTENTIAL    =          9.642414 EV
          ALPHA SOMO LUMO (EV)    =         -9.642 -1.665
          BETA  SOMO LUMO (EV)    =        -11.775 -1.667
          NO. OF ALPHA ELECTRONS  =         25
          NO. OF BETA  ELECTRONS  =         24
          MOLECULAR WEIGHT        =        124.1822         POINT GROUP:  C1  

          MOLECULAR DIMENSIONS (Angstroms)

            Atom       Atom       Distance
            H    19    H    14     6.24125
            H    11    H    18     6.01135
            H    17    H    21     3.84299


          SCF CALCULATIONS        =          2

          WALL-CLOCK TIME         =      1.563 SECONDS
          COMPUTATION TIME        =      0.656 SECONDS

          LARGEST ATOMIC GRADIENTS

          Atom     Label                     Cartesian Gradients           Cartesian Coordinates       |Gradient|
                                           X          Y          Z        X          Y          Z

             9       C                   4.796     -0.038     -1.478   -0.64675   -1.29083   -0.86220      5.019
             3       C                  -1.708     -2.672      1.959    0.05289   -0.01212   -0.91473      3.728
             6       C                  -1.875      1.887     -1.847   -0.92254    0.75487   -0.01050      3.239
             4       C                  -0.213     -1.497     -2.731    0.57587    0.39348    1.97612      3.121
             2       O                   1.579      0.457     -1.272    1.16263    0.43063   -1.33498      2.079
             7       C                  -1.995      0.420     -0.359   -1.66764   -0.60954    0.16685      2.071
            14       H                   0.905     -0.029      1.748    1.22808    0.75067    2.74879      1.969
             5       C                  -0.705      1.483     -0.532   -0.27980    1.32687    1.24125      1.726
            11       H                   1.266      0.791     -0.443    2.56970    0.23582   -2.74879      1.557
             8       C                  -0.810      1.244      0.373   -2.15384   -1.12252   -1.13636      1.531



       FINAL  POINT  AND  DERIVATIVES

   PARAMETER     ATOM    TYPE            VALUE        GRADIENT
      1          1  C    CARTESIAN X     2.053112     -0.750486  KCAL/ANGSTROM
      2          1  C    CARTESIAN Y    -0.461020     -0.841126  KCAL/ANGSTROM
      3          1  C    CARTESIAN Z    -2.062939     -0.097374  KCAL/ANGSTROM
      4          2  O    CARTESIAN X     1.162628      1.579129  KCAL/ANGSTROM
      5          2  O    CARTESIAN Y     0.430628      0.457320  KCAL/ANGSTROM
      6          2  O    CARTESIAN Z    -1.334980     -1.272373  KCAL/ANGSTROM
      7          3  C    CARTESIAN X     0.052885     -1.708452  KCAL/ANGSTROM
      8          3  C    CARTESIAN Y    -0.012117     -2.672112  KCAL/ANGSTROM
      9          3  C    CARTESIAN Z    -0.914729      1.959040  KCAL/ANGSTROM
     10          4  C    CARTESIAN X     0.575871     -0.212656  KCAL/ANGSTROM
     11          4  C    CARTESIAN Y     0.393485     -1.496751  KCAL/ANGSTROM
     12          4  C    CARTESIAN Z     1.976118     -2.730541  KCAL/ANGSTROM
     13          5  C    CARTESIAN X    -0.279800     -0.705091  KCAL/ANGSTROM
     14          5  C    CARTESIAN Y     1.326868      1.482592  KCAL/ANGSTROM
     15          5  C    CARTESIAN Z     1.241253     -0.532308  KCAL/ANGSTROM
     16          6  C    CARTESIAN X    -0.922535     -1.875464  KCAL/ANGSTROM
     17          6  C    CARTESIAN Y     0.754868      1.886817  KCAL/ANGSTROM
     18          6  C    CARTESIAN Z    -0.010499     -1.847191  KCAL/ANGSTROM
     19          7  C    CARTESIAN X    -1.667637     -1.995497  KCAL/ANGSTROM
     20          7  C    CARTESIAN Y    -0.609539      0.420390  KCAL/ANGSTROM
     21          7  C    CARTESIAN Z     0.166849     -0.359071  KCAL/ANGSTROM
     22          8  C    CARTESIAN X    -2.153839     -0.810174  KCAL/ANGSTROM
     23          8  C    CARTESIAN Y    -1.122522      1.244125  KCAL/ANGSTROM
     24          8  C    CARTESIAN Z    -1.136357      0.373095  KCAL/ANGSTROM
     25          9  C    CARTESIAN X    -0.646754      4.796137  KCAL/ANGSTROM
     26          9  C    CARTESIAN Y    -1.290832     -0.037909  KCAL/ANGSTROM
     27          9  C    CARTESIAN Z    -0.862200     -1.478245  KCAL/ANGSTROM
     28         10  H    CARTESIAN X     2.758697      1.400021  KCAL/ANGSTROM
     29         10  H    CARTESIAN Y    -0.881260      0.040233  KCAL/ANGSTROM
     30         10  H    CARTESIAN Z    -1.330810     -0.010773  KCAL/ANGSTROM
     31         11  H    CARTESIAN X     2.569704      1.266199  KCAL/ANGSTROM
     32         11  H    CARTESIAN Y     0.235819      0.790867  KCAL/ANGSTROM
     33         11  H    CARTESIAN Z    -2.748786     -0.443290  KCAL/ANGSTROM
     34         12  H    CARTESIAN X     1.521709      0.325349  KCAL/ANGSTROM
     35         12  H    CARTESIAN Y    -1.241083     -0.349278  KCAL/ANGSTROM
     36         12  H    CARTESIAN Z    -2.616993     -0.246940  KCAL/ANGSTROM
     37         13  H    CARTESIAN X     0.549754      0.174017  KCAL/ANGSTROM
     38         13  H    CARTESIAN Y    -0.659516      0.546864  KCAL/ANGSTROM
     39         13  H    CARTESIAN Z     1.828435      1.399487  KCAL/ANGSTROM
     40         14  H    CARTESIAN X     1.228078      0.904654  KCAL/ANGSTROM
     41         14  H    CARTESIAN Y     0.750667     -0.028716  KCAL/ANGSTROM
     42         14  H    CARTESIAN Z     2.748786      1.748159  KCAL/ANGSTROM
     43         15  H    CARTESIAN X    -1.088972      0.230403  KCAL/ANGSTROM
     44         15  H    CARTESIAN Y     1.696766     -0.009078  KCAL/ANGSTROM
     45         15  H    CARTESIAN Z     1.932542      0.828391  KCAL/ANGSTROM
     46         16  H    CARTESIAN X     0.283088      0.398772  KCAL/ANGSTROM
     47         16  H    CARTESIAN Y     2.261806      0.232168  KCAL/ANGSTROM
     48         16  H    CARTESIAN Z     0.989473      0.893059  KCAL/ANGSTROM
     49         17  H    CARTESIAN X    -1.526473     -0.218293  KCAL/ANGSTROM
     50         17  H    CARTESIAN Y     1.528589     -0.113610  KCAL/ANGSTROM
     51         17  H    CARTESIAN Z    -0.536428      0.833634  KCAL/ANGSTROM
     52         18  H    CARTESIAN X    -1.961922     -0.346072  KCAL/ANGSTROM
     53         18  H    CARTESIAN Y    -0.963761     -0.386091  KCAL/ANGSTROM
     54         18  H    CARTESIAN Z     1.143740      1.346314  KCAL/ANGSTROM
     55         19  H    CARTESIAN X    -2.758697     -1.069352  KCAL/ANGSTROM
     56         19  H    CARTESIAN Y    -2.041803     -0.632798  KCAL/ANGSTROM
     57         19  H    CARTESIAN Z    -1.157740      0.047187  KCAL/ANGSTROM
     58         20  H    CARTESIAN X    -2.494553     -0.779549  KCAL/ANGSTROM
     59         20  H    CARTESIAN Y    -0.461381     -0.952093  KCAL/ANGSTROM
     60         20  H    CARTESIAN Z    -1.937190     -0.181692  KCAL/ANGSTROM
     61         21  H    CARTESIAN X    -0.176896     -0.603594  KCAL/ANGSTROM
     62         21  H    CARTESIAN Y    -2.261806      0.418184  KCAL/ANGSTROM
     63         21  H    CARTESIAN Z    -0.883728     -0.228566  KCAL/ANGSTROM




   ATOM   CHEMICAL          X               Y               Z
  NUMBER   SYMBOL      (ANGSTROMS)     (ANGSTROMS)     (ANGSTROMS)

     1       C          2.05311166  *  -0.46101952  *  -2.06293907  *
     2       O          1.16262843  *   0.43062786  *  -1.33497971  *
     3       C          0.05288544  *  -0.01211654  *  -0.91472912  *
     4       C          0.57587062  *   0.39348482  *   1.97611823  *
     5       C         -0.27979980  *   1.32686757  *   1.24125307  *
     6       C         -0.92253521  *   0.75486794  *  -0.01049884  *
     7       C         -1.66763677  *  -0.60953945  *   0.16684882  *
     8       C         -2.15383945  *  -1.12252178  *  -1.13635712  *
     9       C         -0.64675375  *  -1.29083231  *  -0.86219995  *
    10       H          2.75869709  *  -0.88126035  *  -1.33081039  *
    11       H          2.56970361  *   0.23581877  *  -2.74878635  *
    12       H          1.52170910  *  -1.24108301  *  -2.61699283  *
    13       H          0.54975436  *  -0.65951624  *   1.82843506  *
    14       H          1.22807841  *   0.75066692  *   2.74878635  *
    15       H         -1.08897151  *   1.69676622  *   1.93254243  *
    16       H          0.28308827  *   2.26180610  *   0.98947275  *
    17       H         -1.52647327  *   1.52858900  *  -0.53642793  *
    18       H         -1.96192177  *  -0.96376055  *   1.14374044  *
    19       H         -2.75869709  *  -2.04180257  *  -1.15774038  *
    20       H         -2.49455287  *  -0.46138141  *  -1.93718986  *
    21       H         -0.17689593  *  -2.26180610  *  -0.88372818  *

                             CARTESIAN COORDINATES

   1    C        2.053111664    -0.461019517    -2.062939070
   2    O        1.162628432     0.430627865    -1.334979707
   3    C        0.052885440    -0.012116544    -0.914729125
   4    C        0.575870616     0.393484821     1.976118231
   5    C       -0.279799801     1.326867567     1.241253075
   6    C       -0.922535209     0.754867939    -0.010498835
   7    C       -1.667636773    -0.609539455     0.166848817
   8    C       -2.153839451    -1.122521776    -1.136357116
   9    C       -0.646753746    -1.290832306    -0.862199949
  10    H        2.758697091    -0.881260354    -1.330810391
  11    H        2.569703611     0.235818768    -2.748786345
  12    H        1.521709096    -1.241083007    -2.616992831
  13    H        0.549754364    -0.659516241     1.828435058
  14    H        1.228078412     0.750666917     2.748786345
  15    H       -1.088971506     1.696766218     1.932542434
  16    H        0.283088273     2.261806104     0.989472749
  17    H       -1.526473266     1.528588998    -0.536427925
  18    H       -1.961921768    -0.963760547     1.143740439
  19    H       -2.758697091    -2.041802574    -1.157740380
  20    H       -2.494552872    -0.461381408    -1.937189857
  21    H       -0.176895926    -2.261806104    -0.883728178


           Empirical Formula: C8 H12 O  =    21 atoms



      MOLECULAR POINT GROUP   :   C1  


          ALPHA EIGENVALUES  
 -34.14651 -33.51666 -28.46147 -26.38956 -24.93175 -23.68694 -21.63092 -20.81156
 -19.76425 -18.19252 -17.79984 -17.67551 -16.61801 -15.81895 -15.71247 -14.70008
 -14.36269 -14.12438 -13.88408 -13.54544 -12.95038 -12.85508 -12.55780 -11.78308
  -9.64241  -1.66518  -0.32505   0.61670   1.56207   1.75440   2.09475   2.63094
   3.06472   3.34185   3.42968   4.07162   4.77446   4.79253   4.81805   4.88484
   4.93337   5.20240   5.30963   5.36701   5.54897   5.70517   5.96787   6.12478


           BETA EIGENVALUES 
 -34.14375 -33.51436 -28.37188 -26.35218 -24.90043 -23.56736 -21.57528 -20.68863
 -19.73870 -18.16093 -17.76019 -17.65831 -16.58219 -15.73034 -15.65190 -14.60073
 -14.18952 -14.03257 -13.86879 -13.45489 -12.86088 -12.79950 -12.47480 -11.77459
  -1.66690  -0.32880   0.29240   0.61970   1.57040   1.75676   2.09728   2.63286
   3.07872   3.34801   3.43203   4.36998   4.77453   4.79256   4.82156   4.91263
   5.02858   5.20273   5.31034   5.36707   5.54954   5.81180   6.10800   6.38452


              NET ATOMIC CHARGES AND DIPOLE CONTRIBUTIONS

  ATOM NO.   TYPE          CHARGE      No. of ELECS.   s-Pop       p-Pop       
    1          C          -0.220169        4.2202     1.11748     3.10269
    2          O          -0.119675        6.1197     1.84798     4.27169
    3          C           0.436749        3.5633     1.19074     2.37252
    4          C          -0.325838        4.3258     1.12268     3.20315
    5          C          -0.287703        4.2877     1.04943     3.23828
    6          C          -0.148586        4.1486     1.09541     3.05317
    7          C          -0.079965        4.0800     1.09753     2.98244
    8          C          -0.228490        4.2285     1.07026     3.15823
    9          C          -0.348925        4.3489     1.07975     3.26917
   10          H           0.188845        0.8112     0.81115
   11          H           0.200930        0.7991     0.79907
   12          H           0.178914        0.8211     0.82109
   13          H           0.145332        0.8547     0.85467
   14          H           0.157939        0.8421     0.84206
   15          H           0.208750        0.7912     0.79125
   16          H           0.192176        0.8078     0.80782
   17          H           0.217522        0.7825     0.78248
   18          H           0.207387        0.7926     0.79261
   19          H           0.203371        0.7966     0.79663
   20          H           0.194174        0.8058     0.80583
   21          H           0.227261        0.7727     0.77274
 DIPOLE           X         Y         Z       TOTAL
 POINT-CHG.     0.226    -0.854    -2.691     2.833
 HYBRID         0.532    -0.057    -0.247     0.589
 SUM            0.758    -0.911    -2.938     3.169


          ATOMIC ORBITAL ELECTRON POPULATIONS

     Atom    s        px        py        pz   
    1  C   1.11748   0.97081   1.05931   1.07257
    2  O   1.84798   1.30154   1.44121   1.52894
    3  C   1.19074   0.77983   0.95640   0.63629
    4  C   1.12268   1.04294   1.08908   1.07113
    5  C   1.04943   1.12214   1.09719   1.01895
    6  C   1.09541   0.98942   1.05153   1.01223
    7  C   1.09753   0.98721   0.94913   1.04609
    8  C   1.07026   0.92342   1.17954   1.05527
    9  C   1.07975   0.98472   1.07777   1.20668
   10  H   0.81115
   11  H   0.79907
   12  H   0.82109
   13  H   0.85467
   14  H   0.84206
   15  H   0.79125
   16  H   0.80782
   17  H   0.78248
   18  H   0.79261
   19  H   0.79663
   20  H   0.80583
   21  H   0.77274


                    (SZ)    =    0.500000
                    (S**2)  =    0.753245


          ATOMIC ORBITAL SPIN POPULATIONS

    Atom   Total    s     px     py     pz   
         Atomic
    1  C  0.0001  0.000  0.000 -0.000  0.000
    2  O  0.0002  0.000 -0.000  0.000  0.000
    3  C -0.0002  0.000 -0.000 -0.000  0.000
    4  C  1.0359  0.026  0.516  0.040  0.453
    5  C -0.0395 -0.007 -0.008 -0.017 -0.008
    6  C  0.0049  0.001  0.002  0.001  0.001
    7  C -0.0000 -0.000  0.000 -0.000  0.000
    8  C  0.0001  0.000  0.000 -0.000  0.000
    9  C  0.0002  0.000  0.000  0.000  0.000
   10  H -0.0000 -0.000
   11  H  0.0000  0.000
   12  H -0.0000 -0.000
   13  H -0.0289 -0.029
   14  H -0.0294 -0.029
   15  H  0.0372  0.037
   16  H  0.0201  0.020
   17  H -0.0005 -0.001
   18  H  0.0000  0.000
   19  H  0.0000  0.000
   20  H -0.0000 -0.000
   21  H -0.0000 -0.000

 **********************
 *                    *
 * JOB ENDED NORMALLY *
 *                    *
 **********************



 TOTAL JOB TIME:             1.96 SECONDS

 == MOPAC DONE ==
