 *******************************************************************************
 **                                                                           **
 **                              MOPAC v23.2                                  **
 **                                                                           **
 *******************************************************************************
 **          Digital Object Identifier (DOI): 10.5281/zenodo.6511958          **
 **    Visit the DOI location for information on how to cite this program.    **
 *******************************************************************************

                              PM7 CALCULATION RESULTS

 *******************************************************************************
 *  CALCULATION DONE: (MAX THREADS = 40)             Fri Sep 19 21:28:10 2025  *
 *  PM7        - The PM7 Hamiltonian to be used
 *
 *
 *
 *                 CHARGE ON SYSTEM = +1
 *
 *
 *
 *  1SCF       - DO 1 SCF AND THEN STOP 
 *  T=         - A TIME OF 172800.0 SECONDS REQUESTED
 *  DUMP=N     - RESTART FILE WRITTEN EVERY 7200.0 SECONDS REQUESTED
 *  RELSCF     - DEFAULT SCF CRITERION MULTIPLIED BY 0.0001
 *              (DEFAULT SCF CRITERION = 0.00010)
 *  GRADIENTS  - ALL GRADIENTS TO BE PRINTED
 *  DISP       - PRINT DISPERSION AND HYDROGEN BOND ENERGIES
 *******************************************************************************
PM7 1SCF GRADIENTS DISP RELSCF=0.0001 CHARGE=1
 Title: ASE calculation

   ATOM   CHEMICAL          X               Y               Z
  NUMBER   SYMBOL      (ANGSTROMS)     (ANGSTROMS)     (ANGSTROMS)

     1       C         -1.44233108  *   1.76126039  *  -0.10525966  *
     2       C         -0.98997906  *   0.44654898  *   0.49856972  *
     3       C         -1.59356581  *  -0.79814311  *  -0.19095818  *
     4       C         -0.46690723  *  -1.82654289  *  -0.17476594  *
     5       O          0.75374343  *  -1.10543603  *   0.18469200  *
     6       C          0.49353915  *   0.16713404  *   0.46037106  *
     7       C          1.51332196  *   0.86980657  *   1.25017055  *
     8       C          1.10542011  *   0.77055943  *  -1.47631399  *
     9       O          2.36936023  *   0.40173396  *  -1.42379908  *
    10       H         -1.34995961  *   1.80260888  *  -1.19731452  *
    11       H         -2.51237293  *   1.94353909  *   0.10883599  *
    12       H         -0.90456522  *   2.62377796  *   0.31505861  *
    13       H         -1.29037033  *   0.44841289  *   1.59074845  *
    14       H         -2.49882124  *  -1.15773193  *   0.33823395  *
    15       H         -1.94114156  *  -0.57391526  *  -1.21715526  *
    16       H         -0.56384611  *  -2.60438397  *   0.60693233  *
    17       H         -0.24738537  *  -2.30010891  *  -1.14565906  *
    18       H          1.39994349  *   1.96962113  *   1.23908117  *
    19       H          2.55905793  *   0.65022564  *   0.94789619  *
    20       H          1.46200040  *   0.56774381  *   2.32188453  *
    21       H          0.38277613  *   0.21452607  *  -2.05228624  *
    22       H          1.00347591  *   1.84054223  *  -1.31335958  *
    23       H          2.54017937  *  -0.53159375  *  -1.76609310  *



          CARTESIAN COORDINATES 

    NO.       ATOM           X           Y           Z

     1         C         -1.4423      1.7613     -0.1053
     2         C         -0.9900      0.4465      0.4986
     3         C         -1.5936     -0.7981     -0.1910
     4         C         -0.4669     -1.8265     -0.1748
     5         O          0.7537     -1.1054      0.1847
     6         C          0.4935      0.1671      0.4604
     7         C          1.5133      0.8698      1.2502
     8         C          1.1054      0.7706     -1.4763
     9         O          2.3694      0.4017     -1.4238
    10         H         -1.3500      1.8026     -1.1973
    11         H         -2.5124      1.9435      0.1088
    12         H         -0.9046      2.6238      0.3151
    13         H         -1.2904      0.4484      1.5907
    14         H         -2.4988     -1.1577      0.3382
    15         H         -1.9411     -0.5739     -1.2172
    16         H         -0.5638     -2.6044      0.6069
    17         H         -0.2474     -2.3001     -1.1457
    18         H          1.3999      1.9696      1.2391
    19         H          2.5591      0.6502      0.9479
    20         H          1.4620      0.5677      2.3219
    21         H          0.3828      0.2145     -2.0523
    22         H          1.0035      1.8405     -1.3134
    23         H          2.5402     -0.5316     -1.7661

 General Reference for PM7:
 "Optimization of Parameters for Semiempirical Methods VI: More Modifications to the 
 NDDO Approximations and Re-optimization of Parameters", J. J. P. Stewart, J. Mol. Mod., 1:32, 19 (2013)
 https://link.springer.com/article/10.1007/s00894-012-1667-x

           Empirical Formula: C7 H14 O2  =    23 atoms



      MOLECULAR POINT GROUP   :   C1  


          UHF CALCULATION, NO. OF ALPHA ELECTRONS =   27
                           NO. OF BETA  ELECTRONS =   26
  SCF CRITERION =    0.1000E-07

 -------------------------------------------------------------------------------
 PM7 1SCF GRADIENTS DISP RELSCF=0.0001 CHARGE=1
 Title: ASE calculation



     1SCF WAS SPECIFIED, SO BFGS WAS NOT USED                 
     SCF FIELD WAS ACHIEVED                                   


                              PM7 CALCULATION
                                                       MOPAC v23.2 Linux
                                                       Fri Sep 19 21:28:10 2025




          FINAL HEAT OF FORMATION =         86.81332 KCAL/MOL =     363.22693 KJ/MOL

          TOTAL ENERGY            =     -37622.56586 KCAL/MOL = ELECTRONIC ENERGY + CORE-CORE REPULSION
          ENERGY OF ATOMS         =      37712.04263 KCAL/MOL
                              SUM =         89.47677 KCAL/MOL
          DISPERSION ENERGY       =         -2.66345 KCAL/MOL
                              SUM =         86.81332 KCAL/MOL = FINAL HEAT OF FORMATION



          TOTAL ENERGY            =      -1631.46887 EV
          ELECTRONIC ENERGY       =      -8604.33906 EV 
          CORE-CORE REPULSION     =       6972.87019 EV
          COSMO AREA              =        169.54 SQUARE ANGSTROMS
          COSMO VOLUME            =        178.55 CUBIC ANGSTROMS

          GRADIENT NORM           =          1.28124          =       0.26716 PER ATOM
          IONIZATION POTENTIAL    =         13.627184 EV
          ALPHA SOMO LUMO (EV)    =        -13.627 -4.960
          BETA  SOMO LUMO (EV)    =        -15.677 -5.971
          NO. OF ALPHA ELECTRONS  =         27
          NO. OF BETA  ELECTRONS  =         26
          MOLECULAR WEIGHT        =        130.1864         POINT GROUP:  C1  

          MOLECULAR DIMENSIONS (Angstroms)

            Atom       Atom       Distance
            H    23    H    11     5.93042
            H    16    H    22     5.08859
            H    20    H    15     4.82042


          SCF CALCULATIONS        =          1

          WALL-CLOCK TIME         =      0.883 SECONDS
          COMPUTATION TIME        =      0.777 SECONDS

          LARGEST ATOMIC GRADIENTS

          Atom     Label                     Cartesian Gradients           Cartesian Coordinates       |Gradient|
                                           X          Y          Z        X          Y          Z

            22       H                  -0.250     -0.192     -0.326    1.00348    1.84054   -1.31336      0.454
            19       H                   0.433     -0.024     -0.020    2.55906    0.65023    0.94790      0.434
            15       H                   0.385     -0.088      0.065   -1.94114   -0.57392   -1.21716      0.400
             6       C                  -0.171     -0.122      0.317    0.49354    0.16713    0.46037      0.380
            23       H                   0.244     -0.252     -0.058    2.54018   -0.53159   -1.76609      0.356
            20       H                  -0.168     -0.073      0.265    1.46200    0.56774    2.32188      0.322
            13       H                   0.221      0.102      0.202   -1.29037    0.44841    1.59075      0.316
            18       H                  -0.190      0.214      0.021    1.39994    1.96962    1.23908      0.287
            21       H                   0.040      0.244     -0.137    0.38278    0.21453   -2.05229      0.283
             8       C                  -0.279      0.003      0.007    1.10542    0.77056   -1.47631      0.279



       FINAL  POINT  AND  DERIVATIVES

   PARAMETER     ATOM    TYPE            VALUE        GRADIENT
      1          1  C    CARTESIAN X    -1.442331     -0.064784  KCAL/ANGSTROM
      2          1  C    CARTESIAN Y     1.761260      0.094563  KCAL/ANGSTROM
      3          1  C    CARTESIAN Z    -0.105260     -0.047571  KCAL/ANGSTROM
      4          2  C    CARTESIAN X    -0.989979     -0.191010  KCAL/ANGSTROM
      5          2  C    CARTESIAN Y     0.446549     -0.063246  KCAL/ANGSTROM
      6          2  C    CARTESIAN Z     0.498570     -0.003710  KCAL/ANGSTROM
      7          3  C    CARTESIAN X    -1.593566     -0.045201  KCAL/ANGSTROM
      8          3  C    CARTESIAN Y    -0.798143     -0.026531  KCAL/ANGSTROM
      9          3  C    CARTESIAN Z    -0.190958     -0.027263  KCAL/ANGSTROM
     10          4  C    CARTESIAN X    -0.466907      0.039614  KCAL/ANGSTROM
     11          4  C    CARTESIAN Y    -1.826543     -0.004233  KCAL/ANGSTROM
     12          4  C    CARTESIAN Z    -0.174766     -0.130099  KCAL/ANGSTROM
     13          5  O    CARTESIAN X     0.753743     -0.078236  KCAL/ANGSTROM
     14          5  O    CARTESIAN Y    -1.105436     -0.102562  KCAL/ANGSTROM
     15          5  O    CARTESIAN Z     0.184692     -0.039430  KCAL/ANGSTROM
     16          6  C    CARTESIAN X     0.493539     -0.171076  KCAL/ANGSTROM
     17          6  C    CARTESIAN Y     0.167134     -0.121713  KCAL/ANGSTROM
     18          6  C    CARTESIAN Z     0.460371      0.317148  KCAL/ANGSTROM
     19          7  C    CARTESIAN X     1.513322      0.116012  KCAL/ANGSTROM
     20          7  C    CARTESIAN Y     0.869807     -0.000802  KCAL/ANGSTROM
     21          7  C    CARTESIAN Z     1.250171     -0.028071  KCAL/ANGSTROM
     22          8  C    CARTESIAN X     1.105420     -0.278821  KCAL/ANGSTROM
     23          8  C    CARTESIAN Y     0.770559      0.003074  KCAL/ANGSTROM
     24          8  C    CARTESIAN Z    -1.476314      0.007031  KCAL/ANGSTROM
     25          9  O    CARTESIAN X     2.369360     -0.182594  KCAL/ANGSTROM
     26          9  O    CARTESIAN Y     0.401734     -0.004175  KCAL/ANGSTROM
     27          9  O    CARTESIAN Z    -1.423799      0.045544  KCAL/ANGSTROM
     28         10  H    CARTESIAN X    -1.349960      0.107646  KCAL/ANGSTROM
     29         10  H    CARTESIAN Y     1.802609      0.217045  KCAL/ANGSTROM
     30         10  H    CARTESIAN Z    -1.197315     -0.061297  KCAL/ANGSTROM
     31         11  H    CARTESIAN X    -2.512373     -0.116515  KCAL/ANGSTROM
     32         11  H    CARTESIAN Y     1.943539      0.033008  KCAL/ANGSTROM
     33         11  H    CARTESIAN Z     0.108836      0.110346  KCAL/ANGSTROM
     34         12  H    CARTESIAN X    -0.904565      0.044725  KCAL/ANGSTROM
     35         12  H    CARTESIAN Y     2.623778      0.082419  KCAL/ANGSTROM
     36         12  H    CARTESIAN Z     0.315059     -0.022253  KCAL/ANGSTROM
     37         13  H    CARTESIAN X    -1.290370      0.220518  KCAL/ANGSTROM
     38         13  H    CARTESIAN Y     0.448413      0.102147  KCAL/ANGSTROM
     39         13  H    CARTESIAN Z     1.590748      0.201844  KCAL/ANGSTROM
     40         14  H    CARTESIAN X    -2.498821     -0.025071  KCAL/ANGSTROM
     41         14  H    CARTESIAN Y    -1.157732      0.109964  KCAL/ANGSTROM
     42         14  H    CARTESIAN Z     0.338234     -0.091588  KCAL/ANGSTROM
     43         15  H    CARTESIAN X    -1.941142      0.384612  KCAL/ANGSTROM
     44         15  H    CARTESIAN Y    -0.573915     -0.088341  KCAL/ANGSTROM
     45         15  H    CARTESIAN Z    -1.217155      0.065422  KCAL/ANGSTROM
     46         16  H    CARTESIAN X    -0.563846      0.087831  KCAL/ANGSTROM
     47         16  H    CARTESIAN Y    -2.604384     -0.085540  KCAL/ANGSTROM
     48         16  H    CARTESIAN Z     0.606932     -0.227159  KCAL/ANGSTROM
     49         17  H    CARTESIAN X    -0.247385      0.043631  KCAL/ANGSTROM
     50         17  H    CARTESIAN Y    -2.300109     -0.060837  KCAL/ANGSTROM
     51         17  H    CARTESIAN Z    -1.145659      0.186977  KCAL/ANGSTROM
     52         18  H    CARTESIAN X     1.399943     -0.190023  KCAL/ANGSTROM
     53         18  H    CARTESIAN Y     1.969621      0.213809  KCAL/ANGSTROM
     54         18  H    CARTESIAN Z     1.239081      0.021000  KCAL/ANGSTROM
     55         19  H    CARTESIAN X     2.559058      0.432578  KCAL/ANGSTROM
     56         19  H    CARTESIAN Y     0.650226     -0.024411  KCAL/ANGSTROM
     57         19  H    CARTESIAN Z     0.947896     -0.020261  KCAL/ANGSTROM
     58         20  H    CARTESIAN X     1.462000     -0.167916  KCAL/ANGSTROM
     59         20  H    CARTESIAN Y     0.567744     -0.072744  KCAL/ANGSTROM
     60         20  H    CARTESIAN Z     2.321885      0.265172  KCAL/ANGSTROM
     61         21  H    CARTESIAN X     0.382776      0.040133  KCAL/ANGSTROM
     62         21  H    CARTESIAN Y     0.214526      0.243714  KCAL/ANGSTROM
     63         21  H    CARTESIAN Z    -2.052286     -0.137319  KCAL/ANGSTROM
     64         22  H    CARTESIAN X     1.003476     -0.249955  KCAL/ANGSTROM
     65         22  H    CARTESIAN Y     1.840542     -0.192219  KCAL/ANGSTROM
     66         22  H    CARTESIAN Z    -1.313360     -0.326498  KCAL/ANGSTROM
     67         23  H    CARTESIAN X     2.540179      0.243902  KCAL/ANGSTROM
     68         23  H    CARTESIAN Y    -0.531594     -0.252392  KCAL/ANGSTROM
     69         23  H    CARTESIAN Z    -1.766093     -0.057966  KCAL/ANGSTROM




   ATOM   CHEMICAL          X               Y               Z
  NUMBER   SYMBOL      (ANGSTROMS)     (ANGSTROMS)     (ANGSTROMS)

     1       C         -1.44233108  *   1.76126039  *  -0.10525966  *
     2       C         -0.98997906  *   0.44654898  *   0.49856972  *
     3       C         -1.59356581  *  -0.79814311  *  -0.19095818  *
     4       C         -0.46690723  *  -1.82654289  *  -0.17476594  *
     5       O          0.75374343  *  -1.10543603  *   0.18469200  *
     6       C          0.49353915  *   0.16713404  *   0.46037106  *
     7       C          1.51332196  *   0.86980657  *   1.25017055  *
     8       C          1.10542011  *   0.77055943  *  -1.47631399  *
     9       O          2.36936023  *   0.40173396  *  -1.42379908  *
    10       H         -1.34995961  *   1.80260888  *  -1.19731452  *
    11       H         -2.51237293  *   1.94353909  *   0.10883599  *
    12       H         -0.90456522  *   2.62377796  *   0.31505861  *
    13       H         -1.29037033  *   0.44841289  *   1.59074845  *
    14       H         -2.49882124  *  -1.15773193  *   0.33823395  *
    15       H         -1.94114156  *  -0.57391526  *  -1.21715526  *
    16       H         -0.56384611  *  -2.60438397  *   0.60693233  *
    17       H         -0.24738537  *  -2.30010891  *  -1.14565906  *
    18       H          1.39994349  *   1.96962113  *   1.23908117  *
    19       H          2.55905793  *   0.65022564  *   0.94789619  *
    20       H          1.46200040  *   0.56774381  *   2.32188453  *
    21       H          0.38277613  *   0.21452607  *  -2.05228624  *
    22       H          1.00347591  *   1.84054223  *  -1.31335958  *
    23       H          2.54017937  *  -0.53159375  *  -1.76609310  *

                             CARTESIAN COORDINATES

   1    C       -1.442331081     1.761260388    -0.105259663
   2    C       -0.989979063     0.446548980     0.498569721
   3    C       -1.593565813    -0.798143112    -0.190958183
   4    C       -0.466907234    -1.826542890    -0.174765937
   5    O        0.753743427    -1.105436026     0.184692002
   6    C        0.493539151     0.167134039     0.460371060
   7    C        1.513321958     0.869806568     1.250170546
   8    C        1.105420110     0.770559429    -1.476313990
   9    O        2.369360228     0.401733960    -1.423799079
  10    H       -1.349959608     1.802608876    -1.197314521
  11    H       -2.512372927     1.943539087     0.108835988
  12    H       -0.904565219     2.623777962     0.315058606
  13    H       -1.290370332     0.448412895     1.590748452
  14    H       -2.498821236    -1.157731934     0.338233951
  15    H       -1.941141561    -0.573915263    -1.217155260
  16    H       -0.563846110    -2.604383969     0.606932333
  17    H       -0.247385370    -2.300108914    -1.145659061
  18    H        1.399943486     1.969621131     1.239081172
  19    H        2.559057928     0.650225644     0.947896190
  20    H        1.462000397     0.567743815     2.321884530
  21    H        0.382776129     0.214526068    -2.052286241
  22    H        1.003475906     1.840542232    -1.313359579
  23    H        2.540179372    -0.531593748    -1.766093099


           Empirical Formula: C7 H14 O2  =    23 atoms



      MOLECULAR POINT GROUP   :   C1  


          ALPHA EIGENVALUES  
 -37.33149 -36.12141 -33.46294 -32.06686 -29.49887 -28.42757 -27.37058 -25.61530
 -24.11840 -23.28817 -21.92836 -21.25216 -20.78811 -20.10859 -19.74469 -19.41517
 -18.71828 -18.31118 -18.01982 -17.84182 -17.71359 -17.54139 -17.35436 -16.67500
 -16.50155 -15.87697 -13.62718  -4.95958  -3.39638  -2.30742  -1.77220  -1.57800
  -0.80454  -0.54253  -0.38115  -0.29698   0.24457   0.56007   0.69241   0.84594
   0.94639   1.04380   1.16102   1.31430   1.38576   1.53866   1.55507   2.01204
   2.16601   2.74355


           BETA EIGENVALUES 
 -36.93213 -35.39414 -33.22427 -32.00439 -29.43920 -28.08468 -27.31882 -25.56873
 -23.97870 -23.13986 -21.79150 -21.10531 -20.59070 -19.96151 -19.38291 -19.32587
 -18.65383 -18.04507 -17.84863 -17.71469 -17.42922 -17.36183 -17.18140 -16.60790
 -16.46756 -15.67747  -5.97136  -3.61062  -3.23718  -1.98757  -1.71126  -1.53104
  -0.75261  -0.45746  -0.36267  -0.27197   0.37324   0.65205   0.70384   0.87337
   0.96153   1.05581   1.31017   1.32043   1.39305   1.53928   1.55714   2.01235
   2.17456   2.74401


              NET ATOMIC CHARGES AND DIPOLE CONTRIBUTIONS

  ATOM NO.   TYPE          CHARGE      No. of ELECS.   s-Pop       p-Pop       
    1          C          -0.450574        4.4506     1.05244     3.39814
    2          C          -0.162929        4.1629     1.07366     3.08927
    3          C          -0.329774        4.3298     1.07271     3.25706
    4          C          -0.056198        4.0562     1.11482     2.94138
    5          O          -0.262369        6.2624     1.87077     4.39160
    6          C           0.378300        3.6217     1.17233     2.44937
    7          C          -0.515180        4.5152     1.05689     3.45829
    8          C          -0.043908        4.0439     1.16895     2.87496
    9          O          -0.320371        6.3204     1.83434     4.48603
   10          H           0.160463        0.8395     0.83954
   11          H           0.189301        0.8107     0.81070
   12          H           0.169344        0.8307     0.83066
   13          H           0.199226        0.8008     0.80077
   14          H           0.191370        0.8086     0.80863
   15          H           0.177109        0.8229     0.82289
   16          H           0.179023        0.8210     0.82098
   17          H           0.166041        0.8340     0.83396
   18          H           0.205198        0.7948     0.79480
   19          H           0.218115        0.7819     0.78188
   20          H           0.220248        0.7798     0.77975
   21          H           0.152144        0.8479     0.84786
   22          H           0.186227        0.8138     0.81377
   23          H           0.349193        0.6508     0.65081
 DIPOLE           X         Y         Z       TOTAL
 POINT-CHG.    -1.170     0.205    -0.267     1.217
 HYBRID         0.666    -0.550    -0.272     0.906
 SUM           -0.504    -0.345    -0.539     0.815


          ATOMIC ORBITAL ELECTRON POPULATIONS

     Atom    s        px        py        pz   
    1  C   1.05244   1.20585   1.03193   1.16036
    2  C   1.07366   0.93932   1.01309   1.13685
    3  C   1.07271   1.08263   0.99409   1.18034
    4  C   1.11482   0.80595   0.98169   1.15374
    5  O   1.87077   1.41384   1.27803   1.69974
    6  C   1.17233   0.96070   0.77573   0.71295
    7  C   1.05689   1.13496   1.17406   1.14928
    8  C   1.16895   0.84131   1.08626   0.94739
    9  O   1.83434   1.32305   1.45224   1.71074
   10  H   0.83954
   11  H   0.81070
   12  H   0.83066
   13  H   0.80077
   14  H   0.80863
   15  H   0.82289
   16  H   0.82098
   17  H   0.83396
   18  H   0.79480
   19  H   0.78188
   20  H   0.77975
   21  H   0.84786
   22  H   0.81377
   23  H   0.65081


                    (SZ)    =    0.500000
                    (S**2)  =    0.757478


          ATOMIC ORBITAL SPIN POPULATIONS

    Atom   Total    s     px     py     pz   
         Atomic
    1  C  0.0021  0.000 -0.000  0.001  0.001
    2  C  0.0053 -0.000  0.004 -0.001  0.002
    3  C  0.0003 -0.000  0.000  0.000  0.000
    4  C -0.0091 -0.001 -0.005 -0.002 -0.002
    5  O  0.1610  0.005  0.005  0.030  0.121
    6  C  0.1377  0.000  0.010  0.006  0.122
    7  C  0.0117  0.001 -0.001 -0.001  0.013
    8  C  0.4759  0.015  0.022  0.066  0.373
    9  O  0.2058  0.008  0.008  0.034  0.156
   10  H  0.0000  0.000
   11  H -0.0002 -0.000
   12  H -0.0001 -0.000
   13  H  0.0096  0.010
   14  H -0.0002 -0.000
   15  H -0.0001 -0.000
   16  H  0.0042  0.004
   17  H  0.0010  0.001
   18  H -0.0001 -0.000
   19  H  0.0017  0.002
   20  H  0.0104  0.010
   21  H -0.0053 -0.005
   22  H -0.0019 -0.002
   23  H -0.0098 -0.010

 **********************
 *                    *
 * JOB ENDED NORMALLY *
 *                    *
 **********************



 TOTAL JOB TIME:             1.36 SECONDS

 == MOPAC DONE ==
