 *******************************************************************************
 **                                                                           **
 **                              MOPAC v23.2                                  **
 **                                                                           **
 *******************************************************************************
 **          Digital Object Identifier (DOI): 10.5281/zenodo.6511958          **
 **    Visit the DOI location for information on how to cite this program.    **
 *******************************************************************************

                              PM7 CALCULATION RESULTS

 *******************************************************************************
 *  CALCULATION DONE: (MAX THREADS = 40)             Fri Sep 19 21:27:11 2025  *
 *  PM7        - The PM7 Hamiltonian to be used
 *  1SCF       - DO 1 SCF AND THEN STOP 
 *  T=         - A TIME OF 172800.0 SECONDS REQUESTED
 *  DUMP=N     - RESTART FILE WRITTEN EVERY 7200.0 SECONDS REQUESTED
 *  RELSCF     - DEFAULT SCF CRITERION MULTIPLIED BY 0.0001
 *              (DEFAULT SCF CRITERION = 0.00010)
 *  GRADIENTS  - ALL GRADIENTS TO BE PRINTED
 *  DISP       - PRINT DISPERSION AND HYDROGEN BOND ENERGIES
 *******************************************************************************
PM7 1SCF GRADIENTS DISP RELSCF=0.0001
 Title: ASE calculation

   ATOM   CHEMICAL          X               Y               Z
  NUMBER   SYMBOL      (ANGSTROMS)     (ANGSTROMS)     (ANGSTROMS)

     1       C         -1.89005201  *   1.14047423  *  -0.43096431  *
     2       C         -0.67860499  *   0.69243739  *   0.38432543  *
     3       C         -0.63341899  *  -0.85003159  *   0.49307125  *
     4       C         -0.36119559  *  -1.71684279  *  -0.71626076  *
     5       C          0.68725116  *  -1.64972867  *   0.36831059  *
     6       C          2.03637974  *  -0.94460545  *   0.12715767  *
     7       C          1.75601037  *   0.45263666  *   0.60569910  *
     8       C          1.85087906  *   1.85532768  *   0.06524033  *
     9       C          0.63257762  *   1.03759409  *  -0.27372424  *
    10       H         -1.87736520  *   0.71129897  *  -1.43943609  *
    11       H         -2.82806666  *   0.83151660  *   0.04278669  *
    12       H         -1.90844386  *   2.23151338  *  -0.53560387  *
    13       H         -0.74616562  *   1.12644581  *   1.40922568  *
    14       H         -1.36057460  *  -1.21322908  *   1.22370590  *
    15       H         -0.16871068  *  -1.25285122  *  -1.67929499  *
    16       H         -0.92930601  *  -2.63169416  *  -0.85572211  *
    17       H          0.79375264  *  -2.51487043  *   1.02754359  *
    18       H          2.84671884  *  -1.43623682  *   0.69231792  *
    19       H          2.33017789  *  -0.99538690  *  -0.93524499  *
    20       H          1.61408323  *   0.44380243  *   1.70198774  *
    21       H          2.52000245  *   2.11275834  *  -0.75196941  *
    22       H          1.81381779  *   2.66978461  *   0.78510410  *
    23       H          0.60215987  *   0.77003257  *  -1.34389688  *



          CARTESIAN COORDINATES 

    NO.       ATOM           X           Y           Z

     1         C         -1.8901      1.1405     -0.4310
     2         C         -0.6786      0.6924      0.3843
     3         C         -0.6334     -0.8500      0.4931
     4         C         -0.3612     -1.7168     -0.7163
     5         C          0.6873     -1.6497      0.3683
     6         C          2.0364     -0.9446      0.1272
     7         C          1.7560      0.4526      0.6057
     8         C          1.8509      1.8553      0.0652
     9         C          0.6326      1.0376     -0.2737
    10         H         -1.8774      0.7113     -1.4394
    11         H         -2.8281      0.8315      0.0428
    12         H         -1.9084      2.2315     -0.5356
    13         H         -0.7462      1.1264      1.4092
    14         H         -1.3606     -1.2132      1.2237
    15         H         -0.1687     -1.2529     -1.6793
    16         H         -0.9293     -2.6317     -0.8557
    17         H          0.7938     -2.5149      1.0275
    18         H          2.8467     -1.4362      0.6923
    19         H          2.3302     -0.9954     -0.9352
    20         H          1.6141      0.4438      1.7020
    21         H          2.5200      2.1128     -0.7520
    22         H          1.8138      2.6698      0.7851
    23         H          0.6022      0.7700     -1.3439

 General Reference for PM7:
 "Optimization of Parameters for Semiempirical Methods VI: More Modifications to the 
 NDDO Approximations and Re-optimization of Parameters", J. J. P. Stewart, J. Mol. Mod., 1:32, 19 (2013)
 https://link.springer.com/article/10.1007/s00894-012-1667-x

           Empirical Formula: C9 H14  =    23 atoms



      MOLECULAR POINT GROUP   :   C1  


      RHF CALCULATION, NO. OF DOUBLY OCCUPIED LEVELS = 25

  SCF CRITERION =    0.1000E-07

 -------------------------------------------------------------------------------
 PM7 1SCF GRADIENTS DISP RELSCF=0.0001
 Title: ASE calculation



     1SCF WAS SPECIFIED, SO BFGS WAS NOT USED                 
     SCF FIELD WAS ACHIEVED                                   


                              PM7 CALCULATION
                                                       MOPAC v23.2 Linux
                                                       Fri Sep 19 21:27:11 2025




          FINAL HEAT OF FORMATION =         47.51447 KCAL/MOL =     198.80052 KJ/MOL

          TOTAL ENERGY            =     -29802.62993 KCAL/MOL = ELECTRONIC ENERGY + CORE-CORE REPULSION
          ENERGY OF ATOMS         =      29852.41387 KCAL/MOL
                              SUM =         49.78394 KCAL/MOL
          DISPERSION ENERGY       =         -2.26947 KCAL/MOL
                              SUM =         47.51447 KCAL/MOL = FINAL HEAT OF FORMATION



          TOTAL ENERGY            =      -1292.36435 EV
          ELECTRONIC ENERGY       =      -7395.76177 EV 
          CORE-CORE REPULSION     =       6103.39742 EV
          COSMO AREA              =        169.23 SQUARE ANGSTROMS
          COSMO VOLUME            =        175.90 CUBIC ANGSTROMS

          GRADIENT NORM           =          0.95615          =       0.19937 PER ATOM
          IONIZATION POTENTIAL    =          9.694571 EV
          HOMO LUMO ENERGIES (EV) =         -9.695  2.130
          NO. OF FILLED LEVELS    =         25
          MOLECULAR WEIGHT        =        122.2096         POINT GROUP:  C1  

          MOLECULAR DIMENSIONS (Angstroms)

            Atom       Atom       Distance
            H    22    H    16     6.19053
            H    18    H    11     6.10027
            H    14    H    21     3.29874


          SCF CALCULATIONS        =          1

          WALL-CLOCK TIME         =      0.516 SECONDS
          COMPUTATION TIME        =      0.574 SECONDS

          LARGEST ATOMIC GRADIENTS

          Atom     Label                     Cartesian Gradients           Cartesian Coordinates       |Gradient|
                                           X          Y          Z        X          Y          Z

            19       H                  -0.035     -0.213     -0.317    2.33018   -0.99539   -0.93524      0.384
             3       C                  -0.310     -0.129     -0.146   -0.63342   -0.85003    0.49307      0.366
            16       H                   0.152      0.073      0.214   -0.92931   -2.63169   -0.85572      0.272
            15       H                   0.193      0.151      0.037   -0.16871   -1.25285   -1.67929      0.247
             2       C                   0.166     -0.156      0.047   -0.67860    0.69244    0.38433      0.233
            21       H                  -0.131      0.064      0.164    2.52000    2.11276   -0.75197      0.220
             1       C                   0.186      0.024      0.096   -1.89005    1.14047   -0.43096      0.211
            17       H                  -0.167     -0.070      0.107    0.79375   -2.51487    1.02754      0.210
            20       H                  -0.074      0.166     -0.065    1.61408    0.44380    1.70199      0.193
            14       H                  -0.044     -0.061      0.178   -1.36057   -1.21323    1.22371      0.193



       FINAL  POINT  AND  DERIVATIVES

   PARAMETER     ATOM    TYPE            VALUE        GRADIENT
      1          1  C    CARTESIAN X    -1.890052      0.185585  KCAL/ANGSTROM
      2          1  C    CARTESIAN Y     1.140474      0.024198  KCAL/ANGSTROM
      3          1  C    CARTESIAN Z    -0.430964      0.096362  KCAL/ANGSTROM
      4          2  C    CARTESIAN X    -0.678605      0.166359  KCAL/ANGSTROM
      5          2  C    CARTESIAN Y     0.692437     -0.156092  KCAL/ANGSTROM
      6          2  C    CARTESIAN Z     0.384325      0.047384  KCAL/ANGSTROM
      7          3  C    CARTESIAN X    -0.633419     -0.309993  KCAL/ANGSTROM
      8          3  C    CARTESIAN Y    -0.850032     -0.129386  KCAL/ANGSTROM
      9          3  C    CARTESIAN Z     0.493071     -0.146452  KCAL/ANGSTROM
     10          4  C    CARTESIAN X    -0.361196      0.069484  KCAL/ANGSTROM
     11          4  C    CARTESIAN Y    -1.716843      0.037760  KCAL/ANGSTROM
     12          4  C    CARTESIAN Z    -0.716261     -0.026969  KCAL/ANGSTROM
     13          5  C    CARTESIAN X     0.687251     -0.077969  KCAL/ANGSTROM
     14          5  C    CARTESIAN Y    -1.649729     -0.036678  KCAL/ANGSTROM
     15          5  C    CARTESIAN Z     0.368311      0.118649  KCAL/ANGSTROM
     16          6  C    CARTESIAN X     2.036380     -0.012794  KCAL/ANGSTROM
     17          6  C    CARTESIAN Y    -0.944605     -0.058217  KCAL/ANGSTROM
     18          6  C    CARTESIAN Z     0.127158     -0.094764  KCAL/ANGSTROM
     19          7  C    CARTESIAN X     1.756010      0.046394  KCAL/ANGSTROM
     20          7  C    CARTESIAN Y     0.452637     -0.011462  KCAL/ANGSTROM
     21          7  C    CARTESIAN Z     0.605699     -0.083905  KCAL/ANGSTROM
     22          8  C    CARTESIAN X     1.850879     -0.130175  KCAL/ANGSTROM
     23          8  C    CARTESIAN Y     1.855328      0.109459  KCAL/ANGSTROM
     24          8  C    CARTESIAN Z     0.065240      0.032738  KCAL/ANGSTROM
     25          9  C    CARTESIAN X     0.632578      0.058516  KCAL/ANGSTROM
     26          9  C    CARTESIAN Y     1.037594      0.033081  KCAL/ANGSTROM
     27          9  C    CARTESIAN Z    -0.273724     -0.072252  KCAL/ANGSTROM
     28         10  H    CARTESIAN X    -1.877365      0.109522  KCAL/ANGSTROM
     29         10  H    CARTESIAN Y     0.711299     -0.014365  KCAL/ANGSTROM
     30         10  H    CARTESIAN Z    -1.439436      0.035670  KCAL/ANGSTROM
     31         11  H    CARTESIAN X    -2.828067     -0.043759  KCAL/ANGSTROM
     32         11  H    CARTESIAN Y     0.831517      0.010654  KCAL/ANGSTROM
     33         11  H    CARTESIAN Z     0.042787     -0.149785  KCAL/ANGSTROM
     34         12  H    CARTESIAN X    -1.908444     -0.053200  KCAL/ANGSTROM
     35         12  H    CARTESIAN Y     2.231513      0.099972  KCAL/ANGSTROM
     36         12  H    CARTESIAN Z    -0.535604      0.098066  KCAL/ANGSTROM
     37         13  H    CARTESIAN X    -0.746166     -0.152035  KCAL/ANGSTROM
     38         13  H    CARTESIAN Y     1.126446     -0.063425  KCAL/ANGSTROM
     39         13  H    CARTESIAN Z     1.409226     -0.003136  KCAL/ANGSTROM
     40         14  H    CARTESIAN X    -1.360575     -0.043888  KCAL/ANGSTROM
     41         14  H    CARTESIAN Y    -1.213229     -0.060796  KCAL/ANGSTROM
     42         14  H    CARTESIAN Z     1.223706      0.178334  KCAL/ANGSTROM
     43         15  H    CARTESIAN X    -0.168711      0.192540  KCAL/ANGSTROM
     44         15  H    CARTESIAN Y    -1.252851      0.150842  KCAL/ANGSTROM
     45         15  H    CARTESIAN Z    -1.679295      0.037089  KCAL/ANGSTROM
     46         16  H    CARTESIAN X    -0.929306      0.151934  KCAL/ANGSTROM
     47         16  H    CARTESIAN Y    -2.631694      0.072603  KCAL/ANGSTROM
     48         16  H    CARTESIAN Z    -0.855722      0.213967  KCAL/ANGSTROM
     49         17  H    CARTESIAN X     0.793753     -0.166554  KCAL/ANGSTROM
     50         17  H    CARTESIAN Y    -2.514870     -0.070382  KCAL/ANGSTROM
     51         17  H    CARTESIAN Z     1.027544      0.106875  KCAL/ANGSTROM
     52         18  H    CARTESIAN X     2.846719      0.112886  KCAL/ANGSTROM
     53         18  H    CARTESIAN Y    -1.436237     -0.085854  KCAL/ANGSTROM
     54         18  H    CARTESIAN Z     0.692318     -0.021369  KCAL/ANGSTROM
     55         19  H    CARTESIAN X     2.330178     -0.035282  KCAL/ANGSTROM
     56         19  H    CARTESIAN Y    -0.995387     -0.213061  KCAL/ANGSTROM
     57         19  H    CARTESIAN Z    -0.935245     -0.317317  KCAL/ANGSTROM
     58         20  H    CARTESIAN X     1.614083     -0.074298  KCAL/ANGSTROM
     59         20  H    CARTESIAN Y     0.443802      0.166455  KCAL/ANGSTROM
     60         20  H    CARTESIAN Z     1.701988     -0.064836  KCAL/ANGSTROM
     61         21  H    CARTESIAN X     2.520002     -0.131236  KCAL/ANGSTROM
     62         21  H    CARTESIAN Y     2.112758      0.063728  KCAL/ANGSTROM
     63         21  H    CARTESIAN Z    -0.751969      0.164395  KCAL/ANGSTROM
     64         22  H    CARTESIAN X     1.813818      0.074533  KCAL/ANGSTROM
     65         22  H    CARTESIAN Y     2.669785      0.100007  KCAL/ANGSTROM
     66         22  H    CARTESIAN Z     0.785104     -0.045912  KCAL/ANGSTROM
     67         23  H    CARTESIAN X     0.602160      0.063429  KCAL/ANGSTROM
     68         23  H    CARTESIAN Y     0.770033      0.030956  KCAL/ANGSTROM
     69         23  H    CARTESIAN Z    -1.343897     -0.102837  KCAL/ANGSTROM




   ATOM   CHEMICAL          X               Y               Z
  NUMBER   SYMBOL      (ANGSTROMS)     (ANGSTROMS)     (ANGSTROMS)

     1       C         -1.89005201  *   1.14047423  *  -0.43096431  *
     2       C         -0.67860499  *   0.69243739  *   0.38432543  *
     3       C         -0.63341899  *  -0.85003159  *   0.49307125  *
     4       C         -0.36119559  *  -1.71684279  *  -0.71626076  *
     5       C          0.68725116  *  -1.64972867  *   0.36831059  *
     6       C          2.03637974  *  -0.94460545  *   0.12715767  *
     7       C          1.75601037  *   0.45263666  *   0.60569910  *
     8       C          1.85087906  *   1.85532768  *   0.06524033  *
     9       C          0.63257762  *   1.03759409  *  -0.27372424  *
    10       H         -1.87736520  *   0.71129897  *  -1.43943609  *
    11       H         -2.82806666  *   0.83151660  *   0.04278669  *
    12       H         -1.90844386  *   2.23151338  *  -0.53560387  *
    13       H         -0.74616562  *   1.12644581  *   1.40922568  *
    14       H         -1.36057460  *  -1.21322908  *   1.22370590  *
    15       H         -0.16871068  *  -1.25285122  *  -1.67929499  *
    16       H         -0.92930601  *  -2.63169416  *  -0.85572211  *
    17       H          0.79375264  *  -2.51487043  *   1.02754359  *
    18       H          2.84671884  *  -1.43623682  *   0.69231792  *
    19       H          2.33017789  *  -0.99538690  *  -0.93524499  *
    20       H          1.61408323  *   0.44380243  *   1.70198774  *
    21       H          2.52000245  *   2.11275834  *  -0.75196941  *
    22       H          1.81381779  *   2.66978461  *   0.78510410  *
    23       H          0.60215987  *   0.77003257  *  -1.34389688  *

                             CARTESIAN COORDINATES

   1    C       -1.890052014     1.140474227    -0.430964315
   2    C       -0.678604987     0.692437388     0.384325428
   3    C       -0.633418986    -0.850031585     0.493071254
   4    C       -0.361195587    -1.716842792    -0.716260758
   5    C        0.687251157    -1.649728673     0.368310588
   6    C        2.036379737    -0.944605446     0.127157672
   7    C        1.756010367     0.452636655     0.605699100
   8    C        1.850879064     1.855327680     0.065240325
   9    C        0.632577620     1.037594094    -0.273724237
  10    H       -1.877365200     0.711298973    -1.439436087
  11    H       -2.828066661     0.831516602     0.042786687
  12    H       -1.908443865     2.231513379    -0.535603869
  13    H       -0.746165615     1.126445813     1.409225682
  14    H       -1.360574596    -1.213229083     1.223705904
  15    H       -0.168710683    -1.252851219    -1.679294989
  16    H       -0.929306008    -2.631694155    -0.855722115
  17    H        0.793752639    -2.514870431     1.027543593
  18    H        2.846718842    -1.436236824     0.692317923
  19    H        2.330177895    -0.995386902    -0.935244991
  20    H        1.614083225     0.443802435     1.701987739
  21    H        2.520002448     2.112758336    -0.751969415
  22    H        1.813817785     2.669784610     0.785104105
  23    H        0.602159875     0.770032569    -1.343896884


           Empirical Formula: C9 H14  =    23 atoms



      MOLECULAR POINT GROUP   :   C1  


                  EIGENVALUES  
 -31.95965 -29.02706 -27.16507 -24.78494 -22.38878 -20.84718 -19.74572 -19.06082
 -18.53763 -16.79024 -15.86183 -15.23744 -15.03990 -14.19901 -13.58663 -13.25493
 -13.16679 -12.74205 -12.30798 -12.08724 -11.43765 -10.95291 -10.81254 -10.57692
  -9.69457   2.12999   2.58761   3.83848   3.96453   4.11666   4.33359   4.41181
   4.58274   4.71275   4.98686   5.07781   5.69805   5.76482   5.83030   5.96927
   5.97890   6.17503   6.23238   6.26505   6.33123   6.41190   6.44044   6.55523
   6.65763   7.10004


              NET ATOMIC CHARGES AND DIPOLE CONTRIBUTIONS

  ATOM NO.   TYPE          CHARGE      No. of ELECS.   s-Pop       p-Pop       
    1          C          -0.451174        4.4512     1.05443     3.39674
    2          C          -0.047825        4.0478     1.05456     2.99327
    3          C          -0.173738        4.1737     1.06332     3.11042
    4          C          -0.336739        4.3367     1.05309     3.28365
    5          C          -0.157706        4.1577     1.05842     3.09928
    6          C          -0.235529        4.2355     1.05428     3.18125
    7          C          -0.193871        4.1939     1.04795     3.14592
    8          C          -0.288704        4.2887     1.05647     3.23224
    9          C          -0.214031        4.2140     1.05229     3.16174
   10          H           0.148491        0.8515     0.85151
   11          H           0.145932        0.8541     0.85407
   12          H           0.148751        0.8512     0.85125
   13          H           0.137580        0.8624     0.86242
   14          H           0.147421        0.8526     0.85258
   15          H           0.158075        0.8419     0.84192
   16          H           0.153208        0.8468     0.84679
   17          H           0.147719        0.8523     0.85228
   18          H           0.141575        0.8584     0.85842
   19          H           0.145118        0.8549     0.85488
   20          H           0.156451        0.8435     0.84355
   21          H           0.155881        0.8441     0.84412
   22          H           0.156197        0.8438     0.84380
   23          H           0.156917        0.8431     0.84308
 DIPOLE           X         Y         Z       TOTAL
 POINT-CHG.    -0.228    -0.161     0.150     0.317
 HYBRID        -0.042    -0.031    -0.196     0.203
 SUM           -0.269    -0.192    -0.045     0.334


          ATOMIC ORBITAL ELECTRON POPULATIONS

     Atom    s        px        py        pz   
    1  C   1.05443   1.08932   1.16357   1.14385
    2  C   1.05456   0.95491   0.96814   1.07022
    3  C   1.06332   1.05478   0.98615   1.06949
    4  C   1.05309   1.11929   1.13186   1.03251
    5  C   1.05842   0.92902   1.08476   1.08550
    6  C   1.05428   1.03127   1.00189   1.14809
    7  C   1.04795   1.12365   0.94488   1.07739
    8  C   1.05647   1.06507   1.01426   1.15290
    9  C   1.05229   0.94865   1.12937   1.08372
   10  H   0.85151
   11  H   0.85407
   12  H   0.85125
   13  H   0.86242
   14  H   0.85258
   15  H   0.84192
   16  H   0.84679
   17  H   0.85228
   18  H   0.85842
   19  H   0.85488
   20  H   0.84355
   21  H   0.84412
   22  H   0.84380
   23  H   0.84308

 **********************
 *                    *
 * JOB ENDED NORMALLY *
 *                    *
 **********************



 TOTAL JOB TIME:             0.99 SECONDS

 == MOPAC DONE ==
