 *******************************************************************************
 **                                                                           **
 **                              MOPAC v23.2                                  **
 **                                                                           **
 *******************************************************************************
 **          Digital Object Identifier (DOI): 10.5281/zenodo.6511958          **
 **    Visit the DOI location for information on how to cite this program.    **
 *******************************************************************************

                              PM7 CALCULATION RESULTS

 *******************************************************************************
 *  CALCULATION DONE: (MAX THREADS = 40)             Fri Sep 19 21:35:57 2025  *
 *  PM7        - The PM7 Hamiltonian to be used
 *
 *
 *
 *                 CHARGE ON SYSTEM = +1
 *
 *
 *
 *  1SCF       - DO 1 SCF AND THEN STOP 
 *  T=         - A TIME OF 172800.0 SECONDS REQUESTED
 *  DUMP=N     - RESTART FILE WRITTEN EVERY 7200.0 SECONDS REQUESTED
 *  RELSCF     - DEFAULT SCF CRITERION MULTIPLIED BY 0.0001
 *              (DEFAULT SCF CRITERION = 0.00010)
 *  GRADIENTS  - ALL GRADIENTS TO BE PRINTED
 *  DISP       - PRINT DISPERSION AND HYDROGEN BOND ENERGIES
 *******************************************************************************
PM7 1SCF GRADIENTS DISP RELSCF=0.0001 CHARGE=1
 Title: ASE calculation

   ATOM   CHEMICAL          X               Y               Z
  NUMBER   SYMBOL      (ANGSTROMS)     (ANGSTROMS)     (ANGSTROMS)

     1       C         -1.50655743  *   1.69971694  *  -0.37866699  *
     2       C         -0.96439928  *   0.33740605  *  -0.51140527  *
     3       C         -1.87845810  *  -0.74766931  *  -1.02681957  *
     4       O         -1.33192063  *  -1.97978022  *  -0.63534701  *
     5       C          1.08350812  *  -1.08186253  *  -0.24023540  *
     6       C          2.27181999  *  -0.35057687  *   0.32250542  *
     7       O          3.38128977  *  -0.60103506  *   0.62585065  *
     8       C          1.38813776  *   0.94620241  *   0.34815300  *
     9       N          0.29107103  *   0.06626676  *  -0.20492578  *
    10       H         -2.20280378  *   1.78484509  *   0.48586141  *
    11       H         -2.10690360  *   2.00703048  *  -1.26229700  *
    12       H         -0.75425290  *   2.49607717  *  -0.23829536  *
    13       H         -2.92225569  *  -0.61352300  *  -0.67354674  *
    14       H         -1.88719837  *  -0.75056466  *  -2.14757129  *
    15       H         -1.98762085  *  -2.53790103  *  -0.15010109  *
    16       H          0.87019975  *  -2.07641458  *  -0.57861593  *
    17       H          1.17973680  *   1.36201037  *   1.34771330  *
    18       H          1.70949510  *   1.75365254  *  -0.33098145  *



          CARTESIAN COORDINATES 

    NO.       ATOM           X           Y           Z

     1         C         -1.5066      1.6997     -0.3787
     2         C         -0.9644      0.3374     -0.5114
     3         C         -1.8785     -0.7477     -1.0268
     4         O         -1.3319     -1.9798     -0.6353
     5         C          1.0835     -1.0819     -0.2402
     6         C          2.2718     -0.3506      0.3225
     7         O          3.3813     -0.6010      0.6259
     8         C          1.3881      0.9462      0.3482
     9         N          0.2911      0.0663     -0.2049
    10         H         -2.2028      1.7848      0.4859
    11         H         -2.1069      2.0070     -1.2623
    12         H         -0.7543      2.4961     -0.2383
    13         H         -2.9223     -0.6135     -0.6735
    14         H         -1.8872     -0.7506     -2.1476
    15         H         -1.9876     -2.5379     -0.1501
    16         H          0.8702     -2.0764     -0.5786
    17         H          1.1797      1.3620      1.3477
    18         H          1.7095      1.7537     -0.3310

 General Reference for PM7:
 "Optimization of Parameters for Semiempirical Methods VI: More Modifications to the 
 NDDO Approximations and Re-optimization of Parameters", J. J. P. Stewart, J. Mol. Mod., 1:32, 19 (2013)
 https://link.springer.com/article/10.1007/s00894-012-1667-x

           Empirical Formula: C6 H9 N O2  =    18 atoms



      MOLECULAR POINT GROUP   :   C1  


          UHF CALCULATION, NO. OF ALPHA ELECTRONS =   25
                           NO. OF BETA  ELECTRONS =   24
  SCF CRITERION =    0.1000E-07

 -------------------------------------------------------------------------------
 PM7 1SCF GRADIENTS DISP RELSCF=0.0001 CHARGE=1
 Title: ASE calculation



     1SCF WAS SPECIFIED, SO BFGS WAS NOT USED                 
     SCF FIELD WAS ACHIEVED                                   


                              PM7 CALCULATION
                                                       MOPAC v23.2 Linux
                                                       Fri Sep 19 21:35:58 2025




          FINAL HEAT OF FORMATION =        139.03286 KCAL/MOL =     581.71350 KJ/MOL

          TOTAL ENERGY            =     -37498.07066 KCAL/MOL = ELECTRONIC ENERGY + CORE-CORE REPULSION
          ENERGY OF ATOMS         =      37638.97832 KCAL/MOL
                              SUM =        140.90766 KCAL/MOL
          DISPERSION ENERGY       =         -1.87479 KCAL/MOL
                              SUM =        139.03286 KCAL/MOL = FINAL HEAT OF FORMATION



          TOTAL ENERGY            =      -1626.07024 EV
          ELECTRONIC ENERGY       =      -7411.07745 EV 
          CORE-CORE REPULSION     =       5785.00721 EV
          COSMO AREA              =        162.91 SQUARE ANGSTROMS
          COSMO VOLUME            =        157.31 CUBIC ANGSTROMS

          GRADIENT NORM           =          1.10024          =       0.25933 PER ATOM
          IONIZATION POTENTIAL    =         14.242140 EV
          ALPHA SOMO LUMO (EV)    =        -14.242 -5.468
          BETA  SOMO LUMO (EV)    =        -14.871 -6.360
          NO. OF ALPHA ELECTRONS  =         25
          NO. OF BETA  ELECTRONS  =         24
          MOLECULAR WEIGHT        =        127.1426         POINT GROUP:  C1  

          MOLECULAR DIMENSIONS (Angstroms)

            Atom       Atom       Distance
            H    13    O     7     6.43609
            H    15    H    12     5.04282
            H    14    H    17     2.93793


          SCF CALCULATIONS        =          1

          WALL-CLOCK TIME         =      0.992 SECONDS
          COMPUTATION TIME        =      0.844 SECONDS

          LARGEST ATOMIC GRADIENTS

          Atom     Label                     Cartesian Gradients           Cartesian Coordinates       |Gradient|
                                           X          Y          Z        X          Y          Z

            13       H                  -0.017      0.135     -0.386   -2.92226   -0.61352   -0.67355      0.409
             9       N                  -0.048     -0.383     -0.132    0.29107    0.06627   -0.20493      0.408
             8       C                   0.172     -0.359     -0.037    1.38814    0.94620    0.34815      0.400
            15       H                   0.272      0.170      0.210   -1.98762   -2.53790   -0.15010      0.383
             6       C                   0.110      0.087      0.268    2.27182   -0.35058    0.32251      0.303
            14       H                  -0.136      0.040      0.263   -1.88720   -0.75056   -2.14757      0.298
            16       H                   0.090     -0.049     -0.269    0.87020   -2.07641   -0.57862      0.288
             1       C                  -0.138      0.219      0.067   -1.50656    1.69972   -0.37867      0.268
            18       H                  -0.121      0.108     -0.174    1.70950    1.75365   -0.33098      0.238
            12       H                   0.114     -0.152      0.032   -0.75425    2.49608   -0.23830      0.192



       FINAL  POINT  AND  DERIVATIVES

   PARAMETER     ATOM    TYPE            VALUE        GRADIENT
      1          1  C    CARTESIAN X    -1.506557     -0.138300  KCAL/ANGSTROM
      2          1  C    CARTESIAN Y     1.699717      0.218826  KCAL/ANGSTROM
      3          1  C    CARTESIAN Z    -0.378667      0.067448  KCAL/ANGSTROM
      4          2  C    CARTESIAN X    -0.964399     -0.096136  KCAL/ANGSTROM
      5          2  C    CARTESIAN Y     0.337406      0.080671  KCAL/ANGSTROM
      6          2  C    CARTESIAN Z    -0.511405     -0.003871  KCAL/ANGSTROM
      7          3  C    CARTESIAN X    -1.878458     -0.064150  KCAL/ANGSTROM
      8          3  C    CARTESIAN Y    -0.747669     -0.064542  KCAL/ANGSTROM
      9          3  C    CARTESIAN Z    -1.026820      0.089651  KCAL/ANGSTROM
     10          4  O    CARTESIAN X    -1.331921     -0.075229  KCAL/ANGSTROM
     11          4  O    CARTESIAN Y    -1.979780     -0.041761  KCAL/ANGSTROM
     12          4  O    CARTESIAN Z    -0.635347     -0.061185  KCAL/ANGSTROM
     13          5  C    CARTESIAN X     1.083508      0.011224  KCAL/ANGSTROM
     14          5  C    CARTESIAN Y    -1.081863     -0.098613  KCAL/ANGSTROM
     15          5  C    CARTESIAN Z    -0.240235      0.043667  KCAL/ANGSTROM
     16          6  C    CARTESIAN X     2.271820      0.110196  KCAL/ANGSTROM
     17          6  C    CARTESIAN Y    -0.350577      0.086906  KCAL/ANGSTROM
     18          6  C    CARTESIAN Z     0.322505      0.268314  KCAL/ANGSTROM
     19          7  O    CARTESIAN X     3.381290      0.008122  KCAL/ANGSTROM
     20          7  O    CARTESIAN Y    -0.601035      0.171895  KCAL/ANGSTROM
     21          7  O    CARTESIAN Z     0.625851      0.080739  KCAL/ANGSTROM
     22          8  C    CARTESIAN X     1.388138      0.172032  KCAL/ANGSTROM
     23          8  C    CARTESIAN Y     0.946202     -0.358778  KCAL/ANGSTROM
     24          8  C    CARTESIAN Z     0.348153     -0.037231  KCAL/ANGSTROM
     25          9  N    CARTESIAN X     0.291071     -0.047994  KCAL/ANGSTROM
     26          9  N    CARTESIAN Y     0.066267     -0.382788  KCAL/ANGSTROM
     27          9  N    CARTESIAN Z    -0.204926     -0.132050  KCAL/ANGSTROM
     28         10  H    CARTESIAN X    -2.202804     -0.027029  KCAL/ANGSTROM
     29         10  H    CARTESIAN Y     1.784845     -0.093967  KCAL/ANGSTROM
     30         10  H    CARTESIAN Z     0.485861      0.040645  KCAL/ANGSTROM
     31         11  H    CARTESIAN X    -2.106904      0.031312  KCAL/ANGSTROM
     32         11  H    CARTESIAN Y     2.007030      0.152059  KCAL/ANGSTROM
     33         11  H    CARTESIAN Z    -1.262297     -0.036216  KCAL/ANGSTROM
     34         12  H    CARTESIAN X    -0.754253      0.113602  KCAL/ANGSTROM
     35         12  H    CARTESIAN Y     2.496077     -0.151949  KCAL/ANGSTROM
     36         12  H    CARTESIAN Z    -0.238295      0.031967  KCAL/ANGSTROM
     37         13  H    CARTESIAN X    -2.922256     -0.016535  KCAL/ANGSTROM
     38         13  H    CARTESIAN Y    -0.613523      0.134707  KCAL/ANGSTROM
     39         13  H    CARTESIAN Z    -0.673547     -0.385918  KCAL/ANGSTROM
     40         14  H    CARTESIAN X    -1.887198     -0.135600  KCAL/ANGSTROM
     41         14  H    CARTESIAN Y    -0.750565      0.040134  KCAL/ANGSTROM
     42         14  H    CARTESIAN Z    -2.147571      0.262607  KCAL/ANGSTROM
     43         15  H    CARTESIAN X    -1.987621      0.272099  KCAL/ANGSTROM
     44         15  H    CARTESIAN Y    -2.537901      0.169715  KCAL/ANGSTROM
     45         15  H    CARTESIAN Z    -0.150101      0.210182  KCAL/ANGSTROM
     46         16  H    CARTESIAN X     0.870200      0.089582  KCAL/ANGSTROM
     47         16  H    CARTESIAN Y    -2.076415     -0.048524  KCAL/ANGSTROM
     48         16  H    CARTESIAN Z    -0.578616     -0.269422  KCAL/ANGSTROM
     49         17  H    CARTESIAN X     1.179737     -0.086529  KCAL/ANGSTROM
     50         17  H    CARTESIAN Y     1.362010      0.078463  KCAL/ANGSTROM
     51         17  H    CARTESIAN Z     1.347713      0.005143  KCAL/ANGSTROM
     52         18  H    CARTESIAN X     1.709495     -0.120669  KCAL/ANGSTROM
     53         18  H    CARTESIAN Y     1.753653      0.107545  KCAL/ANGSTROM
     54         18  H    CARTESIAN Z    -0.330981     -0.174474  KCAL/ANGSTROM




   ATOM   CHEMICAL          X               Y               Z
  NUMBER   SYMBOL      (ANGSTROMS)     (ANGSTROMS)     (ANGSTROMS)

     1       C         -1.50655743  *   1.69971694  *  -0.37866699  *
     2       C         -0.96439928  *   0.33740605  *  -0.51140527  *
     3       C         -1.87845810  *  -0.74766931  *  -1.02681957  *
     4       O         -1.33192063  *  -1.97978022  *  -0.63534701  *
     5       C          1.08350812  *  -1.08186253  *  -0.24023540  *
     6       C          2.27181999  *  -0.35057687  *   0.32250542  *
     7       O          3.38128977  *  -0.60103506  *   0.62585065  *
     8       C          1.38813776  *   0.94620241  *   0.34815300  *
     9       N          0.29107103  *   0.06626676  *  -0.20492578  *
    10       H         -2.20280378  *   1.78484509  *   0.48586141  *
    11       H         -2.10690360  *   2.00703048  *  -1.26229700  *
    12       H         -0.75425290  *   2.49607717  *  -0.23829536  *
    13       H         -2.92225569  *  -0.61352300  *  -0.67354674  *
    14       H         -1.88719837  *  -0.75056466  *  -2.14757129  *
    15       H         -1.98762085  *  -2.53790103  *  -0.15010109  *
    16       H          0.87019975  *  -2.07641458  *  -0.57861593  *
    17       H          1.17973680  *   1.36201037  *   1.34771330  *
    18       H          1.70949510  *   1.75365254  *  -0.33098145  *

                             CARTESIAN COORDINATES

   1    C       -1.506557425     1.699716937    -0.378666995
   2    C       -0.964399284     0.337406049    -0.511405268
   3    C       -1.878458096    -0.747669312    -1.026819567
   4    O       -1.331920634    -1.979780218    -0.635347008
   5    C        1.083508124    -1.081862532    -0.240235404
   6    C        2.271819989    -0.350576871     0.322505416
   7    O        3.381289774    -0.601035059     0.625850645
   8    C        1.388137758     0.946202412     0.348152999
   9    N        0.291071032     0.066266764    -0.204925776
  10    H       -2.202803785     1.784845093     0.485861414
  11    H       -2.106903598     2.007030476    -1.262297001
  12    H       -0.754252903     2.496077173    -0.238295357
  13    H       -2.922255688    -0.613523002    -0.673546738
  14    H       -1.887198365    -0.750564661    -2.147571288
  15    H       -1.987620854    -2.537901026    -0.150101088
  16    H        0.870199750    -2.076414581    -0.578615934
  17    H        1.179736802     1.362010370     1.347713299
  18    H        1.709495102     1.753652536    -0.330981454


           Empirical Formula: C6 H9 N O2  =    18 atoms



      MOLECULAR POINT GROUP   :   C1  


          ALPHA EIGENVALUES  
 -43.25894 -36.78502 -34.89611 -33.60867 -30.96056 -29.56743 -28.11100 -24.79531
 -23.57885 -22.66389 -22.28821 -22.04318 -21.41368 -20.47123 -19.70354 -19.24686
 -19.03269 -18.72736 -18.46613 -18.31031 -17.57280 -17.12723 -15.68517 -15.02616
 -14.24214  -5.46784  -4.14297  -3.76692  -2.57379  -2.45907  -2.19735  -1.79339
  -1.70583  -0.81648  -0.24552   0.25323   0.26795   0.30231   0.41203   0.47300
   0.73391   0.77156   1.10602   1.44714   1.67821


           BETA EIGENVALUES 
 -43.62115 -36.45900 -34.82770 -33.55017 -30.96813 -29.48951 -28.02261 -24.73003
 -23.48314 -22.60597 -22.21930 -21.94847 -21.37822 -20.32968 -19.61510 -19.17359
 -18.92177 -18.67522 -18.30093 -18.23943 -17.44096 -17.08453 -15.62040 -14.87130
  -6.36018  -4.61664  -4.18945  -3.11197  -2.51146  -2.38911  -2.16223  -1.70661
  -1.58669  -0.76542  -0.21411   0.24254   0.28635   0.39639   0.46109   0.49288
   0.72727   0.79767   1.23340   1.45881   1.69307


              NET ATOMIC CHARGES AND DIPOLE CONTRIBUTIONS

  ATOM NO.   TYPE          CHARGE      No. of ELECS.   s-Pop       p-Pop       
    1          C          -0.506395        4.5064     1.05432     3.45208
    2          C           0.251484        3.7485     1.11487     2.63365
    3          C          -0.032443        4.0324     1.08979     2.94265
    4          O          -0.546833        6.5468     1.84743     4.69941
    5          C          -0.027745        4.0277     1.18310     2.84464
    6          C           0.382590        3.6174     1.12284     2.49457
    7          O          -0.179473        6.1795     1.87609     4.30338
    8          C          -0.233731        4.2337     1.12829     3.10544
    9          N          -0.119735        5.1197     1.52443     3.59530
   10          H           0.221038        0.7790     0.77896
   11          H           0.218596        0.7814     0.78140
   12          H           0.197861        0.8021     0.80214
   13          H           0.175611        0.8244     0.82439
   14          H           0.195493        0.8045     0.80451
   15          H           0.362832        0.6372     0.63717
   16          H           0.235097        0.7649     0.76490
   17          H           0.202901        0.7971     0.79710
   18          H           0.202852        0.7971     0.79715
 DIPOLE           X         Y         Z       TOTAL
 POINT-CHG.    -4.753     2.958    -0.677     5.639
 HYBRID        -0.254    -0.061     0.246     0.359
 SUM           -5.007     2.897    -0.431     5.801


          ATOMIC ORBITAL ELECTRON POPULATIONS

     Atom    s        px        py        pz   
    1  C   1.05432   1.20318   1.01672   1.23218
    2  C   1.11487   0.82304   1.00196   0.80865
    3  C   1.08979   1.02822   0.79914   1.11529
    4  O   1.84743   1.50822   1.36843   1.82277
    5  C   1.18310   0.89365   0.97394   0.97706
    6  C   1.12284   0.84887   0.87507   0.77063
    7  O   1.87609   1.21784   1.75856   1.32698
    8  C   1.12829   0.86583   1.08826   1.15135
    9  N   1.52443   1.11395   1.18300   1.29835
   10  H   0.77896
   11  H   0.78140
   12  H   0.80214
   13  H   0.82439
   14  H   0.80451
   15  H   0.63717
   16  H   0.76490
   17  H   0.79710
   18  H   0.79715


                    (SZ)    =    0.500000
                    (S**2)  =    0.814047


          ATOMIC ORBITAL SPIN POPULATIONS

    Atom   Total    s     px     py     pz   
         Atomic
    1  C -0.0116 -0.002 -0.004 -0.009  0.004
    2  C  0.4045  0.011  0.040  0.026  0.327
    3  C -0.0159 -0.002 -0.005 -0.006 -0.003
    4  O  0.0023  0.000  0.001  0.000  0.000
    5  C  0.8294  0.023  0.096  0.071  0.639
    6  C -0.0838 -0.008 -0.015 -0.013 -0.048
    7  O  0.1100  0.003  0.010  0.004  0.093
    8  C  0.0140  0.001  0.008  0.002  0.003
    9  N -0.2651 -0.015 -0.034 -0.035 -0.181
   10  H  0.0158  0.016
   11  H  0.0095  0.010
   12  H  0.0013  0.001
   13  H  0.0064  0.006
   14  H  0.0144  0.014
   15  H  0.0001  0.000
   16  H -0.0208 -0.021
   17  H -0.0051 -0.005
   18  H -0.0053 -0.005

 **********************
 *                    *
 * JOB ENDED NORMALLY *
 *                    *
 **********************



 TOTAL JOB TIME:             1.53 SECONDS

 == MOPAC DONE ==
