 *******************************************************************************
 **                                                                           **
 **                              MOPAC v23.2                                  **
 **                                                                           **
 *******************************************************************************
 **          Digital Object Identifier (DOI): 10.5281/zenodo.6511958          **
 **    Visit the DOI location for information on how to cite this program.    **
 *******************************************************************************

                              PM7 CALCULATION RESULTS

 *******************************************************************************
 *  CALCULATION DONE: (MAX THREADS = 40)             Fri Sep 19 21:59:01 2025  *
 *  PM7        - The PM7 Hamiltonian to be used
 *  EPS=37.5   - USE ANDREAS KLAMT'S COSMO IMPLICIT SOLVATION MODEL
 *  1SCF       - DO 1 SCF AND THEN STOP 
 *  T=         - A TIME OF 172800.0 SECONDS REQUESTED
 *  DUMP=N     - RESTART FILE WRITTEN EVERY 7200.0 SECONDS REQUESTED
 *  RELSCF     - DEFAULT SCF CRITERION MULTIPLIED BY 0.0001
 *              (DEFAULT SCF CRITERION = 0.00010)
 *  GRADIENTS  - ALL GRADIENTS TO BE PRINTED
 *  DISP       - PRINT DISPERSION AND HYDROGEN BOND ENERGIES
 *******************************************************************************
PM7 1SCF GRADIENTS EPS=37.5 DISP RELSCF=0.0001
 Title: ASE calculation

   ATOM   CHEMICAL          X               Y               Z
  NUMBER   SYMBOL      (ANGSTROMS)     (ANGSTROMS)     (ANGSTROMS)

     1       C          1.91873878  *  -1.85537125  *  -0.31696571  *
     2       C          1.11280868  *  -0.62490776  *  -0.35554386  *
     3       C          1.51856813  *   0.64533269  *  -0.52661692  *
     4       C          0.36084367  *   1.58212239  *  -0.49017165  *
     5       O         -0.33855206  *   1.53657554  *   0.76767961  *
     6       C         -0.87577075  *   0.73994862  *  -0.29169069  *
     7       C         -2.25634859  *   1.03912094  *  -0.74207714  *
     8       C         -0.40504694  *  -0.72716764  *  -0.17217120  *
     9       O         -0.72854772  *  -1.26740070  *   1.07784905  *
    10       H          1.63156273  *  -2.55100996  *  -1.12144505  *
    11       H          1.76208947  *  -2.39818400  *   0.63265320  *
    12       H          2.99683095  *  -1.66765667  *  -0.41255034  *
    13       H          2.51889479  *   1.00435586  *  -0.67185371  *
    14       H          0.40535982  *   2.55100996  *  -0.96559863  *
    15       H         -2.99683095  *   0.49097553  *  -0.13622619  *
    16       H         -2.41426860  *   0.75800846  *  -1.79253739  *
    17       H         -2.49797546  *   2.10829098  *  -0.64239913  *
    18       H         -0.89052840  *  -1.40975043  *  -0.89602838  *
    19       H         -0.47215391  *  -0.63627026  *   1.79253739  *



          CARTESIAN COORDINATES 

    NO.       ATOM           X           Y           Z

     1         C          1.9187     -1.8554     -0.3170
     2         C          1.1128     -0.6249     -0.3555
     3         C          1.5186      0.6453     -0.5266
     4         C          0.3608      1.5821     -0.4902
     5         O         -0.3386      1.5366      0.7677
     6         C         -0.8758      0.7399     -0.2917
     7         C         -2.2563      1.0391     -0.7421
     8         C         -0.4050     -0.7272     -0.1722
     9         O         -0.7285     -1.2674      1.0778
    10         H          1.6316     -2.5510     -1.1214
    11         H          1.7621     -2.3982      0.6327
    12         H          2.9968     -1.6677     -0.4126
    13         H          2.5189      1.0044     -0.6719
    14         H          0.4054      2.5510     -0.9656
    15         H         -2.9968      0.4910     -0.1362
    16         H         -2.4143      0.7580     -1.7925
    17         H         -2.4980      2.1083     -0.6424
    18         H         -0.8905     -1.4098     -0.8960
    19         H         -0.4722     -0.6363      1.7925

 General Reference for PM7:
 "Optimization of Parameters for Semiempirical Methods VI: More Modifications to the 
 NDDO Approximations and Re-optimization of Parameters", J. J. P. Stewart, J. Mol. Mod., 1:32, 19 (2013)
 https://link.springer.com/article/10.1007/s00894-012-1667-x

           Empirical Formula: C7 H10 O2  =    19 atoms



      MOLECULAR POINT GROUP   :   C1  


      RHF CALCULATION, NO. OF DOUBLY OCCUPIED LEVELS = 25

  SCF CRITERION =    0.1000E-07

 -------------------------------------------------------------------------------
 PM7 1SCF GRADIENTS EPS=37.5 DISP RELSCF=0.0001
 Title: ASE calculation



     1SCF WAS SPECIFIED, SO BFGS WAS NOT USED                 
     SCF FIELD WAS ACHIEVED                                   


                              PM7 CALCULATION
                                                       MOPAC v23.2 Linux
                                                       Fri Sep 19 21:59:02 2025




          FINAL HEAT OF FORMATION =        -56.26879 KCAL/MOL =    -235.42862 KJ/MOL

          TOTAL ENERGY            =     -36536.88125 KCAL/MOL = ELECTRONIC ENERGY + CORE-CORE REPULSION + SOLVATION ENERGY
          ENERGY OF ATOMS         =      36482.50324 KCAL/MOL
                              SUM =        -54.37802 KCAL/MOL
          DISPERSION ENERGY       =         -1.77523 KCAL/MOL
          H-BOND ENERGY           =         -0.11555 KCAL/MOL
                              SUM =        -56.26879 KCAL/MOL = FINAL HEAT OF FORMATION

          VAN DER WAALS AREA      =        160.52 SQUARE ANGSTROMS


          TOTAL ENERGY            =      -1584.38913 EV
          ELECTRONIC ENERGY       =      -2420.46461 EV 
          CORE-CORE REPULSION     =        836.07548 EV

          DIELECTRIC ENERGY       =         -0.33074 EV
          COSMO AREA              =        160.52 SQUARE ANGSTROMS
          COSMO VOLUME            =        159.73 CUBIC ANGSTROMS

          GRADIENT NORM           =         11.10411          =       2.54746 PER ATOM
          IONIZATION POTENTIAL    =         10.013039 EV
          HOMO LUMO ENERGIES (EV) =        -10.013  0.215
          NO. OF FILLED LEVELS    =         25
          MOLECULAR WEIGHT        =        126.1548         POINT GROUP:  C1  

          MOLECULAR DIMENSIONS (Angstroms)

            Atom       Atom       Distance
            H    17    H    12     6.67110
            O     9    H    14     4.28458
            H    16    H    19     3.07288


          SCF CALCULATIONS        =          2

          WALL-CLOCK TIME         =      1.367 SECONDS
          COMPUTATION TIME        =      0.567 SECONDS

          LARGEST ATOMIC GRADIENTS

          Atom     Label                     Cartesian Gradients           Cartesian Coordinates       |Gradient|
                                           X          Y          Z        X          Y          Z

             7       C                  -2.555      0.150     -4.058   -2.25635    1.03912   -0.74208      4.797
             5       O                  -0.158     -1.205     -4.560   -0.33855    1.53658    0.76768      4.719
             6       C                   2.109      0.859      3.224   -0.87577    0.73995   -0.29169      3.948
             1       C                   2.105     -2.518     -1.359    1.91874   -1.85537   -0.31697      3.552
             4       C                  -0.966      2.155      2.407    0.36084    1.58212   -0.49017      3.372
            19       H                  -0.941     -0.320     -2.869   -0.47215   -0.63627    1.79254      3.037
             2       C                  -0.591      1.822     -0.576    1.11281   -0.62491   -0.35554      2.000
            18       H                   0.652      0.477      1.771   -0.89053   -1.40975   -0.89603      1.946
             3       C                   1.440     -0.245     -1.158    1.51857    0.64533   -0.52662      1.864
             8       C                  -0.510     -0.334      1.701   -0.40505   -0.72717   -0.17217      1.807



       FINAL  POINT  AND  DERIVATIVES

   PARAMETER     ATOM    TYPE            VALUE        GRADIENT
      1          1  C    CARTESIAN X     1.918739      2.104868  KCAL/ANGSTROM
      2          1  C    CARTESIAN Y    -1.855371     -2.517858  KCAL/ANGSTROM
      3          1  C    CARTESIAN Z    -0.316966     -1.359070  KCAL/ANGSTROM
      4          2  C    CARTESIAN X     1.112809     -0.591265  KCAL/ANGSTROM
      5          2  C    CARTESIAN Y    -0.624908      1.821921  KCAL/ANGSTROM
      6          2  C    CARTESIAN Z    -0.355544     -0.576385  KCAL/ANGSTROM
      7          3  C    CARTESIAN X     1.518568      1.440191  KCAL/ANGSTROM
      8          3  C    CARTESIAN Y     0.645333     -0.244673  KCAL/ANGSTROM
      9          3  C    CARTESIAN Z    -0.526617     -1.158254  KCAL/ANGSTROM
     10          4  C    CARTESIAN X     0.360844     -0.966259  KCAL/ANGSTROM
     11          4  C    CARTESIAN Y     1.582122      2.154903  KCAL/ANGSTROM
     12          4  C    CARTESIAN Z    -0.490172      2.407396  KCAL/ANGSTROM
     13          5  O    CARTESIAN X    -0.338552     -0.157785  KCAL/ANGSTROM
     14          5  O    CARTESIAN Y     1.536576     -1.204982  KCAL/ANGSTROM
     15          5  O    CARTESIAN Z     0.767680     -4.559712  KCAL/ANGSTROM
     16          6  C    CARTESIAN X    -0.875771      2.109392  KCAL/ANGSTROM
     17          6  C    CARTESIAN Y     0.739949      0.858664  KCAL/ANGSTROM
     18          6  C    CARTESIAN Z    -0.291691      3.224386  KCAL/ANGSTROM
     19          7  C    CARTESIAN X    -2.256349     -2.554828  KCAL/ANGSTROM
     20          7  C    CARTESIAN Y     1.039121      0.150429  KCAL/ANGSTROM
     21          7  C    CARTESIAN Z    -0.742077     -4.057568  KCAL/ANGSTROM
     22          8  C    CARTESIAN X    -0.405047     -0.510157  KCAL/ANGSTROM
     23          8  C    CARTESIAN Y    -0.727168     -0.334475  KCAL/ANGSTROM
     24          8  C    CARTESIAN Z    -0.172171      1.700853  KCAL/ANGSTROM
     25          9  O    CARTESIAN X    -0.728548      0.553748  KCAL/ANGSTROM
     26          9  O    CARTESIAN Y    -1.267401      0.009415  KCAL/ANGSTROM
     27          9  O    CARTESIAN Z     1.077849     -0.211527  KCAL/ANGSTROM
     28         10  H    CARTESIAN X     1.631563     -0.520979  KCAL/ANGSTROM
     29         10  H    CARTESIAN Y    -2.551010      0.933191  KCAL/ANGSTROM
     30         10  H    CARTESIAN Z    -1.121445      0.846490  KCAL/ANGSTROM
     31         11  H    CARTESIAN X     1.762089     -0.539548  KCAL/ANGSTROM
     32         11  H    CARTESIAN Y    -2.398184      0.575742  KCAL/ANGSTROM
     33         11  H    CARTESIAN Z     0.632653      0.069158  KCAL/ANGSTROM
     34         12  H    CARTESIAN X     2.996831     -0.941597  KCAL/ANGSTROM
     35         12  H    CARTESIAN Y    -1.667657      0.181236  KCAL/ANGSTROM
     36         12  H    CARTESIAN Z    -0.412550      0.234416  KCAL/ANGSTROM
     37         13  H    CARTESIAN X     2.518895     -1.242129  KCAL/ANGSTROM
     38         13  H    CARTESIAN Y     1.004356     -0.397742  KCAL/ANGSTROM
     39         13  H    CARTESIAN Z    -0.671854      0.747416  KCAL/ANGSTROM
     40         14  H    CARTESIAN X     0.405360      0.074282  KCAL/ANGSTROM
     41         14  H    CARTESIAN Y     2.551010     -1.642860  KCAL/ANGSTROM
     42         14  H    CARTESIAN Z    -0.965599      0.653651  KCAL/ANGSTROM
     43         15  H    CARTESIAN X    -2.996831      1.082286  KCAL/ANGSTROM
     44         15  H    CARTESIAN Y     0.490976      0.208445  KCAL/ANGSTROM
     45         15  H    CARTESIAN Z    -0.136226      0.943428  KCAL/ANGSTROM
     46         16  H    CARTESIAN X    -2.414269      0.408677  KCAL/ANGSTROM
     47         16  H    CARTESIAN Y     0.758008      0.012247  KCAL/ANGSTROM
     48         16  H    CARTESIAN Z    -1.792537      1.055271  KCAL/ANGSTROM
     49         17  H    CARTESIAN X    -2.497975      0.539970  KCAL/ANGSTROM
     50         17  H    CARTESIAN Y     2.108291     -0.720079  KCAL/ANGSTROM
     51         17  H    CARTESIAN Z    -0.642399      1.138336  KCAL/ANGSTROM
     52         18  H    CARTESIAN X    -0.890528      0.651734  KCAL/ANGSTROM
     53         18  H    CARTESIAN Y    -1.409750      0.476893  KCAL/ANGSTROM
     54         18  H    CARTESIAN Z    -0.896028      1.771041  KCAL/ANGSTROM
     55         19  H    CARTESIAN X    -0.472154     -0.940595  KCAL/ANGSTROM
     56         19  H    CARTESIAN Y    -0.636270     -0.320425  KCAL/ANGSTROM
     57         19  H    CARTESIAN Z     1.792537     -2.869356  KCAL/ANGSTROM




   ATOM   CHEMICAL          X               Y               Z
  NUMBER   SYMBOL      (ANGSTROMS)     (ANGSTROMS)     (ANGSTROMS)

     1       C          1.91873878  *  -1.85537125  *  -0.31696571  *
     2       C          1.11280868  *  -0.62490776  *  -0.35554386  *
     3       C          1.51856813  *   0.64533269  *  -0.52661692  *
     4       C          0.36084367  *   1.58212239  *  -0.49017165  *
     5       O         -0.33855206  *   1.53657554  *   0.76767961  *
     6       C         -0.87577075  *   0.73994862  *  -0.29169069  *
     7       C         -2.25634859  *   1.03912094  *  -0.74207714  *
     8       C         -0.40504694  *  -0.72716764  *  -0.17217120  *
     9       O         -0.72854772  *  -1.26740070  *   1.07784905  *
    10       H          1.63156273  *  -2.55100996  *  -1.12144505  *
    11       H          1.76208947  *  -2.39818400  *   0.63265320  *
    12       H          2.99683095  *  -1.66765667  *  -0.41255034  *
    13       H          2.51889479  *   1.00435586  *  -0.67185371  *
    14       H          0.40535982  *   2.55100996  *  -0.96559863  *
    15       H         -2.99683095  *   0.49097553  *  -0.13622619  *
    16       H         -2.41426860  *   0.75800846  *  -1.79253739  *
    17       H         -2.49797546  *   2.10829098  *  -0.64239913  *
    18       H         -0.89052840  *  -1.40975043  *  -0.89602838  *
    19       H         -0.47215391  *  -0.63627026  *   1.79253739  *

                             CARTESIAN COORDINATES

   1    C        1.918738784    -1.855371252    -0.316965711
   2    C        1.112808682    -0.624907755    -0.355543860
   3    C        1.518568134     0.645332695    -0.526616919
   4    C        0.360843669     1.582122394    -0.490171651
   5    O       -0.338552055     1.536575538     0.767679610
   6    C       -0.875770747     0.739948615    -0.291690690
   7    C       -2.256348587     1.039120945    -0.742077142
   8    C       -0.405046939    -0.727167641    -0.172171196
   9    O       -0.728547716    -1.267400702     1.077849050
  10    H        1.631562725    -2.551009960    -1.121445047
  11    H        1.762089469    -2.398184003     0.632653201
  12    H        2.996830946    -1.667656670    -0.412550345
  13    H        2.518894788     1.004355858    -0.671853712
  14    H        0.405359816     2.551009960    -0.965598634
  15    H       -2.996830946     0.490975531    -0.136226188
  16    H       -2.414268605     0.758008462    -1.792537395
  17    H       -2.497975456     2.108290981    -0.642399126
  18    H       -0.890528399    -1.409750427    -0.896028376
  19    H       -0.472153907    -0.636270263     1.792537395


           Empirical Formula: C7 H10 O2  =    19 atoms



      MOLECULAR POINT GROUP   :   C1  


                  EIGENVALUES  
 -32.98283 -29.78179 -28.40577 -26.65341 -25.50401 -23.76867 -21.83284 -20.02674
 -18.69544 -17.50307 -16.57555 -15.97710 -15.31970 -14.80970 -14.59981 -14.26693
 -14.00208 -13.76057 -13.25045 -13.04569 -12.36972 -11.67348 -11.40400 -10.51190
 -10.01304   0.21542   1.79312   2.23059   2.92133   3.05972   3.25130   3.78154
   3.96225   4.09932   4.57036   5.17197   5.26321   5.54361   5.55630   5.56891
   5.59174   5.77914   5.95878   6.12965   6.71201   6.78167


              NET ATOMIC CHARGES AND DIPOLE CONTRIBUTIONS

  ATOM NO.   TYPE          CHARGE      No. of ELECS.   s-Pop       p-Pop       
    1          C          -0.465455        4.4655     1.04651     3.41895
    2          C           0.020013        3.9800     1.09655     2.88344
    3          C          -0.265024        4.2650     1.09273     3.17230
    4          C           0.016923        3.9831     1.09527     2.88780
    5          O          -0.425299        6.4253     1.91925     4.50605
    6          C           0.124382        3.8756     1.08935     2.78626
    7          C          -0.474296        4.4743     1.05050     3.42379
    8          C           0.104335        3.8957     1.09756     2.79811
    9          O          -0.577080        6.5771     1.84709     4.72999
   10          H           0.176177        0.8238     0.82382
   11          H           0.179540        0.8205     0.82046
   12          H           0.168940        0.8311     0.83106
   13          H           0.176737        0.8233     0.82326
   14          H           0.177303        0.8227     0.82270
   15          H           0.177409        0.8226     0.82259
   16          H           0.177134        0.8229     0.82287
   17          H           0.177235        0.8228     0.82277
   18          H           0.171750        0.8282     0.82825
   19          H           0.359276        0.6407     0.64072
 DIPOLE           X         Y         Z       TOTAL
 POINT-CHG.     0.570    -0.478    -3.786     3.858
 HYBRID        -0.002     0.337     1.161     1.209
 SUM            0.568    -0.141    -2.624     2.689


          ATOMIC ORBITAL ELECTRON POPULATIONS

     Atom    s        px        py        pz   
    1  C   1.04651   1.14583   1.07681   1.19631
    2  C   1.09655   0.98407   0.97573   0.92363
    3  C   1.09273   1.07610   1.00094   1.09526
    4  C   1.09527   0.94140   1.06896   0.87745
    5  O   1.91925   1.55980   1.70010   1.24615
    6  C   1.08935   0.95494   0.92653   0.90480
    7  C   1.05050   1.04060   1.20095   1.18224
    8  C   1.09756   0.97343   0.97397   0.85071
    9  O   1.84709   1.87495   1.55932   1.29572
   10  H   0.82382
   11  H   0.82046
   12  H   0.83106
   13  H   0.82326
   14  H   0.82270
   15  H   0.82259
   16  H   0.82287
   17  H   0.82277
   18  H   0.82825
   19  H   0.64072

 **********************
 *                    *
 * JOB ENDED NORMALLY *
 *                    *
 **********************



 TOTAL JOB TIME:             1.99 SECONDS

 == MOPAC DONE ==
