 *******************************************************************************
 **                                                                           **
 **                              MOPAC v23.2                                  **
 **                                                                           **
 *******************************************************************************
 **          Digital Object Identifier (DOI): 10.5281/zenodo.6511958          **
 **    Visit the DOI location for information on how to cite this program.    **
 *******************************************************************************

                              PM7 CALCULATION RESULTS

 *******************************************************************************
 *  CALCULATION DONE: (MAX THREADS = 40)             Fri Sep 19 21:55:40 2025  *
 *  PM7        - The PM7 Hamiltonian to be used
 *
 *
 *
 *                 CHARGE ON SYSTEM = +1
 *
 *
 *
 *  1SCF       - DO 1 SCF AND THEN STOP 
 *  T=         - A TIME OF 172800.0 SECONDS REQUESTED
 *  DUMP=N     - RESTART FILE WRITTEN EVERY 7200.0 SECONDS REQUESTED
 *  RELSCF     - DEFAULT SCF CRITERION MULTIPLIED BY 0.0001
 *              (DEFAULT SCF CRITERION = 0.00010)
 *  GRADIENTS  - ALL GRADIENTS TO BE PRINTED
 *  DISP       - PRINT DISPERSION AND HYDROGEN BOND ENERGIES
 *******************************************************************************
PM7 1SCF GRADIENTS DISP RELSCF=0.0001 CHARGE=1
 Title: ASE calculation

   ATOM   CHEMICAL          X               Y               Z
  NUMBER   SYMBOL      (ANGSTROMS)     (ANGSTROMS)     (ANGSTROMS)

     1       C          2.87777123  *   0.54646404  *  -0.00017910  *
     2       O          1.73601030  *  -0.20240572  *  -0.42574499  *
     3       C          0.62768518  *  -0.11646287  *   0.36029420  *
     4       C         -0.28204384  *  -1.28345109  *   0.03606381  *
     5       C         -1.62957188  *  -1.06414700  *   0.67113359  *
     6       C         -2.81122258  *  -0.70555350  *  -0.19027393  *
     7       C         -2.15950147  *   0.36528808  *   0.66577153  *
     8       C         -1.32232990  *   1.40832569  *   0.01683346  *
     9       O          0.01362923  *   1.18396779  *  -0.11563947  *
    10       H          3.17665751  *   0.27802248  *   1.01826967  *
    11       H          3.64710499  *   0.20858216  *  -0.71920450  *
    12       H          2.70514091  *   1.62007072  *  -0.11306299  *
    13       H          0.79345520  *   0.10877923  *   1.44050590  *
    14       H          0.18478659  *  -2.23503195  *   0.39648239  *
    15       H         -0.35433484  *  -1.44396055  *  -1.06613277  *
    16       H         -1.80509690  *  -1.68406761  *   1.56442399  *
    17       H         -2.72673701  *  -0.68318901  *  -1.27555599  *
    18       H         -3.80827547  *  -1.06935832  *   0.08048836  *
    19       H         -2.71697064  *   0.72572574  *   1.54707209  *
    20       H         -1.38813304  *   2.44029290  *   0.49750486  *
    21       H         -1.64932347  *   1.68271000  *  -1.04790707  *



          CARTESIAN COORDINATES 

    NO.       ATOM           X           Y           Z

     1         C          2.8778      0.5465     -0.0002
     2         O          1.7360     -0.2024     -0.4257
     3         C          0.6277     -0.1165      0.3603
     4         C         -0.2820     -1.2835      0.0361
     5         C         -1.6296     -1.0641      0.6711
     6         C         -2.8112     -0.7056     -0.1903
     7         C         -2.1595      0.3653      0.6658
     8         C         -1.3223      1.4083      0.0168
     9         O          0.0136      1.1840     -0.1156
    10         H          3.1767      0.2780      1.0183
    11         H          3.6471      0.2086     -0.7192
    12         H          2.7051      1.6201     -0.1131
    13         H          0.7935      0.1088      1.4405
    14         H          0.1848     -2.2350      0.3965
    15         H         -0.3543     -1.4440     -1.0661
    16         H         -1.8051     -1.6841      1.5644
    17         H         -2.7267     -0.6832     -1.2756
    18         H         -3.8083     -1.0694      0.0805
    19         H         -2.7170      0.7257      1.5471
    20         H         -1.3881      2.4403      0.4975
    21         H         -1.6493      1.6827     -1.0479

 General Reference for PM7:
 "Optimization of Parameters for Semiempirical Methods VI: More Modifications to the 
 NDDO Approximations and Re-optimization of Parameters", J. J. P. Stewart, J. Mol. Mod., 1:32, 19 (2013)
 https://link.springer.com/article/10.1007/s00894-012-1667-x

           Empirical Formula: C7 H12 O2  =    21 atoms



      MOLECULAR POINT GROUP   :   C1  


          UHF CALCULATION, NO. OF ALPHA ELECTRONS =   26
                           NO. OF BETA  ELECTRONS =   25
  SCF CRITERION =    0.1000E-07

 -------------------------------------------------------------------------------
 PM7 1SCF GRADIENTS DISP RELSCF=0.0001 CHARGE=1
 Title: ASE calculation



     1SCF WAS SPECIFIED, SO BFGS WAS NOT USED                 
     SCF FIELD WAS ACHIEVED                                   


                              PM7 CALCULATION
                                                       MOPAC v23.2 Linux
                                                       Fri Sep 19 21:55:41 2025




          FINAL HEAT OF FORMATION =        140.58367 KCAL/MOL =     588.20209 KJ/MOL

          TOTAL ENERGY            =     -36954.75579 KCAL/MOL = ELECTRONIC ENERGY + CORE-CORE REPULSION
          ENERGY OF ATOMS         =      37097.27293 KCAL/MOL
                              SUM =        142.51714 KCAL/MOL
          DISPERSION ENERGY       =         -1.93347 KCAL/MOL
                              SUM =        140.58367 KCAL/MOL = FINAL HEAT OF FORMATION



          TOTAL ENERGY            =      -1602.50988 EV
          ELECTRONIC ENERGY       =      -8085.96391 EV 
          CORE-CORE REPULSION     =       6483.45403 EV
          COSMO AREA              =        167.26 SQUARE ANGSTROMS
          COSMO VOLUME            =        164.70 CUBIC ANGSTROMS

          GRADIENT NORM           =          1.03150          =       0.22509 PER ATOM
          IONIZATION POTENTIAL    =         15.353665 EV
          ALPHA SOMO LUMO (EV)    =        -15.379 -4.773
          BETA  SOMO LUMO (EV)    =        -15.354 -7.797
          NO. OF ALPHA ELECTRONS  =         26
          NO. OF BETA  ELECTRONS  =         25
          MOLECULAR WEIGHT        =        128.1706         POINT GROUP:  C1  

          MOLECULAR DIMENSIONS (Angstroms)

            Atom       Atom       Distance
            H    18    H    11     7.60627
            H    20    H    14     4.87390
            H    13    H    17     3.07905


          SCF CALCULATIONS        =          1

          WALL-CLOCK TIME         =      1.242 SECONDS
          COMPUTATION TIME        =      0.619 SECONDS

          LARGEST ATOMIC GRADIENTS

          Atom     Label                     Cartesian Gradients           Cartesian Coordinates       |Gradient|
                                           X          Y          Z        X          Y          Z

             1       C                   0.173      0.249      0.187    2.87777    0.54646   -0.00018      0.356
             2       O                   0.176      0.220      0.128    1.73601   -0.20241   -0.42574      0.309
             5       C                  -0.176     -0.139     -0.202   -1.62957   -1.06415    0.67113      0.302
            12       H                   0.135     -0.121     -0.218    2.70514    1.62007   -0.11306      0.284
            11       H                  -0.082      0.106      0.245    3.64710    0.20858   -0.71920      0.279
            19       H                  -0.214      0.106      0.122   -2.71697    0.72573    1.54707      0.268
             9       O                   0.219     -0.136      0.051    0.01363    1.18397   -0.11564      0.262
            10       H                  -0.180     -0.088     -0.163    3.17666    0.27802    1.01827      0.258
             4       C                  -0.162     -0.134     -0.143   -0.28204   -1.28345    0.03606      0.255
             3       C                  -0.041      0.029     -0.225    0.62769   -0.11646    0.36029      0.231



       FINAL  POINT  AND  DERIVATIVES

   PARAMETER     ATOM    TYPE            VALUE        GRADIENT
      1          1  C    CARTESIAN X     2.877771      0.172915  KCAL/ANGSTROM
      2          1  C    CARTESIAN Y     0.546464      0.249196  KCAL/ANGSTROM
      3          1  C    CARTESIAN Z    -0.000179      0.186846  KCAL/ANGSTROM
      4          2  O    CARTESIAN X     1.736010      0.176130  KCAL/ANGSTROM
      5          2  O    CARTESIAN Y    -0.202406      0.219715  KCAL/ANGSTROM
      6          2  O    CARTESIAN Z    -0.425745      0.128039  KCAL/ANGSTROM
      7          3  C    CARTESIAN X     0.627685     -0.041361  KCAL/ANGSTROM
      8          3  C    CARTESIAN Y    -0.116463      0.029226  KCAL/ANGSTROM
      9          3  C    CARTESIAN Z     0.360294     -0.225100  KCAL/ANGSTROM
     10          4  C    CARTESIAN X    -0.282044     -0.162488  KCAL/ANGSTROM
     11          4  C    CARTESIAN Y    -1.283451     -0.134073  KCAL/ANGSTROM
     12          4  C    CARTESIAN Z     0.036064     -0.143208  KCAL/ANGSTROM
     13          5  C    CARTESIAN X    -1.629572     -0.176228  KCAL/ANGSTROM
     14          5  C    CARTESIAN Y    -1.064147     -0.138955  KCAL/ANGSTROM
     15          5  C    CARTESIAN Z     0.671134     -0.201626  KCAL/ANGSTROM
     16          6  C    CARTESIAN X    -2.811223     -0.026228  KCAL/ANGSTROM
     17          6  C    CARTESIAN Y    -0.705554     -0.080925  KCAL/ANGSTROM
     18          6  C    CARTESIAN Z    -0.190274      0.081413  KCAL/ANGSTROM
     19          7  C    CARTESIAN X    -2.159501      0.125139  KCAL/ANGSTROM
     20          7  C    CARTESIAN Y     0.365288     -0.082076  KCAL/ANGSTROM
     21          7  C    CARTESIAN Z     0.665772      0.173340  KCAL/ANGSTROM
     22          8  C    CARTESIAN X    -1.322330      0.049183  KCAL/ANGSTROM
     23          8  C    CARTESIAN Y     1.408326     -0.144331  KCAL/ANGSTROM
     24          8  C    CARTESIAN Z     0.016833      0.034519  KCAL/ANGSTROM
     25          9  O    CARTESIAN X     0.013629      0.218686  KCAL/ANGSTROM
     26          9  O    CARTESIAN Y     1.183968     -0.135560  KCAL/ANGSTROM
     27          9  O    CARTESIAN Z    -0.115639      0.051317  KCAL/ANGSTROM
     28         10  H    CARTESIAN X     3.176658     -0.179977  KCAL/ANGSTROM
     29         10  H    CARTESIAN Y     0.278022     -0.088107  KCAL/ANGSTROM
     30         10  H    CARTESIAN Z     1.018270     -0.162744  KCAL/ANGSTROM
     31         11  H    CARTESIAN X     3.647105     -0.081704  KCAL/ANGSTROM
     32         11  H    CARTESIAN Y     0.208582      0.105661  KCAL/ANGSTROM
     33         11  H    CARTESIAN Z    -0.719205      0.244933  KCAL/ANGSTROM
     34         12  H    CARTESIAN X     2.705141      0.135393  KCAL/ANGSTROM
     35         12  H    CARTESIAN Y     1.620071     -0.121488  KCAL/ANGSTROM
     36         12  H    CARTESIAN Z    -0.113063     -0.217912  KCAL/ANGSTROM
     37         13  H    CARTESIAN X     0.793455      0.206697  KCAL/ANGSTROM
     38         13  H    CARTESIAN Y     0.108779      0.044017  KCAL/ANGSTROM
     39         13  H    CARTESIAN Z     1.440506     -0.070779  KCAL/ANGSTROM
     40         14  H    CARTESIAN X     0.184787     -0.195625  KCAL/ANGSTROM
     41         14  H    CARTESIAN Y    -2.235032     -0.018972  KCAL/ANGSTROM
     42         14  H    CARTESIAN Z     0.396482      0.065277  KCAL/ANGSTROM
     43         15  H    CARTESIAN X    -0.354335      0.020110  KCAL/ANGSTROM
     44         15  H    CARTESIAN Y    -1.443961      0.031995  KCAL/ANGSTROM
     45         15  H    CARTESIAN Z    -1.066133     -0.044056  KCAL/ANGSTROM
     46         16  H    CARTESIAN X    -1.805097      0.028278  KCAL/ANGSTROM
     47         16  H    CARTESIAN Y    -1.684068      0.151098  KCAL/ANGSTROM
     48         16  H    CARTESIAN Z     1.564424     -0.027342  KCAL/ANGSTROM
     49         17  H    CARTESIAN X    -2.726737     -0.045789  KCAL/ANGSTROM
     50         17  H    CARTESIAN Y    -0.683189     -0.077840  KCAL/ANGSTROM
     51         17  H    CARTESIAN Z    -1.275556      0.063887  KCAL/ANGSTROM
     52         18  H    CARTESIAN X    -3.808275     -0.036910  KCAL/ANGSTROM
     53         18  H    CARTESIAN Y    -1.069358     -0.023141  KCAL/ANGSTROM
     54         18  H    CARTESIAN Z     0.080488      0.056178  KCAL/ANGSTROM
     55         19  H    CARTESIAN X    -2.716971     -0.214182  KCAL/ANGSTROM
     56         19  H    CARTESIAN Y     0.725726      0.105920  KCAL/ANGSTROM
     57         19  H    CARTESIAN Z     1.547072      0.122365  KCAL/ANGSTROM
     58         20  H    CARTESIAN X    -1.388133      0.018650  KCAL/ANGSTROM
     59         20  H    CARTESIAN Y     2.440293     -0.008809  KCAL/ANGSTROM
     60         20  H    CARTESIAN Z     0.497505      0.034533  KCAL/ANGSTROM
     61         21  H    CARTESIAN X    -1.649323      0.009311  KCAL/ANGSTROM
     62         21  H    CARTESIAN Y     1.682710      0.117446  KCAL/ANGSTROM
     63         21  H    CARTESIAN Z    -1.047907     -0.149884  KCAL/ANGSTROM




   ATOM   CHEMICAL          X               Y               Z
  NUMBER   SYMBOL      (ANGSTROMS)     (ANGSTROMS)     (ANGSTROMS)

     1       C          2.87777123  *   0.54646404  *  -0.00017910  *
     2       O          1.73601030  *  -0.20240572  *  -0.42574499  *
     3       C          0.62768518  *  -0.11646287  *   0.36029420  *
     4       C         -0.28204384  *  -1.28345109  *   0.03606381  *
     5       C         -1.62957188  *  -1.06414700  *   0.67113359  *
     6       C         -2.81122258  *  -0.70555350  *  -0.19027393  *
     7       C         -2.15950147  *   0.36528808  *   0.66577153  *
     8       C         -1.32232990  *   1.40832569  *   0.01683346  *
     9       O          0.01362923  *   1.18396779  *  -0.11563947  *
    10       H          3.17665751  *   0.27802248  *   1.01826967  *
    11       H          3.64710499  *   0.20858216  *  -0.71920450  *
    12       H          2.70514091  *   1.62007072  *  -0.11306299  *
    13       H          0.79345520  *   0.10877923  *   1.44050590  *
    14       H          0.18478659  *  -2.23503195  *   0.39648239  *
    15       H         -0.35433484  *  -1.44396055  *  -1.06613277  *
    16       H         -1.80509690  *  -1.68406761  *   1.56442399  *
    17       H         -2.72673701  *  -0.68318901  *  -1.27555599  *
    18       H         -3.80827547  *  -1.06935832  *   0.08048836  *
    19       H         -2.71697064  *   0.72572574  *   1.54707209  *
    20       H         -1.38813304  *   2.44029290  *   0.49750486  *
    21       H         -1.64932347  *   1.68271000  *  -1.04790707  *

                             CARTESIAN COORDINATES

   1    C        2.877771234     0.546464044    -0.000179100
   2    O        1.736010303    -0.202405717    -0.425744994
   3    C        0.627685176    -0.116462870     0.360294205
   4    C       -0.282043843    -1.283451092     0.036063813
   5    C       -1.629571877    -1.064147004     0.671133592
   6    C       -2.811222579    -0.705553502    -0.190273926
   7    C       -2.159501471     0.365288076     0.665771534
   8    C       -1.322329899     1.408325687     0.016833464
   9    O        0.013629232     1.183967792    -0.115639474
  10    H        3.176657507     0.278022485     1.018269672
  11    H        3.647104989     0.208582155    -0.719204504
  12    H        2.705140913     1.620070719    -0.113062992
  13    H        0.793455205     0.108779233     1.440505895
  14    H        0.184786587    -2.235031948     0.396482394
  15    H       -0.354334837    -1.443960552    -1.066132772
  16    H       -1.805096903    -1.684067613     1.564423994
  17    H       -2.726737009    -0.683189009    -1.275555994
  18    H       -3.808275468    -1.069358322     0.080488358
  19    H       -2.716970636     0.725725737     1.547072094
  20    H       -1.388133043     2.440292897     0.497504856
  21    H       -1.649323467     1.682710004    -1.047907074


           Empirical Formula: C7 H12 O2  =    21 atoms



      MOLECULAR POINT GROUP   :   C1  


          ALPHA EIGENVALUES  
 -38.75617 -35.52275 -35.35757 -31.74968 -29.96599 -28.56707 -27.41395 -25.04950
 -23.83014 -22.86338 -22.51624 -22.23297 -20.96853 -20.71769 -19.94777 -19.48372
 -19.00891 -18.58637 -17.53860 -17.45981 -16.98936 -16.82626 -16.65183 -15.90130
 -15.58401 -15.37868  -4.77313  -3.00536  -2.42086  -2.06750  -1.39017  -1.14898
  -1.03203  -0.62199  -0.44688  -0.16787  -0.12992  -0.07913   0.11460   0.91061
   1.31878   1.48532   1.50120   1.66606   1.83505   1.87881   2.18076   2.30064


           BETA EIGENVALUES 
 -36.67441 -35.38931 -34.53023 -31.66520 -29.40425 -28.54482 -27.26242 -24.98639
 -23.56262 -22.59326 -22.00308 -21.97216 -20.52460 -20.20735 -19.63863 -19.38133
 -18.87620 -18.27008 -17.34079 -17.08298 -16.81665 -16.63405 -15.85566 -15.67751
 -15.35366  -7.79654  -4.25127  -2.98027  -2.34850  -1.83706  -1.35367  -1.04535
  -0.83179  -0.55615  -0.41426  -0.11643  -0.09348   0.02824   0.14204   0.91193
   1.32611   1.48371   1.50064   1.66884   1.83507   1.87951   2.18055   2.30371


              NET ATOMIC CHARGES AND DIPOLE CONTRIBUTIONS

  ATOM NO.   TYPE          CHARGE      No. of ELECS.   s-Pop       p-Pop       
    1          C          -0.213041        4.2130     1.09803     3.11502
    2          O          -0.291268        6.2913     1.87216     4.41911
    3          C           0.224757        3.7752     1.15491     2.62034
    4          C          -0.334991        4.3350     1.06444     3.27055
    5          C          -0.131790        4.1318     1.05314     3.07865
    6          C          -0.266120        4.2661     1.06263     3.20349
    7          C          -0.258230        4.2582     1.05043     3.20780
    8          C          -0.124723        4.1247     1.10812     3.01660
    9          O           0.029682        5.9703     1.89807     4.07225
   10          H           0.153906        0.8461     0.84609
   11          H           0.193303        0.8067     0.80670
   12          H           0.148442        0.8516     0.85156
   13          H           0.180221        0.8198     0.81978
   14          H           0.212237        0.7878     0.78776
   15          H           0.201933        0.7981     0.79807
   16          H           0.192947        0.8071     0.80705
   17          H           0.175210        0.8248     0.82479
   18          H           0.194673        0.8053     0.80533
   19          H           0.206355        0.7936     0.79364
   20          H           0.248543        0.7515     0.75146
   21          H           0.257954        0.7420     0.74205
 DIPOLE           X         Y         Z       TOTAL
 POINT-CHG.    -0.657     2.458     1.330     2.871
 HYBRID         0.336     0.373    -0.375     0.627
 SUM           -0.320     2.831     0.954     3.004


          ATOMIC ORBITAL ELECTRON POPULATIONS

     Atom    s        px        py        pz   
    1  C   1.09803   0.88540   1.06806   1.16155
    2  O   1.87216   1.26224   1.64818   1.50869
    3  C   1.15491   0.82653   0.81419   0.97961
    4  C   1.06444   1.00978   1.06893   1.19183
    5  C   1.05314   0.96678   0.99921   1.11266
    6  C   1.06263   1.08297   1.02534   1.09518
    7  C   1.05043   1.12749   0.94039   1.13991
    8  C   1.10812   0.82316   1.07879   1.11466
    9  O   1.89807   1.27662   1.46494   1.33069
   10  H   0.84609
   11  H   0.80670
   12  H   0.85156
   13  H   0.81978
   14  H   0.78776
   15  H   0.79807
   16  H   0.80705
   17  H   0.82479
   18  H   0.80533
   19  H   0.79364
   20  H   0.75146
   21  H   0.74205


                    (SZ)    =    0.500000
                    (S**2)  =    0.761270


          ATOMIC ORBITAL SPIN POPULATIONS

    Atom   Total    s     px     py     pz   
         Atomic
    1  C  0.0010  0.000 -0.000  0.001  0.000
    2  O -0.0160 -0.001 -0.003 -0.014  0.002
    3  C -0.0376 -0.002 -0.008 -0.022 -0.005
    4  C  0.0168  0.002  0.006  0.008  0.002
    5  C -0.0046 -0.000 -0.001 -0.002 -0.001
    6  C  0.0146  0.001  0.001  0.013  0.001
    7  C -0.0012 -0.001 -0.003  0.000  0.002
    8  C  0.0283 -0.009 -0.026 -0.000  0.064
    9  O  0.7991  0.019  0.047  0.147  0.585
   10  H -0.0002 -0.000
   11  H  0.0001  0.000
   12  H -0.0004 -0.000
   13  H  0.0249  0.025
   14  H -0.0022 -0.002
   15  H -0.0005 -0.000
   16  H  0.0002  0.000
   17  H -0.0005 -0.000
   18  H -0.0005 -0.000
   19  H  0.0036  0.004
   20  H  0.0809  0.081
   21  H  0.0941  0.094

 **********************
 *                    *
 * JOB ENDED NORMALLY *
 *                    *
 **********************



 TOTAL JOB TIME:             1.67 SECONDS

 == MOPAC DONE ==
