 *******************************************************************************
 **                                                                           **
 **                              MOPAC v23.2                                  **
 **                                                                           **
 *******************************************************************************
 **          Digital Object Identifier (DOI): 10.5281/zenodo.6511958          **
 **    Visit the DOI location for information on how to cite this program.    **
 *******************************************************************************

                              PM7 CALCULATION RESULTS

 *******************************************************************************
 *  CALCULATION DONE: (MAX THREADS = 40)             Fri Sep 19 21:37:01 2025  *
 *  PM7        - The PM7 Hamiltonian to be used
 *  1SCF       - DO 1 SCF AND THEN STOP 
 *  T=         - A TIME OF 172800.0 SECONDS REQUESTED
 *  DUMP=N     - RESTART FILE WRITTEN EVERY 7200.0 SECONDS REQUESTED
 *  RELSCF     - DEFAULT SCF CRITERION MULTIPLIED BY 0.0001
 *              (DEFAULT SCF CRITERION = 0.00010)
 *  GRADIENTS  - ALL GRADIENTS TO BE PRINTED
 *  DISP       - PRINT DISPERSION AND HYDROGEN BOND ENERGIES
 *******************************************************************************
PM7 1SCF GRADIENTS DISP RELSCF=0.0001
 Title: ASE calculation

   ATOM   CHEMICAL          X               Y               Z
  NUMBER   SYMBOL      (ANGSTROMS)     (ANGSTROMS)     (ANGSTROMS)

     1       C         -1.86618653  *  -0.12501634  *   0.71322100  *
     2       C         -1.09399707  *  -0.57224779  *  -0.52392270  *
     3       C          0.36349370  *  -0.79619320  *  -0.19078101  *
     4       O          1.11236017  *  -1.09188217  *  -1.41390563  *
     5       C          1.93089100  *   0.03416951  *  -1.29485978  *
     6       O          2.77624163  *   0.36999183  *  -2.04842409  *
     7       C          1.24352593  *   0.50062640  *   0.02006387  *
     8       N          2.14308354  *   0.56941699  *   1.14110767  *
     9       H         -1.78522165  *  -0.85197140  *   1.52961530  *
    10       H         -1.51013482  *   0.84013146  *   1.09078914  *
    11       H         -2.93473616  *  -0.00929670  *   0.48997860  *
    12       H         -1.52722079  *  -1.50883209  *  -0.93644545  *
    13       H         -1.20098233  *   0.17011790  *  -1.34093562  *
    14       H          0.53973755  *  -1.60764501  *   0.52759701  *
    15       H          0.68608752  *   1.45111050  *  -0.10063005  *
    16       H          1.72115544  *   0.94280951  *   1.97361868  *
    17       H          2.61774988  *  -0.29473096  *   1.34280815  *



          CARTESIAN COORDINATES 

    NO.       ATOM           X           Y           Z

     1         C         -1.8662     -0.1250      0.7132
     2         C         -1.0940     -0.5722     -0.5239
     3         C          0.3635     -0.7962     -0.1908
     4         O          1.1124     -1.0919     -1.4139
     5         C          1.9309      0.0342     -1.2949
     6         O          2.7762      0.3700     -2.0484
     7         C          1.2435      0.5006      0.0201
     8         N          2.1431      0.5694      1.1411
     9         H         -1.7852     -0.8520      1.5296
    10         H         -1.5101      0.8401      1.0908
    11         H         -2.9347     -0.0093      0.4900
    12         H         -1.5272     -1.5088     -0.9364
    13         H         -1.2010      0.1701     -1.3409
    14         H          0.5397     -1.6076      0.5276
    15         H          0.6861      1.4511     -0.1006
    16         H          1.7212      0.9428      1.9736
    17         H          2.6177     -0.2947      1.3428

 General Reference for PM7:
 "Optimization of Parameters for Semiempirical Methods VI: More Modifications to the 
 NDDO Approximations and Re-optimization of Parameters", J. J. P. Stewart, J. Mol. Mod., 1:32, 19 (2013)
 https://link.springer.com/article/10.1007/s00894-012-1667-x

           Empirical Formula: C5 H9 N O2  =    17 atoms



      MOLECULAR POINT GROUP   :   C1  


      RHF CALCULATION, NO. OF DOUBLY OCCUPIED LEVELS = 23

  SCF CRITERION =    0.1000E-07

 -------------------------------------------------------------------------------
 PM7 1SCF GRADIENTS DISP RELSCF=0.0001
 Title: ASE calculation



     1SCF WAS SPECIFIED, SO BFGS WAS NOT USED                 
     SCF FIELD WAS ACHIEVED                                   


                              PM7 CALCULATION
                                                       MOPAC v23.2 Linux
                                                       Fri Sep 19 21:37:02 2025




          FINAL HEAT OF FORMATION =        -66.88211 KCAL/MOL =    -279.83475 KJ/MOL

          TOTAL ENERGY            =     -34865.52366 KCAL/MOL = ELECTRONIC ENERGY + CORE-CORE REPULSION
          ENERGY OF ATOMS         =      34800.19765 KCAL/MOL
                              SUM =        -65.32601 KCAL/MOL
          DISPERSION ENERGY       =         -1.55610 KCAL/MOL
                              SUM =        -66.88211 KCAL/MOL = FINAL HEAT OF FORMATION



          TOTAL ENERGY            =      -1511.91220 EV
          ELECTRONIC ENERGY       =      -6612.41489 EV 
          CORE-CORE REPULSION     =       5100.50269 EV
          COSMO AREA              =        150.80 SQUARE ANGSTROMS
          COSMO VOLUME            =        144.94 CUBIC ANGSTROMS

          GRADIENT NORM           =          0.71516          =       0.17345 PER ATOM
          IONIZATION POTENTIAL    =          9.994033 EV
          HOMO LUMO ENERGIES (EV) =         -9.994  0.823
          NO. OF FILLED LEVELS    =         23
          MOLECULAR WEIGHT        =        115.1316         POINT GROUP:  C1  

          MOLECULAR DIMENSIONS (Angstroms)

            Atom       Atom       Distance
            H    11    O     6     6.26120
            H    16    H    12     4.61516
            H    14    H    15     2.87252


          SCF CALCULATIONS        =          1

          WALL-CLOCK TIME         =      1.281 SECONDS
          COMPUTATION TIME        =      0.547 SECONDS

          LARGEST ATOMIC GRADIENTS

          Atom     Label                     Cartesian Gradients           Cartesian Coordinates       |Gradient|
                                           X          Y          Z        X          Y          Z

             7       C                  -0.279     -0.220      0.051    1.24353    0.50063    0.02006      0.358
             6       O                  -0.226      0.153      0.069    2.77624    0.36999   -2.04842      0.281
             9       H                   0.160      0.214      0.015   -1.78522   -0.85197    1.52962      0.267
            15       H                   0.138     -0.161     -0.002    0.68609    1.45111   -0.10063      0.213
            16       H                  -0.077     -0.166     -0.084    1.72116    0.94281    1.97362      0.201
             2       C                   0.167     -0.071     -0.070   -1.09400   -0.57225   -0.52392      0.195
             1       C                   0.098     -0.001     -0.153   -1.86619   -0.12502    0.71322      0.182
             3       C                   0.062      0.034      0.109    0.36349   -0.79619   -0.19078      0.130
            13       H                  -0.010      0.064      0.096   -1.20098    0.17012   -1.34094      0.116
             8       N                  -0.008      0.056     -0.093    2.14308    0.56942    1.14111      0.109



       FINAL  POINT  AND  DERIVATIVES

   PARAMETER     ATOM    TYPE            VALUE        GRADIENT
      1          1  C    CARTESIAN X    -1.866187      0.097630  KCAL/ANGSTROM
      2          1  C    CARTESIAN Y    -0.125016     -0.000682  KCAL/ANGSTROM
      3          1  C    CARTESIAN Z     0.713221     -0.153451  KCAL/ANGSTROM
      4          2  C    CARTESIAN X    -1.093997      0.167140  KCAL/ANGSTROM
      5          2  C    CARTESIAN Y    -0.572248     -0.071145  KCAL/ANGSTROM
      6          2  C    CARTESIAN Z    -0.523923     -0.069923  KCAL/ANGSTROM
      7          3  C    CARTESIAN X     0.363494      0.061584  KCAL/ANGSTROM
      8          3  C    CARTESIAN Y    -0.796193      0.034224  KCAL/ANGSTROM
      9          3  C    CARTESIAN Z    -0.190781      0.108996  KCAL/ANGSTROM
     10          4  O    CARTESIAN X     1.112360      0.068733  KCAL/ANGSTROM
     11          4  O    CARTESIAN Y    -1.091882     -0.015948  KCAL/ANGSTROM
     12          4  O    CARTESIAN Z    -1.413906      0.027884  KCAL/ANGSTROM
     13          5  C    CARTESIAN X     1.930891      0.021814  KCAL/ANGSTROM
     14          5  C    CARTESIAN Y     0.034170      0.034018  KCAL/ANGSTROM
     15          5  C    CARTESIAN Z    -1.294860     -0.041089  KCAL/ANGSTROM
     16          6  O    CARTESIAN X     2.776242     -0.225765  KCAL/ANGSTROM
     17          6  O    CARTESIAN Y     0.369992      0.152667  KCAL/ANGSTROM
     18          6  O    CARTESIAN Z    -2.048424      0.069209  KCAL/ANGSTROM
     19          7  C    CARTESIAN X     1.243526     -0.278635  KCAL/ANGSTROM
     20          7  C    CARTESIAN Y     0.500626     -0.219505  KCAL/ANGSTROM
     21          7  C    CARTESIAN Z     0.020064      0.050746  KCAL/ANGSTROM
     22          8  N    CARTESIAN X     2.143084     -0.007721  KCAL/ANGSTROM
     23          8  N    CARTESIAN Y     0.569417      0.056141  KCAL/ANGSTROM
     24          8  N    CARTESIAN Z     1.141108     -0.093216  KCAL/ANGSTROM
     25          9  H    CARTESIAN X    -1.785222      0.159845  KCAL/ANGSTROM
     26          9  H    CARTESIAN Y    -0.851971      0.213628  KCAL/ANGSTROM
     27          9  H    CARTESIAN Z     1.529615      0.015385  KCAL/ANGSTROM
     28         10  H    CARTESIAN X    -1.510135     -0.038672  KCAL/ANGSTROM
     29         10  H    CARTESIAN Y     0.840131      0.000045  KCAL/ANGSTROM
     30         10  H    CARTESIAN Z     1.090789      0.009383  KCAL/ANGSTROM
     31         11  H    CARTESIAN X    -2.934736      0.017154  KCAL/ANGSTROM
     32         11  H    CARTESIAN Y    -0.009297      0.040960  KCAL/ANGSTROM
     33         11  H    CARTESIAN Z     0.489979     -0.023230  KCAL/ANGSTROM
     34         12  H    CARTESIAN X    -1.527221      0.024228  KCAL/ANGSTROM
     35         12  H    CARTESIAN Y    -1.508832     -0.039112  KCAL/ANGSTROM
     36         12  H    CARTESIAN Z    -0.936445      0.013490  KCAL/ANGSTROM
     37         13  H    CARTESIAN X    -1.200982     -0.010262  KCAL/ANGSTROM
     38         13  H    CARTESIAN Y     0.170118      0.063865  KCAL/ANGSTROM
     39         13  H    CARTESIAN Z    -1.340936      0.095739  KCAL/ANGSTROM
     40         14  H    CARTESIAN X     0.539738     -0.092464  KCAL/ANGSTROM
     41         14  H    CARTESIAN Y    -1.607645      0.035583  KCAL/ANGSTROM
     42         14  H    CARTESIAN Z     0.527597     -0.001939  KCAL/ANGSTROM
     43         15  H    CARTESIAN X     0.686088      0.138335  KCAL/ANGSTROM
     44         15  H    CARTESIAN Y     1.451110     -0.161378  KCAL/ANGSTROM
     45         15  H    CARTESIAN Z    -0.100630     -0.002458  KCAL/ANGSTROM
     46         16  H    CARTESIAN X     1.721155     -0.076809  KCAL/ANGSTROM
     47         16  H    CARTESIAN Y     0.942810     -0.165764  KCAL/ANGSTROM
     48         16  H    CARTESIAN Z     1.973619     -0.083881  KCAL/ANGSTROM
     49         17  H    CARTESIAN X     2.617750     -0.026129  KCAL/ANGSTROM
     50         17  H    CARTESIAN Y    -0.294731      0.042397  KCAL/ANGSTROM
     51         17  H    CARTESIAN Z     1.342808      0.078353  KCAL/ANGSTROM




   ATOM   CHEMICAL          X               Y               Z
  NUMBER   SYMBOL      (ANGSTROMS)     (ANGSTROMS)     (ANGSTROMS)

     1       C         -1.86618653  *  -0.12501634  *   0.71322100  *
     2       C         -1.09399707  *  -0.57224779  *  -0.52392270  *
     3       C          0.36349370  *  -0.79619320  *  -0.19078101  *
     4       O          1.11236017  *  -1.09188217  *  -1.41390563  *
     5       C          1.93089100  *   0.03416951  *  -1.29485978  *
     6       O          2.77624163  *   0.36999183  *  -2.04842409  *
     7       C          1.24352593  *   0.50062640  *   0.02006387  *
     8       N          2.14308354  *   0.56941699  *   1.14110767  *
     9       H         -1.78522165  *  -0.85197140  *   1.52961530  *
    10       H         -1.51013482  *   0.84013146  *   1.09078914  *
    11       H         -2.93473616  *  -0.00929670  *   0.48997860  *
    12       H         -1.52722079  *  -1.50883209  *  -0.93644545  *
    13       H         -1.20098233  *   0.17011790  *  -1.34093562  *
    14       H          0.53973755  *  -1.60764501  *   0.52759701  *
    15       H          0.68608752  *   1.45111050  *  -0.10063005  *
    16       H          1.72115544  *   0.94280951  *   1.97361868  *
    17       H          2.61774988  *  -0.29473096  *   1.34280815  *

                             CARTESIAN COORDINATES

   1    C       -1.866186527    -0.125016336     0.713220997
   2    C       -1.093997073    -0.572247789    -0.523922699
   3    C        0.363493701    -0.796193200    -0.190781007
   4    O        1.112360166    -1.091882169    -1.413905626
   5    C        1.930891001     0.034169514    -1.294859780
   6    O        2.776241635     0.369991831    -2.048424090
   7    C        1.243525928     0.500626403     0.020063870
   8    N        2.143083539     0.569416988     1.141107668
   9    H       -1.785221647    -0.851971403     1.529615298
  10    H       -1.510134825     0.840131457     1.090789139
  11    H       -2.934736160    -0.009296698     0.489978603
  12    H       -1.527220786    -1.508832095    -0.936445447
  13    H       -1.200982330     0.170117901    -1.340935622
  14    H        0.539737551    -1.607645008     0.527597009
  15    H        0.686087519     1.451110497    -0.100630053
  16    H        1.721155439     0.942809512     1.973618685
  17    H        2.617749880    -0.294730965     1.342808151


           Empirical Formula: C5 H9 N O2  =    17 atoms



      MOLECULAR POINT GROUP   :   C1  


                  EIGENVALUES  
 -36.47992 -31.66651 -31.52201 -28.34775 -25.18204 -23.30753 -20.74940 -19.87240
 -18.08523 -17.43127 -16.91471 -16.02282 -15.48532 -14.71479 -14.62003 -14.03356
 -13.66741 -13.04546 -12.96044 -12.34578 -11.24812 -10.84703  -9.99403   0.82326
   1.42569   1.90300   2.79053   2.79705   3.47200   3.78591   3.97405   4.67403
   4.88492   5.08522   5.13530   5.24280   5.46235   5.60986   6.03065   6.40532
   6.41853


              NET ATOMIC CHARGES AND DIPOLE CONTRIBUTIONS

  ATOM NO.   TYPE          CHARGE      No. of ELECS.   s-Pop       p-Pop       
    1          C          -0.435450        4.4355     1.05028     3.38517
    2          C          -0.292688        4.2927     1.05663     3.23606
    3          C           0.050201        3.9498     1.11791     2.83189
    4          O          -0.425663        6.4257     1.89946     4.52620
    5          C           0.565309        3.4347     1.14536     2.28934
    6          O          -0.378271        6.3783     1.87017     4.50810
    7          C          -0.075136        4.0751     1.10638     2.96876
    8          N          -0.619230        5.6192     1.60752     4.01171
    9          H           0.145759        0.8542     0.85424
   10          H           0.142902        0.8571     0.85710
   11          H           0.152536        0.8475     0.84746
   12          H           0.163235        0.8368     0.83677
   13          H           0.157685        0.8423     0.84232
   14          H           0.141456        0.8585     0.85854
   15          H           0.173850        0.8262     0.82615
   16          H           0.267206        0.7328     0.73279
   17          H           0.266300        0.7337     0.73370
 DIPOLE           X         Y         Z       TOTAL
 POINT-CHG.    -3.416     0.524     3.848     5.172
 HYBRID        -0.219    -0.799     0.139     0.840
 SUM           -3.636    -0.274     3.987     5.403


          ATOMIC ORBITAL ELECTRON POPULATIONS

     Atom    s        px        py        pz   
    1  C   1.05028   1.14426   1.16128   1.07963
    2  C   1.05663   0.99694   1.17652   1.06260
    3  C   1.11791   0.94238   1.01849   0.87102
    4  O   1.89946   1.53039   1.52097   1.47484
    5  C   1.14536   0.73921   0.74333   0.80680
    6  O   1.87017   1.35839   1.65746   1.49225
    7  C   1.10638   0.95688   1.07384   0.93804
    8  N   1.60752   1.39970   1.42993   1.18208
    9  H   0.85424
   10  H   0.85710
   11  H   0.84746
   12  H   0.83677
   13  H   0.84232
   14  H   0.85854
   15  H   0.82615
   16  H   0.73279
   17  H   0.73370

 **********************
 *                    *
 * JOB ENDED NORMALLY *
 *                    *
 **********************



 TOTAL JOB TIME:             1.77 SECONDS

 == MOPAC DONE ==
