 *******************************************************************************
 **                                                                           **
 **                              MOPAC v23.2                                  **
 **                                                                           **
 *******************************************************************************
 **          Digital Object Identifier (DOI): 10.5281/zenodo.6511958          **
 **    Visit the DOI location for information on how to cite this program.    **
 *******************************************************************************

                              PM7 CALCULATION RESULTS

 *******************************************************************************
 *  CALCULATION DONE: (MAX THREADS = 40)             Fri Sep 19 21:54:41 2025  *
 *  PM7        - The PM7 Hamiltonian to be used
 *
 *
 *
 *                 CHARGE ON SYSTEM = +1
 *
 *
 *
 *  1SCF       - DO 1 SCF AND THEN STOP 
 *  T=         - A TIME OF 172800.0 SECONDS REQUESTED
 *  DUMP=N     - RESTART FILE WRITTEN EVERY 7200.0 SECONDS REQUESTED
 *  RELSCF     - DEFAULT SCF CRITERION MULTIPLIED BY 0.0001
 *              (DEFAULT SCF CRITERION = 0.00010)
 *  GRADIENTS  - ALL GRADIENTS TO BE PRINTED
 *  DISP       - PRINT DISPERSION AND HYDROGEN BOND ENERGIES
 *******************************************************************************
PM7 1SCF GRADIENTS DISP RELSCF=0.0001 CHARGE=1
 Title: ASE calculation

   ATOM   CHEMICAL          X               Y               Z
  NUMBER   SYMBOL      (ANGSTROMS)     (ANGSTROMS)     (ANGSTROMS)

     1       C          1.73536052  *  -1.86716799  *   1.53415415  *
     2       O          1.75379481  *  -0.43508459  *   1.43514425  *
     3       C          0.86162064  *   0.08434364  *   0.63639089  *
     4       C          0.68385111  *   1.55194778  *   0.44464286  *
     5       C         -0.63458328  *   1.25300254  *  -0.37599232  *
     6       C         -0.57856230  *   1.61514170  *  -1.72902504  *
     7       O         -0.51914569  *   1.88655162  *  -2.82820045  *
     8       C         -0.36039808  *  -0.33864871  *  -0.10992391  *
     9       C         -1.46998281  *  -0.98219464  *   0.67466977  *
    10       H          0.77900237  *  -2.22316926  *   1.92497012  *
    11       H          1.97651331  *  -2.32310910  *   0.56959130  *
    12       H          2.54266017  *  -2.05365442  *   2.26115389  *
    13       H          1.49196310  *   2.05946754  *  -0.10230039  *
    14       H          0.50203148  *   2.12709677  *   1.37052084  *
    15       H         -1.55770828  *   1.59872756  *   0.15508433  *
    16       H         -0.14656167  *  -0.88796434  *  -1.04813906  *
    17       H         -1.61884150  *  -0.52546330  *   1.66533998  *
    18       H         -2.43562981  *  -0.95330014  *   0.15006514  *
    19       H         -1.26017431  *  -2.05068691  *   0.86203923  *



          CARTESIAN COORDINATES 

    NO.       ATOM           X           Y           Z

     1         C          1.7354     -1.8672      1.5342
     2         O          1.7538     -0.4351      1.4351
     3         C          0.8616      0.0843      0.6364
     4         C          0.6839      1.5519      0.4446
     5         C         -0.6346      1.2530     -0.3760
     6         C         -0.5786      1.6151     -1.7290
     7         O         -0.5191      1.8866     -2.8282
     8         C         -0.3604     -0.3386     -0.1099
     9         C         -1.4700     -0.9822      0.6747
    10         H          0.7790     -2.2232      1.9250
    11         H          1.9765     -2.3231      0.5696
    12         H          2.5427     -2.0537      2.2612
    13         H          1.4920      2.0595     -0.1023
    14         H          0.5020      2.1271      1.3705
    15         H         -1.5577      1.5987      0.1551
    16         H         -0.1466     -0.8880     -1.0481
    17         H         -1.6188     -0.5255      1.6653
    18         H         -2.4356     -0.9533      0.1501
    19         H         -1.2602     -2.0507      0.8620

 General Reference for PM7:
 "Optimization of Parameters for Semiempirical Methods VI: More Modifications to the 
 NDDO Approximations and Re-optimization of Parameters", J. J. P. Stewart, J. Mol. Mod., 1:32, 19 (2013)
 https://link.springer.com/article/10.1007/s00894-012-1667-x

           Empirical Formula: C7 H10 O2  =    19 atoms



      MOLECULAR POINT GROUP   :   C1  


          UHF CALCULATION, NO. OF ALPHA ELECTRONS =   25
                           NO. OF BETA  ELECTRONS =   24
  SCF CRITERION =    0.1000E-07

 -------------------------------------------------------------------------------
 PM7 1SCF GRADIENTS DISP RELSCF=0.0001 CHARGE=1
 Title: ASE calculation



     1SCF WAS SPECIFIED, SO BFGS WAS NOT USED                 
     SCF FIELD WAS ACHIEVED                                   


                              PM7 CALCULATION
                                                       MOPAC v23.2 Linux
                                                       Fri Sep 19 21:54:42 2025




          FINAL HEAT OF FORMATION =        143.42925 KCAL/MOL =     600.10798 KJ/MOL

          TOTAL ENERGY            =     -36337.19491 KCAL/MOL = ELECTRONIC ENERGY + CORE-CORE REPULSION
          ENERGY OF ATOMS         =      36482.50324 KCAL/MOL
                              SUM =        145.30833 KCAL/MOL
          DISPERSION ENERGY       =         -1.87908 KCAL/MOL
                              SUM =        143.42925 KCAL/MOL = FINAL HEAT OF FORMATION



          TOTAL ENERGY            =      -1575.72991 EV
          ELECTRONIC ENERGY       =      -7327.11424 EV 
          CORE-CORE REPULSION     =       5751.38433 EV
          COSMO AREA              =        168.09 SQUARE ANGSTROMS
          COSMO VOLUME            =        165.94 CUBIC ANGSTROMS

          GRADIENT NORM           =          0.88968          =       0.20411 PER ATOM
          IONIZATION POTENTIAL    =         12.081124 EV
          ALPHA SOMO LUMO (EV)    =        -12.081 -6.176
          BETA  SOMO LUMO (EV)    =        -14.976 -6.178
          NO. OF ALPHA ELECTRONS  =         25
          NO. OF BETA  ELECTRONS  =         24
          MOLECULAR WEIGHT        =        126.1548         POINT GROUP:  C1  

          MOLECULAR DIMENSIONS (Angstroms)

            Atom       Atom       Distance
            H    12    O     7     7.12751
            H    18    H    13     4.95392
            H    14    H    11     3.77575


          SCF CALCULATIONS        =          1

          WALL-CLOCK TIME         =      1.172 SECONDS
          COMPUTATION TIME        =      0.641 SECONDS

          LARGEST ATOMIC GRADIENTS

          Atom     Label                     Cartesian Gradients           Cartesian Coordinates       |Gradient|
                                           X          Y          Z        X          Y          Z

            14       H                   0.222     -0.250     -0.200    0.50203    2.12710    1.37052      0.390
             7       O                  -0.054     -0.156      0.341   -0.51915    1.88655   -2.82820      0.379
            17       H                  -0.005     -0.151     -0.218   -1.61884   -0.52546    1.66534      0.265
            15       H                   0.161     -0.126      0.106   -1.55771    1.59873    0.15508      0.230
            12       H                  -0.201      0.034     -0.049    2.54266   -2.05365    2.26115      0.210
            18       H                   0.137      0.157     -0.014   -2.43563   -0.95330    0.15007      0.210
            10       H                  -0.041      0.130     -0.156    0.77900   -2.22317    1.92497      0.208
            13       H                   0.050      0.173     -0.070    1.49196    2.05947   -0.10230      0.193
            11       H                   0.164      0.100      0.016    1.97651   -2.32311    0.56959      0.192
            16       H                  -0.083      0.158      0.059   -0.14656   -0.88796   -1.04814      0.188



       FINAL  POINT  AND  DERIVATIVES

   PARAMETER     ATOM    TYPE            VALUE        GRADIENT
      1          1  C    CARTESIAN X     1.735361     -0.087850  KCAL/ANGSTROM
      2          1  C    CARTESIAN Y    -1.867168      0.086208  KCAL/ANGSTROM
      3          1  C    CARTESIAN Z     1.534154      0.097725  KCAL/ANGSTROM
      4          2  O    CARTESIAN X     1.753795      0.056097  KCAL/ANGSTROM
      5          2  O    CARTESIAN Y    -0.435085     -0.077270  KCAL/ANGSTROM
      6          2  O    CARTESIAN Z     1.435144      0.117246  KCAL/ANGSTROM
      7          3  C    CARTESIAN X     0.861621     -0.053922  KCAL/ANGSTROM
      8          3  C    CARTESIAN Y     0.084344     -0.056103  KCAL/ANGSTROM
      9          3  C    CARTESIAN Z     0.636391      0.041698  KCAL/ANGSTROM
     10          4  C    CARTESIAN X     0.683851     -0.049850  KCAL/ANGSTROM
     11          4  C    CARTESIAN Y     1.551948      0.071037  KCAL/ANGSTROM
     12          4  C    CARTESIAN Z     0.444643      0.039506  KCAL/ANGSTROM
     13          5  C    CARTESIAN X    -0.634583     -0.038032  KCAL/ANGSTROM
     14          5  C    CARTESIAN Y     1.253003      0.006217  KCAL/ANGSTROM
     15          5  C    CARTESIAN Z    -0.375992     -0.167435  KCAL/ANGSTROM
     16          6  C    CARTESIAN X    -0.578562     -0.032088  KCAL/ANGSTROM
     17          6  C    CARTESIAN Y     1.615142     -0.026757  KCAL/ANGSTROM
     18          6  C    CARTESIAN Z    -1.729025     -0.065158  KCAL/ANGSTROM
     19          7  O    CARTESIAN X    -0.519146     -0.054193  KCAL/ANGSTROM
     20          7  O    CARTESIAN Y     1.886552     -0.155991  KCAL/ANGSTROM
     21          7  O    CARTESIAN Z    -2.828200      0.341073  KCAL/ANGSTROM
     22          8  C    CARTESIAN X    -0.360398     -0.134967  KCAL/ANGSTROM
     23          8  C    CARTESIAN Y    -0.338649      0.026830  KCAL/ANGSTROM
     24          8  C    CARTESIAN Z    -0.109924      0.055438  KCAL/ANGSTROM
     25          9  C    CARTESIAN X    -1.469983     -0.006712  KCAL/ANGSTROM
     26          9  C    CARTESIAN Y    -0.982195     -0.087400  KCAL/ANGSTROM
     27          9  C    CARTESIAN Z     0.674670      0.021840  KCAL/ANGSTROM
     28         10  H    CARTESIAN X     0.779002     -0.040980  KCAL/ANGSTROM
     29         10  H    CARTESIAN Y    -2.223169      0.130266  KCAL/ANGSTROM
     30         10  H    CARTESIAN Z     1.924970     -0.156361  KCAL/ANGSTROM
     31         11  H    CARTESIAN X     1.976513      0.163782  KCAL/ANGSTROM
     32         11  H    CARTESIAN Y    -2.323109      0.099602  KCAL/ANGSTROM
     33         11  H    CARTESIAN Z     0.569591      0.016251  KCAL/ANGSTROM
     34         12  H    CARTESIAN X     2.542660     -0.201027  KCAL/ANGSTROM
     35         12  H    CARTESIAN Y    -2.053654      0.033827  KCAL/ANGSTROM
     36         12  H    CARTESIAN Z     2.261154     -0.048995  KCAL/ANGSTROM
     37         13  H    CARTESIAN X     1.491963      0.050433  KCAL/ANGSTROM
     38         13  H    CARTESIAN Y     2.059468      0.173104  KCAL/ANGSTROM
     39         13  H    CARTESIAN Z    -0.102300     -0.069524  KCAL/ANGSTROM
     40         14  H    CARTESIAN X     0.502031      0.222375  KCAL/ANGSTROM
     41         14  H    CARTESIAN Y     2.127097     -0.249792  KCAL/ANGSTROM
     42         14  H    CARTESIAN Z     1.370521     -0.199823  KCAL/ANGSTROM
     43         15  H    CARTESIAN X    -1.557708      0.161418  KCAL/ANGSTROM
     44         15  H    CARTESIAN Y     1.598728     -0.125512  KCAL/ANGSTROM
     45         15  H    CARTESIAN Z     0.155084      0.106284  KCAL/ANGSTROM
     46         16  H    CARTESIAN X    -0.146562     -0.082592  KCAL/ANGSTROM
     47         16  H    CARTESIAN Y    -0.887964      0.158348  KCAL/ANGSTROM
     48         16  H    CARTESIAN Z    -1.048139      0.058602  KCAL/ANGSTROM
     49         17  H    CARTESIAN X    -1.618842     -0.004641  KCAL/ANGSTROM
     50         17  H    CARTESIAN Y    -0.525463     -0.150809  KCAL/ANGSTROM
     51         17  H    CARTESIAN Z     1.665340     -0.217776  KCAL/ANGSTROM
     52         18  H    CARTESIAN X    -2.435630      0.137458  KCAL/ANGSTROM
     53         18  H    CARTESIAN Y    -0.953300      0.157473  KCAL/ANGSTROM
     54         18  H    CARTESIAN Z     0.150065     -0.014183  KCAL/ANGSTROM
     55         19  H    CARTESIAN X    -1.260174     -0.004714  KCAL/ANGSTROM
     56         19  H    CARTESIAN Y    -2.050687     -0.013278  KCAL/ANGSTROM
     57         19  H    CARTESIAN Z     0.862039      0.043587  KCAL/ANGSTROM




   ATOM   CHEMICAL          X               Y               Z
  NUMBER   SYMBOL      (ANGSTROMS)     (ANGSTROMS)     (ANGSTROMS)

     1       C          1.73536052  *  -1.86716799  *   1.53415415  *
     2       O          1.75379481  *  -0.43508459  *   1.43514425  *
     3       C          0.86162064  *   0.08434364  *   0.63639089  *
     4       C          0.68385111  *   1.55194778  *   0.44464286  *
     5       C         -0.63458328  *   1.25300254  *  -0.37599232  *
     6       C         -0.57856230  *   1.61514170  *  -1.72902504  *
     7       O         -0.51914569  *   1.88655162  *  -2.82820045  *
     8       C         -0.36039808  *  -0.33864871  *  -0.10992391  *
     9       C         -1.46998281  *  -0.98219464  *   0.67466977  *
    10       H          0.77900237  *  -2.22316926  *   1.92497012  *
    11       H          1.97651331  *  -2.32310910  *   0.56959130  *
    12       H          2.54266017  *  -2.05365442  *   2.26115389  *
    13       H          1.49196310  *   2.05946754  *  -0.10230039  *
    14       H          0.50203148  *   2.12709677  *   1.37052084  *
    15       H         -1.55770828  *   1.59872756  *   0.15508433  *
    16       H         -0.14656167  *  -0.88796434  *  -1.04813906  *
    17       H         -1.61884150  *  -0.52546330  *   1.66533998  *
    18       H         -2.43562981  *  -0.95330014  *   0.15006514  *
    19       H         -1.26017431  *  -2.05068691  *   0.86203923  *

                             CARTESIAN COORDINATES

   1    C        1.735360524    -1.867167994     1.534154153
   2    O        1.753794814    -0.435084594     1.435144247
   3    C        0.861620643     0.084343636     0.636390886
   4    C        0.683851108     1.551947777     0.444642858
   5    C       -0.634583284     1.253002543    -0.375992323
   6    C       -0.578562297     1.615141704    -1.729025040
   7    O       -0.519145694     1.886551624    -2.828200450
   8    C       -0.360398082    -0.338648706    -0.109923905
   9    C       -1.469982811    -0.982194644     0.674669774
  10    H        0.779002374    -2.223169264     1.924970123
  11    H        1.976513310    -2.323109098     0.569591302
  12    H        2.542660173    -2.053654419     2.261153890
  13    H        1.491963096     2.059467539    -0.102300387
  14    H        0.502031477     2.127096769     1.370520839
  15    H       -1.557708278     1.598727565     0.155084335
  16    H       -0.146561670    -0.887964340    -1.048139056
  17    H       -1.618841504    -0.525463300     1.665339976
  18    H       -2.435629809    -0.953300143     0.150065140
  19    H       -1.260174308    -2.050686914     0.862039229


           Empirical Formula: C7 H10 O2  =    19 atoms



      MOLECULAR POINT GROUP   :   C1  


          ALPHA EIGENVALUES  
 -41.17531 -36.10198 -35.04642 -31.02909 -30.10175 -28.02360 -26.31637 -25.17649
 -23.29824 -22.52703 -22.36392 -22.02861 -20.84600 -20.17282 -19.63688 -18.68828
 -18.39231 -18.10032 -17.96417 -17.32927 -16.89403 -16.14840 -15.85919 -15.63550
 -12.08112  -6.17621  -6.09690  -4.14729  -2.62569  -2.21032  -1.89246  -1.52917
  -0.76660  -0.17807   0.04752   0.24973   0.83866   0.99662   1.16817   1.59903
   1.67239   1.73720   2.06925   2.13977   2.71979   2.91002


           BETA EIGENVALUES 
 -41.17356 -36.03285 -34.28307 -30.98176 -30.02417 -27.94590 -26.23429 -25.11172
 -23.15149 -22.45727 -22.32176 -21.98151 -20.76717 -20.04919 -19.25006 -18.63191
 -18.29978 -18.01122 -17.85058 -17.27542 -16.85413 -16.09663 -15.60491 -14.97578
  -6.17796  -6.09784  -4.14991  -2.91304  -2.63089  -2.16951  -1.67466  -1.50555
  -0.51089  -0.10119   0.10053   0.45724   0.90746   1.07879   1.43523   1.60516
   1.71465   1.74859   2.09602   2.17925   2.73551   2.91538


              NET ATOMIC CHARGES AND DIPOLE CONTRIBUTIONS

  ATOM NO.   TYPE          CHARGE      No. of ELECS.   s-Pop       p-Pop       
    1          C          -0.228074        4.2281     1.09606     3.13201
    2          O          -0.140101        6.1401     1.85961     4.28049
    3          C          -0.088912        4.0889     1.08242     3.00649
    4          C          -0.193191        4.1932     1.07192     3.12127
    5          C          -0.311584        4.3116     1.09084     3.22074
    6          C           0.569303        3.4307     1.22195     2.20875
    7          O           0.059829        5.9402     1.86812     4.07205
    8          C           0.012937        3.9871     1.08424     2.90282
    9          C          -0.474146        4.4741     1.05326     3.42089
   10          H           0.145797        0.8542     0.85420
   11          H           0.149582        0.8504     0.85042
   12          H           0.180704        0.8193     0.81930
   13          H           0.177059        0.8229     0.82294
   14          H           0.195657        0.8043     0.80434
   15          H           0.250318        0.7497     0.74968
   16          H           0.157089        0.8429     0.84291
   17          H           0.179386        0.8206     0.82061
   18          H           0.171193        0.8288     0.82881
   19          H           0.187153        0.8128     0.81285
 DIPOLE           X         Y         Z       TOTAL
 POINT-CHG.    -3.012     1.790    -3.145     4.708
 HYBRID        -0.270     0.622    -0.762     1.020
 SUM           -3.281     2.412    -3.907     5.644


          ATOMIC ORBITAL ELECTRON POPULATIONS

     Atom    s        px        py        pz   
    1  C   1.09606   1.17211   0.79378   1.16612
    2  O   1.85961   1.46920   1.26104   1.55026
    3  C   1.08242   0.99169   0.92217   1.09264
    4  C   1.07192   0.95002   1.06847   1.10277
    5  C   1.09084   1.16395   1.16251   0.89428
    6  C   1.22195   0.65076   0.67254   0.88544
    7  O   1.86812   1.42576   1.42457   1.22172
    8  C   1.08424   1.00041   0.82473   1.07768
    9  C   1.05326   1.08663   1.17776   1.15650
   10  H   0.85420
   11  H   0.85042
   12  H   0.81930
   13  H   0.82294
   14  H   0.80434
   15  H   0.74968
   16  H   0.84291
   17  H   0.82061
   18  H   0.82881
   19  H   0.81285


                    (SZ)    =    0.500000
                    (S**2)  =    0.752702


          ATOMIC ORBITAL SPIN POPULATIONS

    Atom   Total    s     px     py     pz   
         Atomic
    1  C -0.0143 -0.001 -0.001 -0.010 -0.002
    2  O  0.2162  0.009  0.061  0.011  0.136
    3  C  0.7949  0.027  0.261  0.031  0.475
    4  C -0.0361 -0.005 -0.004 -0.021 -0.007
    5  C  0.0045  0.001  0.001  0.002  0.001
    6  C -0.0005 -0.000 -0.000  0.000 -0.000
    7  O  0.0005  0.000  0.000  0.000  0.000
    8  C -0.0406 -0.004 -0.018 -0.004 -0.015
    9  C  0.0220  0.004  0.011  0.004  0.003
   10  H  0.0036  0.004
   11  H  0.0044  0.004
   12  H -0.0005 -0.000
   13  H  0.0157  0.016
   14  H  0.0170  0.017
   15  H -0.0004 -0.000
   16  H  0.0156  0.016
   17  H -0.0009 -0.001
   18  H -0.0004 -0.000
   19  H -0.0006 -0.001

 **********************
 *                    *
 * JOB ENDED NORMALLY *
 *                    *
 **********************



 TOTAL JOB TIME:             1.59 SECONDS

 == MOPAC DONE ==
