 *******************************************************************************
 **                                                                           **
 **                              MOPAC v23.2                                  **
 **                                                                           **
 *******************************************************************************
 **          Digital Object Identifier (DOI): 10.5281/zenodo.6511958          **
 **    Visit the DOI location for information on how to cite this program.    **
 *******************************************************************************

                              PM7 CALCULATION RESULTS

 *******************************************************************************
 *  CALCULATION DONE: (MAX THREADS = 40)             Fri Sep 19 21:36:25 2025  *
 *  PM7        - The PM7 Hamiltonian to be used
 *
 *
 *
 *                 CHARGE ON SYSTEM = +1
 *
 *
 *
 *  1SCF       - DO 1 SCF AND THEN STOP 
 *  T=         - A TIME OF 172800.0 SECONDS REQUESTED
 *  DUMP=N     - RESTART FILE WRITTEN EVERY 7200.0 SECONDS REQUESTED
 *  RELSCF     - DEFAULT SCF CRITERION MULTIPLIED BY 0.0001
 *              (DEFAULT SCF CRITERION = 0.00010)
 *  GRADIENTS  - ALL GRADIENTS TO BE PRINTED
 *  DISP       - PRINT DISPERSION AND HYDROGEN BOND ENERGIES
 *******************************************************************************
PM7 1SCF GRADIENTS DISP RELSCF=0.0001 CHARGE=1
 Title: ASE calculation

   ATOM   CHEMICAL          X               Y               Z
  NUMBER   SYMBOL      (ANGSTROMS)     (ANGSTROMS)     (ANGSTROMS)

     1       C         -2.20100764  *   0.45486101  *  -0.15004664  *
     2       C         -1.07236589  *  -0.49641325  *  -0.43571088  *
     3       O         -0.48528367  *  -0.11074963  *  -1.71440009  *
     4       C          0.63016695  *   0.57344046  *  -1.63235505  *
     5       O          1.31943446  *   1.11040625  *  -2.41681001  *
     6       C          1.08431184  *   0.57879943  *   0.05680956  *
     7       N          2.42035009  *   0.29106750  *   0.15659068  *
     8       C          0.07809619  *  -0.44405139  *   0.60979014  *
     9       O         -0.34962289  *   0.13689714  *   1.80725976  *
    10       H         -1.87106728  *   1.42246120  *   0.25774720  *
    11       H         -2.78892880  *   0.67344768  *  -1.06085425  *
    12       H         -2.91511960  *   0.04195455  *   0.58246539  *
    13       H         -1.41611393  *  -1.53549431  *  -0.66037882  *
    14       H          0.79960784  *   1.63396910  *   0.34195726  *
    15       H          3.11974131  *   1.01819787  *   0.06613746  *
    16       H          2.75953419  *  -0.64644544  *   0.30767467  *
    17       H          0.51707543  *  -1.44876027  *   0.79861444  *
    18       H         -0.87531116  *  -0.49561088  *   2.35763130  *



          CARTESIAN COORDINATES 

    NO.       ATOM           X           Y           Z

     1         C         -2.2010      0.4549     -0.1500
     2         C         -1.0724     -0.4964     -0.4357
     3         O         -0.4853     -0.1107     -1.7144
     4         C          0.6302      0.5734     -1.6324
     5         O          1.3194      1.1104     -2.4168
     6         C          1.0843      0.5788      0.0568
     7         N          2.4204      0.2911      0.1566
     8         C          0.0781     -0.4441      0.6098
     9         O         -0.3496      0.1369      1.8073
    10         H         -1.8711      1.4225      0.2577
    11         H         -2.7889      0.6734     -1.0609
    12         H         -2.9151      0.0420      0.5825
    13         H         -1.4161     -1.5355     -0.6604
    14         H          0.7996      1.6340      0.3420
    15         H          3.1197      1.0182      0.0661
    16         H          2.7595     -0.6464      0.3077
    17         H          0.5171     -1.4488      0.7986
    18         H         -0.8753     -0.4956      2.3576

 General Reference for PM7:
 "Optimization of Parameters for Semiempirical Methods VI: More Modifications to the 
 NDDO Approximations and Re-optimization of Parameters", J. J. P. Stewart, J. Mol. Mod., 1:32, 19 (2013)
 https://link.springer.com/article/10.1007/s00894-012-1667-x

           Empirical Formula: C5 H9 N O3  =    18 atoms



      MOLECULAR POINT GROUP   :   C1  


          UHF CALCULATION, NO. OF ALPHA ELECTRONS =   26
                           NO. OF BETA  ELECTRONS =   25
  SCF CRITERION =    0.1000E-07

 -------------------------------------------------------------------------------
 PM7 1SCF GRADIENTS DISP RELSCF=0.0001 CHARGE=1
 Title: ASE calculation



     1SCF WAS SPECIFIED, SO BFGS WAS NOT USED                 
     SCF FIELD WAS ACHIEVED                                   


                              PM7 CALCULATION
                                                       MOPAC v23.2 Linux
                                                       Fri Sep 19 21:36:26 2025




          FINAL HEAT OF FORMATION =         70.79426 KCAL/MOL =     296.20318 KJ/MOL

          TOTAL ENERGY            =     -41496.20204 KCAL/MOL = ELECTRONIC ENERGY + CORE-CORE REPULSION
          ENERGY OF ATOMS         =      41568.79270 KCAL/MOL
                              SUM =         72.59066 KCAL/MOL
          DISPERSION ENERGY       =         -1.79640 KCAL/MOL
                              SUM =         70.79426 KCAL/MOL = FINAL HEAT OF FORMATION



          TOTAL ENERGY            =      -1799.44563 EV
          ELECTRONIC ENERGY       =      -8310.24487 EV 
          CORE-CORE REPULSION     =       6510.79923 EV
          COSMO AREA              =        155.14 SQUARE ANGSTROMS
          COSMO VOLUME            =        152.52 CUBIC ANGSTROMS

          GRADIENT NORM           =          1.23801          =       0.29180 PER ATOM
          IONIZATION POTENTIAL    =         15.101623 EV
          ALPHA SOMO LUMO (EV)    =        -15.102 -4.258
          BETA  SOMO LUMO (EV)    =        -15.506 -7.194
          NO. OF ALPHA ELECTRONS  =         26
          NO. OF BETA  ELECTRONS  =         25
          MOLECULAR WEIGHT        =        131.1310         POINT GROUP:  C1  

          MOLECULAR DIMENSIONS (Angstroms)

            Atom       Atom       Distance
            H    15    H    12     6.13508
            H    18    O     5     4.71806
            H    10    H    13     3.12829


          SCF CALCULATIONS        =          1

          WALL-CLOCK TIME         =      1.625 SECONDS
          COMPUTATION TIME        =      0.373 SECONDS

          LARGEST ATOMIC GRADIENTS

          Atom     Label                     Cartesian Gradients           Cartesian Coordinates       |Gradient|
                                           X          Y          Z        X          Y          Z

            14       H                  -0.244     -0.112     -0.334    0.79961    1.63397    0.34196      0.428
            11       H                   0.404      0.118      0.074   -2.78893    0.67345   -1.06085      0.427
             4       C                  -0.410      0.012      0.096    0.63017    0.57344   -1.63236      0.421
             9       O                  -0.142     -0.123      0.371   -0.34962    0.13690    1.80726      0.416
             6       C                   0.041     -0.305      0.257    1.08431    0.57880    0.05681      0.401
            17       H                   0.168     -0.278     -0.162    0.51708   -1.44876    0.79861      0.363
            12       H                   0.098      0.268      0.101   -2.91512    0.04195    0.58247      0.302
             5       O                   0.275      0.087     -0.003    1.31943    1.11041   -2.41681      0.289
             3       O                  -0.030     -0.153     -0.210   -0.48528   -0.11075   -1.71440      0.262
            15       H                  -0.203      0.077     -0.046    3.11974    1.01820    0.06614      0.222



       FINAL  POINT  AND  DERIVATIVES

   PARAMETER     ATOM    TYPE            VALUE        GRADIENT
      1          1  C    CARTESIAN X    -2.201008     -0.000940  KCAL/ANGSTROM
      2          1  C    CARTESIAN Y     0.454861      0.053112  KCAL/ANGSTROM
      3          1  C    CARTESIAN Z    -0.150047     -0.037233  KCAL/ANGSTROM
      4          2  C    CARTESIAN X    -1.072366     -0.080085  KCAL/ANGSTROM
      5          2  C    CARTESIAN Y    -0.496413      0.025958  KCAL/ANGSTROM
      6          2  C    CARTESIAN Z    -0.435711     -0.146788  KCAL/ANGSTROM
      7          3  O    CARTESIAN X    -0.485284     -0.029605  KCAL/ANGSTROM
      8          3  O    CARTESIAN Y    -0.110750     -0.153090  KCAL/ANGSTROM
      9          3  O    CARTESIAN Z    -1.714400     -0.210275  KCAL/ANGSTROM
     10          4  C    CARTESIAN X     0.630167     -0.409965  KCAL/ANGSTROM
     11          4  C    CARTESIAN Y     0.573440      0.012308  KCAL/ANGSTROM
     12          4  C    CARTESIAN Z    -1.632355      0.095654  KCAL/ANGSTROM
     13          5  O    CARTESIAN X     1.319434      0.275108  KCAL/ANGSTROM
     14          5  O    CARTESIAN Y     1.110406      0.087386  KCAL/ANGSTROM
     15          5  O    CARTESIAN Z    -2.416810     -0.002754  KCAL/ANGSTROM
     16          6  C    CARTESIAN X     1.084312      0.040747  KCAL/ANGSTROM
     17          6  C    CARTESIAN Y     0.578799     -0.305051  KCAL/ANGSTROM
     18          6  C    CARTESIAN Z     0.056810      0.256800  KCAL/ANGSTROM
     19          7  N    CARTESIAN X     2.420350     -0.055133  KCAL/ANGSTROM
     20          7  N    CARTESIAN Y     0.291067      0.166395  KCAL/ANGSTROM
     21          7  N    CARTESIAN Z     0.156591      0.118692  KCAL/ANGSTROM
     22          8  C    CARTESIAN X     0.078096      0.120093  KCAL/ANGSTROM
     23          8  C    CARTESIAN Y    -0.444051     -0.003123  KCAL/ANGSTROM
     24          8  C    CARTESIAN Z     0.609790      0.168263  KCAL/ANGSTROM
     25          9  O    CARTESIAN X    -0.349623     -0.142327  KCAL/ANGSTROM
     26          9  O    CARTESIAN Y     0.136897     -0.122501  KCAL/ANGSTROM
     27          9  O    CARTESIAN Z     1.807260      0.370668  KCAL/ANGSTROM
     28         10  H    CARTESIAN X    -1.871067     -0.078993  KCAL/ANGSTROM
     29         10  H    CARTESIAN Y     1.422461      0.068347  KCAL/ANGSTROM
     30         10  H    CARTESIAN Z     0.257747     -0.029015  KCAL/ANGSTROM
     31         11  H    CARTESIAN X    -2.788929      0.404033  KCAL/ANGSTROM
     32         11  H    CARTESIAN Y     0.673448      0.118145  KCAL/ANGSTROM
     33         11  H    CARTESIAN Z    -1.060854      0.073899  KCAL/ANGSTROM
     34         12  H    CARTESIAN X    -2.915120      0.097807  KCAL/ANGSTROM
     35         12  H    CARTESIAN Y     0.041955      0.267871  KCAL/ANGSTROM
     36         12  H    CARTESIAN Z     0.582465      0.100777  KCAL/ANGSTROM
     37         13  H    CARTESIAN X    -1.416114     -0.037114  KCAL/ANGSTROM
     38         13  H    CARTESIAN Y    -1.535494     -0.163986  KCAL/ANGSTROM
     39         13  H    CARTESIAN Z    -0.660379     -0.034436  KCAL/ANGSTROM
     40         14  H    CARTESIAN X     0.799608     -0.243997  KCAL/ANGSTROM
     41         14  H    CARTESIAN Y     1.633969     -0.112374  KCAL/ANGSTROM
     42         14  H    CARTESIAN Z     0.341957     -0.333742  KCAL/ANGSTROM
     43         15  H    CARTESIAN X     3.119741     -0.203315  KCAL/ANGSTROM
     44         15  H    CARTESIAN Y     1.018198      0.077246  KCAL/ANGSTROM
     45         15  H    CARTESIAN Z     0.066137     -0.045602  KCAL/ANGSTROM
     46         16  H    CARTESIAN X     2.759534      0.058518  KCAL/ANGSTROM
     47         16  H    CARTESIAN Y    -0.646445      0.115253  KCAL/ANGSTROM
     48         16  H    CARTESIAN Z     0.307675     -0.063725  KCAL/ANGSTROM
     49         17  H    CARTESIAN X     0.517075      0.167772  KCAL/ANGSTROM
     50         17  H    CARTESIAN Y    -1.448760     -0.277549  KCAL/ANGSTROM
     51         17  H    CARTESIAN Z     0.798614     -0.162498  KCAL/ANGSTROM
     52         18  H    CARTESIAN X    -0.875311      0.117393  KCAL/ANGSTROM
     53         18  H    CARTESIAN Y    -0.495611      0.145648  KCAL/ANGSTROM
     54         18  H    CARTESIAN Z     2.357631     -0.118688  KCAL/ANGSTROM




   ATOM   CHEMICAL          X               Y               Z
  NUMBER   SYMBOL      (ANGSTROMS)     (ANGSTROMS)     (ANGSTROMS)

     1       C         -2.20100764  *   0.45486101  *  -0.15004664  *
     2       C         -1.07236589  *  -0.49641325  *  -0.43571088  *
     3       O         -0.48528367  *  -0.11074963  *  -1.71440009  *
     4       C          0.63016695  *   0.57344046  *  -1.63235505  *
     5       O          1.31943446  *   1.11040625  *  -2.41681001  *
     6       C          1.08431184  *   0.57879943  *   0.05680956  *
     7       N          2.42035009  *   0.29106750  *   0.15659068  *
     8       C          0.07809619  *  -0.44405139  *   0.60979014  *
     9       O         -0.34962289  *   0.13689714  *   1.80725976  *
    10       H         -1.87106728  *   1.42246120  *   0.25774720  *
    11       H         -2.78892880  *   0.67344768  *  -1.06085425  *
    12       H         -2.91511960  *   0.04195455  *   0.58246539  *
    13       H         -1.41611393  *  -1.53549431  *  -0.66037882  *
    14       H          0.79960784  *   1.63396910  *   0.34195726  *
    15       H          3.11974131  *   1.01819787  *   0.06613746  *
    16       H          2.75953419  *  -0.64644544  *   0.30767467  *
    17       H          0.51707543  *  -1.44876027  *   0.79861444  *
    18       H         -0.87531116  *  -0.49561088  *   2.35763130  *

                             CARTESIAN COORDINATES

   1    C       -2.201007640     0.454861010    -0.150046639
   2    C       -1.072365890    -0.496413248    -0.435710879
   3    O       -0.485283669    -0.110749629    -1.714400086
   4    C        0.630166950     0.573440456    -1.632355046
   5    O        1.319434456     1.110406251    -2.416810006
   6    C        1.084311837     0.578799429     0.056809559
   7    N        2.420350085     0.291067497     0.156590680
   8    C        0.078096185    -0.444051393     0.609790136
   9    O       -0.349622893     0.136897136     1.807259764
  10    H       -1.871067276     1.422461200     0.257747195
  11    H       -2.788928805     0.673447680    -1.060854252
  12    H       -2.915119600     0.041954547     0.582465386
  13    H       -1.416113930    -1.535494307    -0.660378817
  14    H        0.799607841     1.633969101     0.341957265
  15    H        3.119741314     1.018197874     0.066137456
  16    H        2.759534193    -0.646445442     0.307674669
  17    H        0.517075425    -1.448760273     0.798614438
  18    H       -0.875311163    -0.495610884     2.357631299


           Empirical Formula: C5 H9 N O3  =    18 atoms



      MOLECULAR POINT GROUP   :   C1  


          ALPHA EIGENVALUES  
 -43.25479 -37.71874 -37.02161 -34.66116 -31.95024 -30.63007 -27.81904 -26.44145
 -25.47986 -24.42358 -23.45210 -21.84976 -21.69579 -21.12304 -20.67687 -19.92790
 -19.65622 -18.92363 -18.71898 -18.14214 -17.47969 -17.14839 -16.80896 -16.20502
 -15.60697 -15.10162  -4.25761  -4.20839  -3.94385  -3.42701  -2.29227  -2.03803
  -1.65851  -0.78399  -0.53433  -0.38311  -0.37367  -0.13621   0.21316   0.51486
   0.72664   1.33631   1.63615   1.73457   2.87656


           BETA EIGENVALUES 
 -41.90596 -37.20761 -36.75724 -34.59601 -31.88080 -30.42836 -27.67353 -26.22380
 -25.22902 -24.12343 -23.27498 -21.71929 -21.38996 -21.00326 -20.41867 -19.66140
 -19.38060 -18.72061 -18.48120 -17.44236 -17.22096 -16.76710 -16.23558 -16.07999
 -15.50638  -7.19372  -4.13559  -3.86293  -3.66320  -2.93531  -2.23265  -1.99879
  -1.64587  -0.73671  -0.44821  -0.29148  -0.14664   0.07139   0.25658   0.73277
   0.75184   1.34909   1.63516   1.73451   2.87627


              NET ATOMIC CHARGES AND DIPOLE CONTRIBUTIONS

  ATOM NO.   TYPE          CHARGE      No. of ELECS.   s-Pop       p-Pop       
    1          C          -0.486783        4.4868     1.05592     3.43086
    2          C           0.093143        3.9069     1.12609     2.78077
    3          O          -0.273447        6.2734     1.86511     4.40833
    4          C           0.546652        3.4533     1.15533     2.29801
    5          O          -0.221395        6.2214     1.87429     4.34710
    6          C          -0.175403        4.1754     1.11833     3.05708
    7          N          -0.207326        5.2073     1.50469     3.70263
    8          C           0.081738        3.9183     1.10105     2.81721
    9          O          -0.506621        6.5066     1.85063     4.65599
   10          H           0.180870        0.8191     0.81913
   11          H           0.197556        0.8024     0.80244
   12          H           0.192059        0.8079     0.80794
   13          H           0.183326        0.8167     0.81667
   14          H           0.242209        0.7578     0.75779
   15          H           0.330683        0.6693     0.66932
   16          H           0.318090        0.6819     0.68191
   17          H           0.151308        0.8487     0.84869
   18          H           0.353341        0.6467     0.64666
 DIPOLE           X         Y         Z       TOTAL
 POINT-CHG.     3.121    -2.036     2.911     4.728
 HYBRID         0.568     0.001     0.132     0.583
 SUM            3.689    -2.034     3.043     5.197


          ATOMIC ORBITAL ELECTRON POPULATIONS

     Atom    s        px        py        pz   
    1  C   1.05592   1.08826   1.13250   1.21010
    2  C   1.12609   0.94543   1.07467   0.76067
    3  O   1.86511   1.37204   1.64314   1.39315
    4  C   1.15533   0.77397   0.73126   0.79279
    5  O   1.87429   1.47642   1.43403   1.43665
    6  C   1.11833   0.84384   1.15127   1.06197
    7  N   1.50469   1.14258   1.23101   1.32904
    8  C   1.10105   0.94623   1.00236   0.86862
    9  O   1.85063   1.78258   1.49537   1.37805
   10  H   0.81913
   11  H   0.80244
   12  H   0.80794
   13  H   0.81667
   14  H   0.75779
   15  H   0.66932
   16  H   0.68191
   17  H   0.84869
   18  H   0.64666


                    (SZ)    =    0.500000
                    (S**2)  =    0.780847


          ATOMIC ORBITAL SPIN POPULATIONS

    Atom   Total    s     px     py     pz   
         Atomic
    1  C  0.0000  0.000  0.000  0.000 -0.000
    2  C -0.0115 -0.000 -0.004 -0.002 -0.006
    3  O  0.0860 -0.002  0.048  0.008  0.032
    4  C  0.0661  0.017 -0.009 -0.012  0.069
    5  O  0.1747  0.004  0.021  0.010  0.139
    6  C -0.0242 -0.014 -0.031 -0.005  0.026
    7  N  0.7194  0.031  0.031  0.045  0.613
    8  C  0.0234  0.002  0.013  0.008  0.001
    9  O  0.0029  0.001  0.003 -0.000 -0.001
   10  H -0.0001 -0.000
   11  H -0.0003 -0.000
   12  H -0.0005 -0.000
   13  H  0.0010  0.001
   14  H  0.0220  0.022
   15  H -0.0304 -0.030
   16  H -0.0304 -0.030
   17  H -0.0012 -0.001
   18  H  0.0029  0.003

 **********************
 *                    *
 * JOB ENDED NORMALLY *
 *                    *
 **********************



 TOTAL JOB TIME:             2.16 SECONDS

 == MOPAC DONE ==
