 *******************************************************************************
 **                                                                           **
 **                              MOPAC v23.2                                  **
 **                                                                           **
 *******************************************************************************
 **          Digital Object Identifier (DOI): 10.5281/zenodo.6511958          **
 **    Visit the DOI location for information on how to cite this program.    **
 *******************************************************************************

                              PM7 CALCULATION RESULTS

 *******************************************************************************
 *  CALCULATION DONE: (MAX THREADS = 40)             Fri Sep 19 22:00:52 2025  *
 *  PM7        - The PM7 Hamiltonian to be used
 *
 *
 *
 *                 CHARGE ON SYSTEM = +1
 *
 *
 *
 *  1SCF       - DO 1 SCF AND THEN STOP 
 *  T=         - A TIME OF 172800.0 SECONDS REQUESTED
 *  DUMP=N     - RESTART FILE WRITTEN EVERY 7200.0 SECONDS REQUESTED
 *  RELSCF     - DEFAULT SCF CRITERION MULTIPLIED BY 0.0001
 *              (DEFAULT SCF CRITERION = 0.00010)
 *  GRADIENTS  - ALL GRADIENTS TO BE PRINTED
 *  DISP       - PRINT DISPERSION AND HYDROGEN BOND ENERGIES
 *******************************************************************************
PM7 1SCF GRADIENTS DISP RELSCF=0.0001 CHARGE=1
 Title: ASE calculation

   ATOM   CHEMICAL          X               Y               Z
  NUMBER   SYMBOL      (ANGSTROMS)     (ANGSTROMS)     (ANGSTROMS)

     1       C          1.89171752  *  -1.71060735  *  -0.11832513  *
     2       C          1.14878180  *  -0.47423011  *  -0.33678857  *
     3       C          1.73381254  *   0.75949081  *  -0.46973689  *
     4       C          0.95355107  *   1.90884510  *  -0.59880496  *
     5       O         -0.36094593  *   1.90123306  *  -0.57372836  *
     6       C         -1.04413154  *   0.72611432  *  -0.46885803  *
     7       C         -2.47643937  *   0.94225480  *  -0.38859384  *
     8       C         -0.35777150  *  -0.58694205  *  -0.42725450  *
     9       O         -0.85577431  *  -1.39605915  *   0.60516806  *
    10       H          1.95713333  *  -2.33136291  *  -1.04119009  *
    11       H          1.40371784  *  -2.38563061  *   0.62228944  *
    12       H          2.93554403  *  -1.56467093  *   0.21746916  *
    13       H          2.83028537  *   0.86796835  *  -0.45842270  *
    14       H          1.31272906  *   2.94474250  *  -0.71488188  *
    15       H         -2.95885440  *   0.29683023  *   0.37840915  *
    16       H         -2.99166346  *   0.69295248  *  -1.34390964  *
    17       H         -2.76702739  *   1.98688858  *  -0.15797538  *
    18       H         -0.64151889  *  -1.20363064  *  -1.34396274  *
    19       H         -0.79800605  *  -0.95009454  *   1.48709940  *



          CARTESIAN COORDINATES 

    NO.       ATOM           X           Y           Z

     1         C          1.8917     -1.7106     -0.1183
     2         C          1.1488     -0.4742     -0.3368
     3         C          1.7338      0.7595     -0.4697
     4         C          0.9536      1.9088     -0.5988
     5         O         -0.3609      1.9012     -0.5737
     6         C         -1.0441      0.7261     -0.4689
     7         C         -2.4764      0.9423     -0.3886
     8         C         -0.3578     -0.5869     -0.4273
     9         O         -0.8558     -1.3961      0.6052
    10         H          1.9571     -2.3314     -1.0412
    11         H          1.4037     -2.3856      0.6223
    12         H          2.9355     -1.5647      0.2175
    13         H          2.8303      0.8680     -0.4584
    14         H          1.3127      2.9447     -0.7149
    15         H         -2.9589      0.2968      0.3784
    16         H         -2.9917      0.6930     -1.3439
    17         H         -2.7670      1.9869     -0.1580
    18         H         -0.6415     -1.2036     -1.3440
    19         H         -0.7980     -0.9501      1.4871

 General Reference for PM7:
 "Optimization of Parameters for Semiempirical Methods VI: More Modifications to the 
 NDDO Approximations and Re-optimization of Parameters", J. J. P. Stewart, J. Mol. Mod., 1:32, 19 (2013)
 https://link.springer.com/article/10.1007/s00894-012-1667-x

           Empirical Formula: C7 H10 O2  =    19 atoms



      MOLECULAR POINT GROUP   :   C1  


          UHF CALCULATION, NO. OF ALPHA ELECTRONS =   25
                           NO. OF BETA  ELECTRONS =   24
  SCF CRITERION =    0.1000E-07

 -------------------------------------------------------------------------------
 PM7 1SCF GRADIENTS DISP RELSCF=0.0001 CHARGE=1
 Title: ASE calculation



     1SCF WAS SPECIFIED, SO BFGS WAS NOT USED                 
     SCF FIELD WAS ACHIEVED                                   


                              PM7 CALCULATION
                                                       MOPAC v23.2 Linux
                                                       Fri Sep 19 22:00:53 2025




          FINAL HEAT OF FORMATION =        116.21537 KCAL/MOL =     486.24513 KJ/MOL

          TOTAL ENERGY            =     -36364.21931 KCAL/MOL = ELECTRONIC ENERGY + CORE-CORE REPULSION
          ENERGY OF ATOMS         =      36482.50324 KCAL/MOL
                              SUM =        118.28393 KCAL/MOL
          DISPERSION ENERGY       =         -2.06856 KCAL/MOL
                              SUM =        116.21537 KCAL/MOL = FINAL HEAT OF FORMATION



          TOTAL ENERGY            =      -1576.90180 EV
          ELECTRONIC ENERGY       =      -7559.58172 EV 
          CORE-CORE REPULSION     =       5982.67992 EV
          COSMO AREA              =        162.00 SQUARE ANGSTROMS
          COSMO VOLUME            =        159.46 CUBIC ANGSTROMS

          GRADIENT NORM           =          1.00869          =       0.23141 PER ATOM
          IONIZATION POTENTIAL    =         13.466698 EV
          ALPHA SOMO LUMO (EV)    =        -13.467 -6.486
          BETA  SOMO LUMO (EV)    =        -15.498 -6.491
          NO. OF ALPHA ELECTRONS  =         25
          NO. OF BETA  ELECTRONS  =         24
          MOLECULAR WEIGHT        =        126.1548         POINT GROUP:  C1  

          MOLECULAR DIMENSIONS (Angstroms)

            Atom       Atom       Distance
            H    17    H    12     6.72858
            H    14    O     9     5.00097
            H    19    H    18     2.77922


          SCF CALCULATIONS        =          1

          WALL-CLOCK TIME         =      0.852 SECONDS
          COMPUTATION TIME        =      0.626 SECONDS

          LARGEST ATOMIC GRADIENTS

          Atom     Label                     Cartesian Gradients           Cartesian Coordinates       |Gradient|
                                           X          Y          Z        X          Y          Z

            11       H                   0.203     -0.098      0.384    1.40372   -2.38563    0.62229      0.445
             1       C                  -0.309     -0.068     -0.162    1.89172   -1.71061   -0.11833      0.356
             3       C                   0.261     -0.048     -0.167    1.73381    0.75949   -0.46974      0.314
            17       H                  -0.162     -0.009     -0.227   -2.76703    1.98689   -0.15798      0.279
             4       C                   0.025      0.036      0.271    0.95355    1.90885   -0.59880      0.274
             7       C                   0.227      0.143      0.047   -2.47644    0.94225   -0.38859      0.272
             6       C                  -0.212     -0.045     -0.118   -1.04413    0.72611   -0.46886      0.247
             2       C                   0.098     -0.112     -0.196    1.14878   -0.47423   -0.33679      0.246
            16       H                  -0.061      0.104      0.202   -2.99166    0.69295   -1.34391      0.235
            15       H                  -0.112      0.018      0.114   -2.95885    0.29683    0.37841      0.161



       FINAL  POINT  AND  DERIVATIVES

   PARAMETER     ATOM    TYPE            VALUE        GRADIENT
      1          1  C    CARTESIAN X     1.891718     -0.309215  KCAL/ANGSTROM
      2          1  C    CARTESIAN Y    -1.710607     -0.067572  KCAL/ANGSTROM
      3          1  C    CARTESIAN Z    -0.118325     -0.162232  KCAL/ANGSTROM
      4          2  C    CARTESIAN X     1.148782      0.098286  KCAL/ANGSTROM
      5          2  C    CARTESIAN Y    -0.474230     -0.112196  KCAL/ANGSTROM
      6          2  C    CARTESIAN Z    -0.336789     -0.195860  KCAL/ANGSTROM
      7          3  C    CARTESIAN X     1.733813      0.261295  KCAL/ANGSTROM
      8          3  C    CARTESIAN Y     0.759491     -0.047719  KCAL/ANGSTROM
      9          3  C    CARTESIAN Z    -0.469737     -0.167230  KCAL/ANGSTROM
     10          4  C    CARTESIAN X     0.953551      0.024911  KCAL/ANGSTROM
     11          4  C    CARTESIAN Y     1.908845      0.035995  KCAL/ANGSTROM
     12          4  C    CARTESIAN Z    -0.598805      0.270750  KCAL/ANGSTROM
     13          5  O    CARTESIAN X    -0.360946      0.058271  KCAL/ANGSTROM
     14          5  O    CARTESIAN Y     1.901233     -0.123289  KCAL/ANGSTROM
     15          5  O    CARTESIAN Z    -0.573728     -0.013914  KCAL/ANGSTROM
     16          6  C    CARTESIAN X    -1.044132     -0.212070  KCAL/ANGSTROM
     17          6  C    CARTESIAN Y     0.726114     -0.045430  KCAL/ANGSTROM
     18          6  C    CARTESIAN Z    -0.468858     -0.117784  KCAL/ANGSTROM
     19          7  C    CARTESIAN X    -2.476439      0.226663  KCAL/ANGSTROM
     20          7  C    CARTESIAN Y     0.942255      0.142615  KCAL/ANGSTROM
     21          7  C    CARTESIAN Z    -0.388594      0.046555  KCAL/ANGSTROM
     22          8  C    CARTESIAN X    -0.357771     -0.048323  KCAL/ANGSTROM
     23          8  C    CARTESIAN Y    -0.586942      0.076522  KCAL/ANGSTROM
     24          8  C    CARTESIAN Z    -0.427255      0.118493  KCAL/ANGSTROM
     25          9  O    CARTESIAN X    -0.855774     -0.036525  KCAL/ANGSTROM
     26          9  O    CARTESIAN Y    -1.396059      0.051624  KCAL/ANGSTROM
     27          9  O    CARTESIAN Z     0.605168     -0.017825  KCAL/ANGSTROM
     28         10  H    CARTESIAN X     1.957133      0.083314  KCAL/ANGSTROM
     29         10  H    CARTESIAN Y    -2.331363     -0.105530  KCAL/ANGSTROM
     30         10  H    CARTESIAN Z    -1.041190      0.034083  KCAL/ANGSTROM
     31         11  H    CARTESIAN X     1.403718      0.202593  KCAL/ANGSTROM
     32         11  H    CARTESIAN Y    -2.385631     -0.098330  KCAL/ANGSTROM
     33         11  H    CARTESIAN Z     0.622289      0.383698  KCAL/ANGSTROM
     34         12  H    CARTESIAN X     2.935544      0.049020  KCAL/ANGSTROM
     35         12  H    CARTESIAN Y    -1.564671      0.116821  KCAL/ANGSTROM
     36         12  H    CARTESIAN Z     0.217469     -0.072615  KCAL/ANGSTROM
     37         13  H    CARTESIAN X     2.830285      0.056232  KCAL/ANGSTROM
     38         13  H    CARTESIAN Y     0.867968      0.121204  KCAL/ANGSTROM
     39         13  H    CARTESIAN Z    -0.458423      0.063569  KCAL/ANGSTROM
     40         14  H    CARTESIAN X     1.312729     -0.093500  KCAL/ANGSTROM
     41         14  H    CARTESIAN Y     2.944742      0.070505  KCAL/ANGSTROM
     42         14  H    CARTESIAN Z    -0.714882     -0.005095  KCAL/ANGSTROM
     43         15  H    CARTESIAN X    -2.958854     -0.111742  KCAL/ANGSTROM
     44         15  H    CARTESIAN Y     0.296830      0.017641  KCAL/ANGSTROM
     45         15  H    CARTESIAN Z     0.378409      0.114008  KCAL/ANGSTROM
     46         16  H    CARTESIAN X    -2.991663     -0.061409  KCAL/ANGSTROM
     47         16  H    CARTESIAN Y     0.692952      0.104113  KCAL/ANGSTROM
     48         16  H    CARTESIAN Z    -1.343910      0.201527  KCAL/ANGSTROM
     49         17  H    CARTESIAN X    -2.767027     -0.162054  KCAL/ANGSTROM
     50         17  H    CARTESIAN Y     1.986889     -0.009187  KCAL/ANGSTROM
     51         17  H    CARTESIAN Z    -0.157975     -0.227467  KCAL/ANGSTROM
     52         18  H    CARTESIAN X    -0.641519      0.019824  KCAL/ANGSTROM
     53         18  H    CARTESIAN Y    -1.203631     -0.045330  KCAL/ANGSTROM
     54         18  H    CARTESIAN Z    -1.343963     -0.125599  KCAL/ANGSTROM
     55         19  H    CARTESIAN X    -0.798006     -0.045570  KCAL/ANGSTROM
     56         19  H    CARTESIAN Y    -0.950095     -0.082457  KCAL/ANGSTROM
     57         19  H    CARTESIAN Z     1.487099     -0.127065  KCAL/ANGSTROM




   ATOM   CHEMICAL          X               Y               Z
  NUMBER   SYMBOL      (ANGSTROMS)     (ANGSTROMS)     (ANGSTROMS)

     1       C          1.89171752  *  -1.71060735  *  -0.11832513  *
     2       C          1.14878180  *  -0.47423011  *  -0.33678857  *
     3       C          1.73381254  *   0.75949081  *  -0.46973689  *
     4       C          0.95355107  *   1.90884510  *  -0.59880496  *
     5       O         -0.36094593  *   1.90123306  *  -0.57372836  *
     6       C         -1.04413154  *   0.72611432  *  -0.46885803  *
     7       C         -2.47643937  *   0.94225480  *  -0.38859384  *
     8       C         -0.35777150  *  -0.58694205  *  -0.42725450  *
     9       O         -0.85577431  *  -1.39605915  *   0.60516806  *
    10       H          1.95713333  *  -2.33136291  *  -1.04119009  *
    11       H          1.40371784  *  -2.38563061  *   0.62228944  *
    12       H          2.93554403  *  -1.56467093  *   0.21746916  *
    13       H          2.83028537  *   0.86796835  *  -0.45842270  *
    14       H          1.31272906  *   2.94474250  *  -0.71488188  *
    15       H         -2.95885440  *   0.29683023  *   0.37840915  *
    16       H         -2.99166346  *   0.69295248  *  -1.34390964  *
    17       H         -2.76702739  *   1.98688858  *  -0.15797538  *
    18       H         -0.64151889  *  -1.20363064  *  -1.34396274  *
    19       H         -0.79800605  *  -0.95009454  *   1.48709940  *

                             CARTESIAN COORDINATES

   1    C        1.891717519    -1.710607354    -0.118325129
   2    C        1.148781800    -0.474230114    -0.336788571
   3    C        1.733812545     0.759490813    -0.469736887
   4    C        0.953551072     1.908845095    -0.598804959
   5    O       -0.360945929     1.901233057    -0.573728356
   6    C       -1.044131536     0.726114315    -0.468858031
   7    C       -2.476439365     0.942254797    -0.388593840
   8    C       -0.357771495    -0.586942050    -0.427254502
   9    O       -0.855774305    -1.396059152     0.605168059
  10    H        1.957133326    -2.331362912    -1.041190086
  11    H        1.403717840    -2.385630610     0.622289439
  12    H        2.935544032    -1.564670927     0.217469160
  13    H        2.830285370     0.867968348    -0.458422701
  14    H        1.312729058     2.944742495    -0.714881878
  15    H       -2.958854402     0.296830226     0.378409147
  16    H       -2.991663460     0.692952481    -1.343909642
  17    H       -2.767027390     1.986888578    -0.157975383
  18    H       -0.641518894    -1.203630637    -1.343962744
  19    H       -0.798006048    -0.950094537     1.487099397


           Empirical Formula: C7 H10 O2  =    19 atoms



      MOLECULAR POINT GROUP   :   C1  


          ALPHA EIGENVALUES  
 -38.10433 -35.34304 -33.64925 -32.27246 -30.83340 -29.06781 -27.79877 -25.39149
 -23.64732 -22.82907 -21.93806 -21.67329 -20.46590 -19.84857 -19.52138 -19.08591
 -18.86443 -18.20000 -18.16024 -17.86869 -17.38600 -16.85057 -15.88808 -15.54597
 -13.46670  -6.48578  -4.23284  -4.06775  -2.27010  -1.90625  -1.83110  -1.41120
  -0.97547  -0.62311  -0.41333  -0.29714   0.08108   0.27349   1.01307   1.13663
   1.16080   1.26047   1.30361   1.38609   2.34842   2.41527


           BETA EIGENVALUES 
 -38.40623 -35.27008 -33.56266 -32.09886 -30.83017 -28.99574 -27.73938 -25.29796
 -23.60922 -22.77256 -21.88523 -21.40180 -20.42558 -19.76458 -19.51265 -19.02041
 -18.65443 -18.14652 -17.96184 -17.81906 -17.36859 -16.78634 -15.78568 -15.49752
  -6.49130  -4.74162  -4.05419  -3.87909  -2.09725  -1.80231  -1.65582  -1.28026
  -0.90665  -0.53441  -0.35289  -0.10465   0.11772   0.35795   1.03671   1.12946
   1.25339   1.26688   1.33687   1.40517   2.35562   2.44675


              NET ATOMIC CHARGES AND DIPOLE CONTRIBUTIONS

  ATOM NO.   TYPE          CHARGE      No. of ELECS.   s-Pop       p-Pop       
    1          C          -0.504069        4.5041     1.05285     3.45121
    2          C           0.261740        3.7383     1.12582     2.61244
    3          C          -0.397493        4.3975     1.07813     3.31936
    4          C           0.251208        3.7488     1.16758     2.58121
    5          O          -0.084945        6.0849     1.84456     4.24039
    6          C           0.081921        3.9181     1.14054     2.77754
    7          C          -0.464227        4.4642     1.04765     3.41658
    8          C           0.022644        3.9774     1.08533     2.89202
    9          O          -0.455699        6.4557     1.85856     4.59714
   10          H           0.222851        0.7771     0.77715
   11          H           0.222437        0.7776     0.77756
   12          H           0.202449        0.7976     0.79755
   13          H           0.232533        0.7675     0.76747
   14          H           0.223028        0.7770     0.77697
   15          H           0.214948        0.7851     0.78505
   16          H           0.215287        0.7847     0.78471
   17          H           0.204857        0.7951     0.79514
   18          H           0.224901        0.7751     0.77510
   19          H           0.325630        0.6744     0.67437
 DIPOLE           X         Y         Z       TOTAL
 POINT-CHG.     1.886     1.589    -0.858     2.611
 HYBRID        -0.084     0.349     0.384     0.526
 SUM            1.802     1.938    -0.474     2.688


          ATOMIC ORBITAL ELECTRON POPULATIONS

     Atom    s        px        py        pz   
    1  C   1.05285   1.17390   1.06133   1.21598
    2  C   1.12582   0.97563   0.97501   0.66180
    3  C   1.07813   1.14581   0.98646   1.18709
    4  C   1.16758   0.80134   1.06633   0.71355
    5  O   1.84456   1.25523   1.39078   1.59438
    6  C   1.14054   0.93681   0.82687   1.01386
    7  C   1.04765   0.97700   1.22190   1.21768
    8  C   1.08533   0.94023   0.95588   0.99592
    9  O   1.85856   1.84922   1.45752   1.29040
   10  H   0.77715
   11  H   0.77756
   12  H   0.79755
   13  H   0.76747
   14  H   0.77697
   15  H   0.78505
   16  H   0.78471
   17  H   0.79514
   18  H   0.77510
   19  H   0.67437


                    (SZ)    =    0.500000
                    (S**2)  =    0.783973


          ATOMIC ORBITAL SPIN POPULATIONS

    Atom   Total    s     px     py     pz   
         Atomic
    1  C -0.0033 -0.001 -0.002 -0.004  0.004
    2  C  0.1635  0.005  0.007  0.009  0.142
    3  C -0.0736 -0.003 -0.004 -0.008 -0.059
    4  C  0.1738  0.005  0.009  0.007  0.152
    5  O -0.1176 -0.003 -0.009 -0.020 -0.084
    6  C  0.7915  0.023  0.025  0.027  0.716
    7  C -0.0220 -0.004 -0.022 -0.003  0.007
    8  C -0.0537 -0.004 -0.009 -0.019 -0.021
    9  O  0.0468  0.002  0.001  0.033  0.011
   10  H  0.0087  0.009
   11  H  0.0039  0.004
   12  H  0.0010  0.001
   13  H  0.0024  0.002
   14  H -0.0056 -0.006
   15  H  0.0176  0.018
   16  H  0.0319  0.032
   17  H  0.0033  0.003
   18  H  0.0333  0.033
   19  H -0.0017 -0.002

 **********************
 *                    *
 * JOB ENDED NORMALLY *
 *                    *
 **********************



 TOTAL JOB TIME:             1.27 SECONDS

 == MOPAC DONE ==
