 *******************************************************************************
 **                                                                           **
 **                              MOPAC v23.2                                  **
 **                                                                           **
 *******************************************************************************
 **          Digital Object Identifier (DOI): 10.5281/zenodo.6511958          **
 **    Visit the DOI location for information on how to cite this program.    **
 *******************************************************************************

                              PM7 CALCULATION RESULTS

 *******************************************************************************
 *  CALCULATION DONE: (MAX THREADS = 40)             Fri Sep 19 22:05:08 2025  *
 *  PM7        - The PM7 Hamiltonian to be used
 *
 *
 *
 *                 CHARGE ON SYSTEM = +1
 *
 *
 *
 *  1SCF       - DO 1 SCF AND THEN STOP 
 *  T=         - A TIME OF 172800.0 SECONDS REQUESTED
 *  DUMP=N     - RESTART FILE WRITTEN EVERY 7200.0 SECONDS REQUESTED
 *  RELSCF     - DEFAULT SCF CRITERION MULTIPLIED BY 0.0001
 *              (DEFAULT SCF CRITERION = 0.00010)
 *  GRADIENTS  - ALL GRADIENTS TO BE PRINTED
 *  DISP       - PRINT DISPERSION AND HYDROGEN BOND ENERGIES
 *******************************************************************************
PM7 1SCF GRADIENTS DISP RELSCF=0.0001 CHARGE=1
 Title: ASE calculation

   ATOM   CHEMICAL          X               Y               Z
  NUMBER   SYMBOL      (ANGSTROMS)     (ANGSTROMS)     (ANGSTROMS)

     1       C         -2.71373316  *  -0.66578237  *   0.71841291  *
     2       C         -2.02739440  *   0.68220177  *   0.44624512  *
     3       N         -0.68028022  *   0.45934516  *   0.01638931  *
     4       C         -0.26888514  *   0.16583677  *  -1.33908427  *
     5       C          1.22632137  *  -0.05425361  *  -1.23089442  *
     6       C          1.66427201  *   0.08092022  *   0.03447788  *
     7       C          3.01986380  *  -0.04149894  *   0.57963476  *
     8       C          0.53959825  *   0.41113253  *   0.93949398  *
     9       O          0.36244421  *   0.62886840  *   2.08708698  *
    10       H         -2.79468297  *  -1.29286006  *  -0.17891058  *
    11       H         -3.74562102  *  -0.49554017  *   1.08093974  *
    12       H         -2.20508008  *  -1.24611798  *   1.50268489  *
    13       H         -2.61194020  *   1.26046741  *  -0.31786307  *
    14       H         -2.02576145  *   1.29859213  *   1.39176632  *
    15       H         -0.80323451  *  -0.73461774  *  -1.75267392  *
    16       H         -0.52734049  *   0.99993393  *  -2.04967199  *
    17       H          1.80877384  *  -0.28592737  *  -2.11543346  *
    18       H          3.09929756  *  -0.83411480  *   1.34903034  *
    19       H          3.77083277  *  -0.28546170  *  -0.19529224  *
    20       H          3.36626801  *   0.89171797  *   1.06619247  *



          CARTESIAN COORDINATES 

    NO.       ATOM           X           Y           Z

     1         C         -2.7137     -0.6658      0.7184
     2         C         -2.0274      0.6822      0.4462
     3         N         -0.6803      0.4593      0.0164
     4         C         -0.2689      0.1658     -1.3391
     5         C          1.2263     -0.0543     -1.2309
     6         C          1.6643      0.0809      0.0345
     7         C          3.0199     -0.0415      0.5796
     8         C          0.5396      0.4111      0.9395
     9         O          0.3624      0.6289      2.0871
    10         H         -2.7947     -1.2929     -0.1789
    11         H         -3.7456     -0.4955      1.0809
    12         H         -2.2051     -1.2461      1.5027
    13         H         -2.6119      1.2605     -0.3179
    14         H         -2.0258      1.2986      1.3918
    15         H         -0.8032     -0.7346     -1.7527
    16         H         -0.5273      0.9999     -2.0497
    17         H          1.8088     -0.2859     -2.1154
    18         H          3.0993     -0.8341      1.3490
    19         H          3.7708     -0.2855     -0.1953
    20         H          3.3663      0.8917      1.0662

 General Reference for PM7:
 "Optimization of Parameters for Semiempirical Methods VI: More Modifications to the 
 NDDO Approximations and Re-optimization of Parameters", J. J. P. Stewart, J. Mol. Mod., 1:32, 19 (2013)
 https://link.springer.com/article/10.1007/s00894-012-1667-x

           Empirical Formula: C7 H11 N O  =    20 atoms



      MOLECULAR POINT GROUP   :   C1  


          UHF CALCULATION, NO. OF ALPHA ELECTRONS =   25
                           NO. OF BETA  ELECTRONS =   24
  SCF CRITERION =    0.1000E-07

 -------------------------------------------------------------------------------
 PM7 1SCF GRADIENTS DISP RELSCF=0.0001 CHARGE=1
 Title: ASE calculation



     1SCF WAS SPECIFIED, SO BFGS WAS NOT USED                 
     SCF FIELD WAS ACHIEVED                                   


                              PM7 CALCULATION
                                                       MOPAC v23.2 Linux
                                                       Fri Sep 19 22:05:08 2025




          FINAL HEAT OF FORMATION =        155.56589 KCAL/MOL =     650.88769 KJ/MOL

          TOTAL ENERGY            =     -34166.26210 KCAL/MOL = ELECTRONIC ENERGY + CORE-CORE REPULSION
          ENERGY OF ATOMS         =      34323.93363 KCAL/MOL
                              SUM =        157.67153 KCAL/MOL
          DISPERSION ENERGY       =         -2.10564 KCAL/MOL
                              SUM =        155.56589 KCAL/MOL = FINAL HEAT OF FORMATION



          TOTAL ENERGY            =      -1481.58935 EV
          ELECTRONIC ENERGY       =      -7325.96454 EV 
          CORE-CORE REPULSION     =       5844.37519 EV
          COSMO AREA              =        170.22 SQUARE ANGSTROMS
          COSMO VOLUME            =        168.28 CUBIC ANGSTROMS

          GRADIENT NORM           =          1.22072          =       0.27296 PER ATOM
          IONIZATION POTENTIAL    =         14.850277 EV
          ALPHA SOMO LUMO (EV)    =        -14.853 -5.240
          BETA  SOMO LUMO (EV)    =        -14.850 -7.175
          NO. OF ALPHA ELECTRONS  =         25
          NO. OF BETA  ELECTRONS  =         24
          MOLECULAR WEIGHT        =        125.1700         POINT GROUP:  C1  

          MOLECULAR DIMENSIONS (Angstroms)

            Atom       Atom       Distance
            H    19    H    11     7.62692
            H    16    H    18     4.39728
            H    15    H    14     3.13397


          SCF CALCULATIONS        =          1

          WALL-CLOCK TIME         =      0.602 SECONDS
          COMPUTATION TIME        =      1.709 SECONDS

          LARGEST ATOMIC GRADIENTS

          Atom     Label                     Cartesian Gradients           Cartesian Coordinates       |Gradient|
                                           X          Y          Z        X          Y          Z

            19       H                  -0.074     -0.095     -0.404    3.77083   -0.28546   -0.19529      0.421
            12       H                   0.267      0.252      0.201   -2.20508   -1.24612    1.50268      0.418
            10       H                   0.015      0.024     -0.350   -2.79468   -1.29286   -0.17891      0.351
             9       O                  -0.289     -0.163     -0.087    0.36244    0.62887    2.08709      0.343
            15       H                   0.195      0.091      0.225   -0.80323   -0.73462   -1.75267      0.311
             3       N                  -0.193      0.153     -0.187   -0.68028    0.45935    0.01639      0.310
             2       C                  -0.266     -0.041      0.070   -2.02739    0.68220    0.44625      0.278
            13       H                  -0.148      0.089      0.215   -2.61194    1.26047   -0.31786      0.276
             6       C                   0.074     -0.231      0.116    1.66427    0.08092    0.03448      0.269
            17       H                   0.187      0.173      0.059    1.80877   -0.28593   -2.11543      0.261



       FINAL  POINT  AND  DERIVATIVES

   PARAMETER     ATOM    TYPE            VALUE        GRADIENT
      1          1  C    CARTESIAN X    -2.713733     -0.122560  KCAL/ANGSTROM
      2          1  C    CARTESIAN Y    -0.665782     -0.163398  KCAL/ANGSTROM
      3          1  C    CARTESIAN Z     0.718413     -0.015979  KCAL/ANGSTROM
      4          2  C    CARTESIAN X    -2.027394     -0.266030  KCAL/ANGSTROM
      5          2  C    CARTESIAN Y     0.682202     -0.041385  KCAL/ANGSTROM
      6          2  C    CARTESIAN Z     0.446245      0.069613  KCAL/ANGSTROM
      7          3  N    CARTESIAN X    -0.680280     -0.193132  KCAL/ANGSTROM
      8          3  N    CARTESIAN Y     0.459345      0.153254  KCAL/ANGSTROM
      9          3  N    CARTESIAN Z     0.016389     -0.187130  KCAL/ANGSTROM
     10          4  C    CARTESIAN X    -0.268885      0.122855  KCAL/ANGSTROM
     11          4  C    CARTESIAN Y     0.165837      0.042196  KCAL/ANGSTROM
     12          4  C    CARTESIAN Z    -1.339084     -0.077851  KCAL/ANGSTROM
     13          5  C    CARTESIAN X     1.226321      0.046265  KCAL/ANGSTROM
     14          5  C    CARTESIAN Y    -0.054254     -0.250976  KCAL/ANGSTROM
     15          5  C    CARTESIAN Z    -1.230894      0.020907  KCAL/ANGSTROM
     16          6  C    CARTESIAN X     1.664272      0.073609  KCAL/ANGSTROM
     17          6  C    CARTESIAN Y     0.080920     -0.231038  KCAL/ANGSTROM
     18          6  C    CARTESIAN Z     0.034478      0.116408  KCAL/ANGSTROM
     19          7  C    CARTESIAN X     3.019864      0.135881  KCAL/ANGSTROM
     20          7  C    CARTESIAN Y    -0.041499     -0.015069  KCAL/ANGSTROM
     21          7  C    CARTESIAN Z     0.579635     -0.034356  KCAL/ANGSTROM
     22          8  C    CARTESIAN X     0.539598      0.179588  KCAL/ANGSTROM
     23          8  C    CARTESIAN Y     0.411133      0.099177  KCAL/ANGSTROM
     24          8  C    CARTESIAN Z     0.939494      0.024307  KCAL/ANGSTROM
     25          9  O    CARTESIAN X     0.362444     -0.288693  KCAL/ANGSTROM
     26          9  O    CARTESIAN Y     0.628868     -0.162607  KCAL/ANGSTROM
     27          9  O    CARTESIAN Z     2.087087     -0.087380  KCAL/ANGSTROM
     28         10  H    CARTESIAN X    -2.794683      0.014761  KCAL/ANGSTROM
     29         10  H    CARTESIAN Y    -1.292860      0.024282  KCAL/ANGSTROM
     30         10  H    CARTESIAN Z    -0.178911     -0.349896  KCAL/ANGSTROM
     31         11  H    CARTESIAN X    -3.745621     -0.155609  KCAL/ANGSTROM
     32         11  H    CARTESIAN Y    -0.495540     -0.003217  KCAL/ANGSTROM
     33         11  H    CARTESIAN Z     1.080940      0.033027  KCAL/ANGSTROM
     34         12  H    CARTESIAN X    -2.205080      0.266653  KCAL/ANGSTROM
     35         12  H    CARTESIAN Y    -1.246118      0.251910  KCAL/ANGSTROM
     36         12  H    CARTESIAN Z     1.502685      0.200662  KCAL/ANGSTROM
     37         13  H    CARTESIAN X    -2.611940     -0.148463  KCAL/ANGSTROM
     38         13  H    CARTESIAN Y     1.260467      0.088748  KCAL/ANGSTROM
     39         13  H    CARTESIAN Z    -0.317863      0.215308  KCAL/ANGSTROM
     40         14  H    CARTESIAN X    -2.025761      0.226540  KCAL/ANGSTROM
     41         14  H    CARTESIAN Y     1.298592      0.057138  KCAL/ANGSTROM
     42         14  H    CARTESIAN Z     1.391766      0.100551  KCAL/ANGSTROM
     43         15  H    CARTESIAN X    -0.803235      0.195202  KCAL/ANGSTROM
     44         15  H    CARTESIAN Y    -0.734618      0.090565  KCAL/ANGSTROM
     45         15  H    CARTESIAN Z    -1.752674      0.224579  KCAL/ANGSTROM
     46         16  H    CARTESIAN X    -0.527340     -0.037937  KCAL/ANGSTROM
     47         16  H    CARTESIAN Y     0.999934     -0.178089  KCAL/ANGSTROM
     48         16  H    CARTESIAN Z    -2.049672     -0.135965  KCAL/ANGSTROM
     49         17  H    CARTESIAN X     1.808774      0.187305  KCAL/ANGSTROM
     50         17  H    CARTESIAN Y    -0.285927      0.172793  KCAL/ANGSTROM
     51         17  H    CARTESIAN Z    -2.115433      0.058595  KCAL/ANGSTROM
     52         18  H    CARTESIAN X     3.099298     -0.007719  KCAL/ANGSTROM
     53         18  H    CARTESIAN Y    -0.834115      0.000772  KCAL/ANGSTROM
     54         18  H    CARTESIAN Z     1.349030      0.104967  KCAL/ANGSTROM
     55         19  H    CARTESIAN X     3.770833     -0.073659  KCAL/ANGSTROM
     56         19  H    CARTESIAN Y    -0.285462     -0.094875  KCAL/ANGSTROM
     57         19  H    CARTESIAN Z    -0.195292     -0.403619  KCAL/ANGSTROM
     58         20  H    CARTESIAN X     3.366268     -0.154859  KCAL/ANGSTROM
     59         20  H    CARTESIAN Y     0.891718      0.159816  KCAL/ANGSTROM
     60         20  H    CARTESIAN Z     1.066192      0.123246  KCAL/ANGSTROM




   ATOM   CHEMICAL          X               Y               Z
  NUMBER   SYMBOL      (ANGSTROMS)     (ANGSTROMS)     (ANGSTROMS)

     1       C         -2.71373316  *  -0.66578237  *   0.71841291  *
     2       C         -2.02739440  *   0.68220177  *   0.44624512  *
     3       N         -0.68028022  *   0.45934516  *   0.01638931  *
     4       C         -0.26888514  *   0.16583677  *  -1.33908427  *
     5       C          1.22632137  *  -0.05425361  *  -1.23089442  *
     6       C          1.66427201  *   0.08092022  *   0.03447788  *
     7       C          3.01986380  *  -0.04149894  *   0.57963476  *
     8       C          0.53959825  *   0.41113253  *   0.93949398  *
     9       O          0.36244421  *   0.62886840  *   2.08708698  *
    10       H         -2.79468297  *  -1.29286006  *  -0.17891058  *
    11       H         -3.74562102  *  -0.49554017  *   1.08093974  *
    12       H         -2.20508008  *  -1.24611798  *   1.50268489  *
    13       H         -2.61194020  *   1.26046741  *  -0.31786307  *
    14       H         -2.02576145  *   1.29859213  *   1.39176632  *
    15       H         -0.80323451  *  -0.73461774  *  -1.75267392  *
    16       H         -0.52734049  *   0.99993393  *  -2.04967199  *
    17       H          1.80877384  *  -0.28592737  *  -2.11543346  *
    18       H          3.09929756  *  -0.83411480  *   1.34903034  *
    19       H          3.77083277  *  -0.28546170  *  -0.19529224  *
    20       H          3.36626801  *   0.89171797  *   1.06619247  *

                             CARTESIAN COORDINATES

   1    C       -2.713733161    -0.665782374     0.718412913
   2    C       -2.027394396     0.682201767     0.446245121
   3    N       -0.680280223     0.459345161     0.016389310
   4    C       -0.268885136     0.165836765    -1.339084275
   5    C        1.226321374    -0.054253614    -1.230894416
   6    C        1.664272008     0.080920217     0.034477879
   7    C        3.019863801    -0.041498943     0.579634757
   8    C        0.539598246     0.411132535     0.939493976
   9    O        0.362444215     0.628868403     2.087086979
  10    H       -2.794682975    -1.292860058    -0.178910582
  11    H       -3.745621023    -0.495540170     1.080939743
  12    H       -2.205080075    -1.246117978     1.502684889
  13    H       -2.611940197     1.260467414    -0.317863071
  14    H       -2.025761446     1.298592135     1.391766321
  15    H       -0.803234509    -0.734617743    -1.752673922
  16    H       -0.527340486     0.999933930    -2.049671993
  17    H        1.808773840    -0.285927366    -2.115433461
  18    H        3.099297557    -0.834114801     1.349030337
  19    H        3.770832771    -0.285461697    -0.195292240
  20    H        3.366268008     0.891717969     1.066192471


           Empirical Formula: C7 H11 N O  =    20 atoms



      MOLECULAR POINT GROUP   :   C1  


          ALPHA EIGENVALUES  
 -42.68832 -37.32893 -34.51484 -31.48853 -30.37469 -28.65102 -26.88207 -25.28306
 -24.17719 -22.77893 -22.01797 -20.91092 -20.26842 -19.74196 -19.53457 -19.36061
 -19.02747 -18.18398 -17.99572 -17.64697 -17.29599 -16.92801 -16.47768 -15.98998
 -14.85326  -5.24044  -4.47606  -3.48367  -2.46674  -2.14928  -1.58339  -1.14629
  -0.93631  -0.36967  -0.32830   0.05754   0.17165   0.24185   0.43209   0.75890
   1.25729   1.28530   1.32720   1.72256   1.77219   2.41570   2.90350


           BETA EIGENVALUES 
 -41.10005 -37.02381 -34.35931 -31.35998 -30.09042 -28.51654 -26.76033 -25.05905
 -23.98134 -22.30054 -21.22740 -20.77748 -20.22586 -19.49449 -19.34751 -19.22943
 -18.58003 -18.07062 -17.99458 -17.55167 -17.26998 -16.90581 -15.78600 -14.85028
  -7.17480  -4.89247  -3.98021  -3.33229  -2.27712  -1.97639  -1.42236  -1.00065
  -0.74390  -0.23369  -0.16712   0.07733   0.22343   0.30744   0.45835   0.81349
   1.24972   1.30114   1.33973   1.72518   1.77214   2.41994   2.90423


              NET ATOMIC CHARGES AND DIPOLE CONTRIBUTIONS

  ATOM NO.   TYPE          CHARGE      No. of ELECS.   s-Pop       p-Pop       
    1          C          -0.432288        4.4323     1.06027     3.37202
    2          C          -0.147939        4.1479     1.07783     3.07010
    3          N          -0.112354        5.1124     1.61465     3.49770
    4          C          -0.188392        4.1884     1.07914     3.10925
    5          C          -0.101568        4.1016     1.11180     2.98977
    6          C          -0.054209        4.0542     1.07676     2.97745
    7          C          -0.439334        4.4393     1.04393     3.39541
    8          C           0.483052        3.5169     1.15156     2.36539
    9          O          -0.213939        6.2139     1.87788     4.33606
   10          H           0.169108        0.8309     0.83089
   11          H           0.201902        0.7981     0.79810
   12          H           0.178629        0.8214     0.82137
   13          H           0.198060        0.8019     0.80194
   14          H           0.210799        0.7892     0.78920
   15          H           0.227291        0.7727     0.77271
   16          H           0.228732        0.7713     0.77127
   17          H           0.209737        0.7903     0.79026
   18          H           0.194141        0.8059     0.80586
   19          H           0.193460        0.8065     0.80654
   20          H           0.195112        0.8049     0.80489
 DIPOLE           X         Y         Z       TOTAL
 POINT-CHG.    -1.672    -0.256    -3.474     3.864
 HYBRID        -0.604     0.245     0.208     0.684
 SUM           -2.276    -0.011    -3.266     3.981


          ATOMIC ORBITAL ELECTRON POPULATIONS

     Atom    s        px        py        pz   
    1  C   1.06027   1.16706   1.00671   1.19824
    2  C   1.07783   0.81430   1.08163   1.17418
    3  N   1.61465   1.19095   1.12957   1.17718
    4  C   1.07914   1.04885   1.18342   0.87698
    5  C   1.11180   0.96326   0.96159   1.06492
    6  C   1.07676   0.97945   1.03625   0.96175
    7  C   1.04393   0.99789   1.21083   1.18669
    8  C   1.15156   0.80497   0.73687   0.82355
    9  O   1.87788   1.76249   1.34415   1.22941
   10  H   0.83089
   11  H   0.79810
   12  H   0.82137
   13  H   0.80194
   14  H   0.78920
   15  H   0.77271
   16  H   0.77127
   17  H   0.79026
   18  H   0.80586
   19  H   0.80654
   20  H   0.80489


                    (SZ)    =    0.500000
                    (S**2)  =    0.767879


          ATOMIC ORBITAL SPIN POPULATIONS

    Atom   Total    s     px     py     pz   
         Atomic
    1  C  0.0716  0.009  0.020  0.038  0.004
    2  C -0.0485 -0.006 -0.035  0.001 -0.009
    3  N  0.9390  0.042  0.062  0.765  0.070
    4  C -0.0427 -0.006 -0.006  0.007 -0.037
    5  C -0.0321 -0.001 -0.000 -0.029 -0.002
    6  C  0.0200 -0.000 -0.002  0.022  0.001
    7  C -0.0022 -0.000 -0.002  0.000 -0.000
    8  C -0.0868 -0.003 -0.024 -0.049 -0.010
    9  O  0.0893  0.002 -0.013  0.100 -0.000
   10  H -0.0021 -0.002
   11  H -0.0003 -0.000
   12  H -0.0023 -0.002
   13  H  0.0174  0.017
   14  H  0.0100  0.010
   15  H  0.0342  0.034
   16  H  0.0336  0.034
   17  H  0.0001  0.000
   18  H  0.0009  0.001
   19  H -0.0002 -0.000
   20  H  0.0009  0.001

 **********************
 *                    *
 * JOB ENDED NORMALLY *
 *                    *
 **********************



 TOTAL JOB TIME:             0.97 SECONDS

 == MOPAC DONE ==
