 *******************************************************************************
 **                                                                           **
 **                              MOPAC v23.2                                  **
 **                                                                           **
 *******************************************************************************
 **          Digital Object Identifier (DOI): 10.5281/zenodo.6511958          **
 **    Visit the DOI location for information on how to cite this program.    **
 *******************************************************************************

                              PM7 CALCULATION RESULTS

 *******************************************************************************
 *  CALCULATION DONE: (MAX THREADS = 40)             Fri Sep 19 21:59:46 2025  *
 *  PM7        - The PM7 Hamiltonian to be used
 *  1SCF       - DO 1 SCF AND THEN STOP 
 *  T=         - A TIME OF 172800.0 SECONDS REQUESTED
 *  DUMP=N     - RESTART FILE WRITTEN EVERY 7200.0 SECONDS REQUESTED
 *  RELSCF     - DEFAULT SCF CRITERION MULTIPLIED BY 0.0001
 *              (DEFAULT SCF CRITERION = 0.00010)
 *  GRADIENTS  - ALL GRADIENTS TO BE PRINTED
 *  DISP       - PRINT DISPERSION AND HYDROGEN BOND ENERGIES
 *******************************************************************************
PM7 1SCF GRADIENTS DISP RELSCF=0.0001
 Title: ASE calculation

   ATOM   CHEMICAL          X               Y               Z
  NUMBER   SYMBOL      (ANGSTROMS)     (ANGSTROMS)     (ANGSTROMS)

     1       C          2.92744063  *   1.38755840  *   0.17793468  *
     2       C          1.74440611  *   0.59769714  *   0.25317661  *
     3       C          0.70199499  *  -0.09802108  *   0.31135792  *
     4       C         -0.48980327  *  -0.89518616  *   0.36573173  *
     5       C         -0.61047879  *  -1.72764753  *  -0.92236322  *
     6       C         -1.72180841  *   0.01690540  *   0.61862568  *
     7       C         -2.95462703  *  -0.81042179  *   0.98129633  *
     8       C         -2.01387017  *   0.90304727  *  -0.60281029  *
     9       O         -2.98136008  *   1.88514605  *  -0.28895685  *
    10       H          3.75567137  *   0.84011011  *  -0.30968617  *
    11       H          2.76832771  *   2.31476162  *  -0.40372199  *
    12       H          3.28727515  *   1.69196667  *   1.17807222  *
    13       H         -0.42040731  *  -1.61092239  *   1.23471242  *
    14       H          0.23354646  *  -2.42190536  *  -1.01271675  *
    15       H         -0.60524401  *  -1.09614005  *  -1.81752116  *
    16       H         -1.53241851  *  -2.31822803  *  -0.93222322  *
    17       H         -1.47503901  *   0.68255489  *   1.48422609  *
    18       H         -3.20662444  *  -1.53465643  *   0.19854474  *
    19       H         -3.83192884  *  -0.15952980  *   1.10781896  *
    20       H         -2.81212476  *  -1.36344240  *   1.91523009  *
    21       H         -1.10088844  *   1.40514230  *  -0.97134392  *
    22       H         -2.49326640  *   0.34557896  *  -1.42786804  *
    23       H         -2.69678140  *   2.41980183  *   0.47600014  *



          CARTESIAN COORDINATES 

    NO.       ATOM           X           Y           Z

     1         C          2.9274      1.3876      0.1779
     2         C          1.7444      0.5977      0.2532
     3         C          0.7020     -0.0980      0.3114
     4         C         -0.4898     -0.8952      0.3657
     5         C         -0.6105     -1.7276     -0.9224
     6         C         -1.7218      0.0169      0.6186
     7         C         -2.9546     -0.8104      0.9813
     8         C         -2.0139      0.9030     -0.6028
     9         O         -2.9814      1.8851     -0.2890
    10         H          3.7557      0.8401     -0.3097
    11         H          2.7683      2.3148     -0.4037
    12         H          3.2873      1.6920      1.1781
    13         H         -0.4204     -1.6109      1.2347
    14         H          0.2335     -2.4219     -1.0127
    15         H         -0.6052     -1.0961     -1.8175
    16         H         -1.5324     -2.3182     -0.9322
    17         H         -1.4750      0.6826      1.4842
    18         H         -3.2066     -1.5347      0.1985
    19         H         -3.8319     -0.1595      1.1078
    20         H         -2.8121     -1.3634      1.9152
    21         H         -1.1009      1.4051     -0.9713
    22         H         -2.4933      0.3456     -1.4279
    23         H         -2.6968      2.4198      0.4760

 General Reference for PM7:
 "Optimization of Parameters for Semiempirical Methods VI: More Modifications to the 
 NDDO Approximations and Re-optimization of Parameters", J. J. P. Stewart, J. Mol. Mod., 1:32, 19 (2013)
 https://link.springer.com/article/10.1007/s00894-012-1667-x

           Empirical Formula: C8 H14 O  =    23 atoms



      MOLECULAR POINT GROUP   :   C1  


      RHF CALCULATION, NO. OF DOUBLY OCCUPIED LEVELS = 26

  SCF CRITERION =    0.1000E-07

 -------------------------------------------------------------------------------
 PM7 1SCF GRADIENTS DISP RELSCF=0.0001
 Title: ASE calculation



     1SCF WAS SPECIFIED, SO BFGS WAS NOT USED                 
     SCF FIELD WAS ACHIEVED                                   


                              PM7 CALCULATION
                                                       MOPAC v23.2 Linux
                                                       Fri Sep 19 21:59:46 2025




          FINAL HEAT OF FORMATION =        -23.72917 KCAL/MOL =     -99.28286 KJ/MOL

          TOTAL ENERGY            =     -33812.98912 KCAL/MOL = ELECTRONIC ENERGY + CORE-CORE REPULSION
          ENERGY OF ATOMS         =      33782.22825 KCAL/MOL
                              SUM =        -30.76087 KCAL/MOL
          DISPERSION ENERGY       =         -2.38700 KCAL/MOL
                              SUM =        -33.14787 KCAL/MOL = FINAL HEAT OF FORMATION

     *    WARNING - An energy term is incorrect or missing!

     *    FINAL HEAT OF FORMATION     =    -23.72917 KCAL/MOL
     *    SUM OF CONTRIBUTIONS TO HoF =    -33.14787 KCAL/MOL
     *                     DIFFERENCE =      9.41870 KCAL/MOL



          TOTAL ENERGY            =      -1466.26998 EV
          ELECTRONIC ENERGY       =      -7438.53039 EV 
          CORE-CORE REPULSION     =       5972.26040 EV
          COSMO AREA              =        186.53 SQUARE ANGSTROMS
          COSMO VOLUME            =        186.28 CUBIC ANGSTROMS

          GRADIENT NORM           =          1.13651          =       0.23698 PER ATOM
          IONIZATION POTENTIAL    =          9.856838 EV
          HOMO LUMO ENERGIES (EV) =         -9.857  1.487
          NO. OF FILLED LEVELS    =         26
          MOLECULAR WEIGHT        =        126.1980         POINT GROUP:  C1  

          MOLECULAR DIMENSIONS (Angstroms)

            Atom       Atom       Distance
            H    19    H    10     7.78333
            H    23    H    14     5.28825
            H    20    H    22     3.45360


          SCF CALCULATIONS        =          1

          WALL-CLOCK TIME         =      0.734 SECONDS
          COMPUTATION TIME        =      1.022 SECONDS

          LARGEST ATOMIC GRADIENTS

          Atom     Label                     Cartesian Gradients           Cartesian Coordinates       |Gradient|
                                           X          Y          Z        X          Y          Z

            21       H                   0.329      0.046      0.178   -1.10089    1.40514   -0.97134      0.377
             2       C                   0.280      0.059      0.241    1.74441    0.59770    0.25318      0.374
            13       H                  -0.284     -0.171     -0.031   -0.42041   -1.61092    1.23471      0.333
             9       O                  -0.253      0.124     -0.152   -2.98136    1.88515   -0.28896      0.320
            19       H                  -0.192      0.015      0.198   -3.83193   -0.15953    1.10782      0.276
            10       H                  -0.248     -0.076     -0.004    3.75567    0.84011   -0.30969      0.260
            12       H                  -0.141     -0.052     -0.207    3.28728    1.69197    1.17807      0.256
             3       C                   0.108      0.186     -0.136    0.70199   -0.09802    0.31136      0.255
            18       H                   0.063     -0.149     -0.168   -3.20662   -1.53466    0.19854      0.233
            23       H                   0.052     -0.220      0.051   -2.69678    2.41980    0.47600      0.231



       FINAL  POINT  AND  DERIVATIVES

   PARAMETER     ATOM    TYPE            VALUE        GRADIENT
      1          1  C    CARTESIAN X     2.927441      0.150067  KCAL/ANGSTROM
      2          1  C    CARTESIAN Y     1.387558      0.079685  KCAL/ANGSTROM
      3          1  C    CARTESIAN Z     0.177935     -0.052423  KCAL/ANGSTROM
      4          2  C    CARTESIAN X     1.744406      0.279599  KCAL/ANGSTROM
      5          2  C    CARTESIAN Y     0.597697      0.059291  KCAL/ANGSTROM
      6          2  C    CARTESIAN Z     0.253177      0.241184  KCAL/ANGSTROM
      7          3  C    CARTESIAN X     0.701995      0.108228  KCAL/ANGSTROM
      8          3  C    CARTESIAN Y    -0.098021      0.185920  KCAL/ANGSTROM
      9          3  C    CARTESIAN Z     0.311358     -0.136361  KCAL/ANGSTROM
     10          4  C    CARTESIAN X    -0.489803      0.126102  KCAL/ANGSTROM
     11          4  C    CARTESIAN Y    -0.895186      0.064950  KCAL/ANGSTROM
     12          4  C    CARTESIAN Z     0.365732      0.128237  KCAL/ANGSTROM
     13          5  C    CARTESIAN X    -0.610479     -0.044894  KCAL/ANGSTROM
     14          5  C    CARTESIAN Y    -1.727648      0.063147  KCAL/ANGSTROM
     15          5  C    CARTESIAN Z    -0.922363      0.056224  KCAL/ANGSTROM
     16          6  C    CARTESIAN X    -1.721808      0.073274  KCAL/ANGSTROM
     17          6  C    CARTESIAN Y     0.016905      0.174765  KCAL/ANGSTROM
     18          6  C    CARTESIAN Z     0.618626      0.059005  KCAL/ANGSTROM
     19          7  C    CARTESIAN X    -2.954627      0.051789  KCAL/ANGSTROM
     20          7  C    CARTESIAN Y    -0.810422      0.064405  KCAL/ANGSTROM
     21          7  C    CARTESIAN Z     0.981296     -0.033040  KCAL/ANGSTROM
     22          8  C    CARTESIAN X    -2.013870     -0.051420  KCAL/ANGSTROM
     23          8  C    CARTESIAN Y     0.903047      0.143713  KCAL/ANGSTROM
     24          8  C    CARTESIAN Z    -0.602810     -0.122907  KCAL/ANGSTROM
     25          9  O    CARTESIAN X    -2.981360     -0.253227  KCAL/ANGSTROM
     26          9  O    CARTESIAN Y     1.885146      0.123876  KCAL/ANGSTROM
     27          9  O    CARTESIAN Z    -0.288957     -0.152429  KCAL/ANGSTROM
     28         10  H    CARTESIAN X     3.755671     -0.248462  KCAL/ANGSTROM
     29         10  H    CARTESIAN Y     0.840110     -0.076204  KCAL/ANGSTROM
     30         10  H    CARTESIAN Z    -0.309686     -0.004482  KCAL/ANGSTROM
     31         11  H    CARTESIAN X     2.768328     -0.079171  KCAL/ANGSTROM
     32         11  H    CARTESIAN Y     2.314762     -0.151713  KCAL/ANGSTROM
     33         11  H    CARTESIAN Z    -0.403722      0.063024  KCAL/ANGSTROM
     34         12  H    CARTESIAN X     3.287275     -0.141411  KCAL/ANGSTROM
     35         12  H    CARTESIAN Y     1.691967     -0.052316  KCAL/ANGSTROM
     36         12  H    CARTESIAN Z     1.178072     -0.207485  KCAL/ANGSTROM
     37         13  H    CARTESIAN X    -0.420407     -0.284341  KCAL/ANGSTROM
     38         13  H    CARTESIAN Y    -1.610922     -0.170582  KCAL/ANGSTROM
     39         13  H    CARTESIAN Z     1.234712     -0.031284  KCAL/ANGSTROM
     40         14  H    CARTESIAN X     0.233546      0.067611  KCAL/ANGSTROM
     41         14  H    CARTESIAN Y    -2.421905      0.141422  KCAL/ANGSTROM
     42         14  H    CARTESIAN Z    -1.012717      0.148801  KCAL/ANGSTROM
     43         15  H    CARTESIAN X    -0.605244     -0.025891  KCAL/ANGSTROM
     44         15  H    CARTESIAN Y    -1.096140     -0.115324  KCAL/ANGSTROM
     45         15  H    CARTESIAN Z    -1.817521     -0.197054  KCAL/ANGSTROM
     46         16  H    CARTESIAN X    -1.532419     -0.054931  KCAL/ANGSTROM
     47         16  H    CARTESIAN Y    -2.318228     -0.112885  KCAL/ANGSTROM
     48         16  H    CARTESIAN Z    -0.932223     -0.166045  KCAL/ANGSTROM
     49         17  H    CARTESIAN X    -1.475039      0.083931  KCAL/ANGSTROM
     50         17  H    CARTESIAN Y     0.682555      0.055732  KCAL/ANGSTROM
     51         17  H    CARTESIAN Z     1.484226      0.141679  KCAL/ANGSTROM
     52         18  H    CARTESIAN X    -3.206624      0.062964  KCAL/ANGSTROM
     53         18  H    CARTESIAN Y    -1.534656     -0.149151  KCAL/ANGSTROM
     54         18  H    CARTESIAN Z     0.198545     -0.167506  KCAL/ANGSTROM
     55         19  H    CARTESIAN X    -3.831929     -0.191592  KCAL/ANGSTROM
     56         19  H    CARTESIAN Y    -0.159530      0.014562  KCAL/ANGSTROM
     57         19  H    CARTESIAN Z     1.107819      0.198288  KCAL/ANGSTROM
     58         20  H    CARTESIAN X    -2.812125      0.056677  KCAL/ANGSTROM
     59         20  H    CARTESIAN Y    -1.363442     -0.048143  KCAL/ANGSTROM
     60         20  H    CARTESIAN Z     1.915230      0.101070  KCAL/ANGSTROM
     61         21  H    CARTESIAN X    -1.100888      0.329316  KCAL/ANGSTROM
     62         21  H    CARTESIAN Y     1.405142      0.046284  KCAL/ANGSTROM
     63         21  H    CARTESIAN Z    -0.971344      0.178186  KCAL/ANGSTROM
     64         22  H    CARTESIAN X    -2.493266     -0.066503  KCAL/ANGSTROM
     65         22  H    CARTESIAN Y     0.345579     -0.121894  KCAL/ANGSTROM
     66         22  H    CARTESIAN Z    -1.427868     -0.095632  KCAL/ANGSTROM
     67         23  H    CARTESIAN X    -2.696781      0.052282  KCAL/ANGSTROM
     68         23  H    CARTESIAN Y     2.419802     -0.219542  KCAL/ANGSTROM
     69         23  H    CARTESIAN Z     0.476000      0.050946  KCAL/ANGSTROM




   ATOM   CHEMICAL          X               Y               Z
  NUMBER   SYMBOL      (ANGSTROMS)     (ANGSTROMS)     (ANGSTROMS)

     1       C          2.92744063  *   1.38755840  *   0.17793468  *
     2       C          1.74440611  *   0.59769714  *   0.25317661  *
     3       C          0.70199499  *  -0.09802108  *   0.31135792  *
     4       C         -0.48980327  *  -0.89518616  *   0.36573173  *
     5       C         -0.61047879  *  -1.72764753  *  -0.92236322  *
     6       C         -1.72180841  *   0.01690540  *   0.61862568  *
     7       C         -2.95462703  *  -0.81042179  *   0.98129633  *
     8       C         -2.01387017  *   0.90304727  *  -0.60281029  *
     9       O         -2.98136008  *   1.88514605  *  -0.28895685  *
    10       H          3.75567137  *   0.84011011  *  -0.30968617  *
    11       H          2.76832771  *   2.31476162  *  -0.40372199  *
    12       H          3.28727515  *   1.69196667  *   1.17807222  *
    13       H         -0.42040731  *  -1.61092239  *   1.23471242  *
    14       H          0.23354646  *  -2.42190536  *  -1.01271675  *
    15       H         -0.60524401  *  -1.09614005  *  -1.81752116  *
    16       H         -1.53241851  *  -2.31822803  *  -0.93222322  *
    17       H         -1.47503901  *   0.68255489  *   1.48422609  *
    18       H         -3.20662444  *  -1.53465643  *   0.19854474  *
    19       H         -3.83192884  *  -0.15952980  *   1.10781896  *
    20       H         -2.81212476  *  -1.36344240  *   1.91523009  *
    21       H         -1.10088844  *   1.40514230  *  -0.97134392  *
    22       H         -2.49326640  *   0.34557896  *  -1.42786804  *
    23       H         -2.69678140  *   2.41980183  *   0.47600014  *

                             CARTESIAN COORDINATES

   1    C        2.927440635     1.387558400     0.177934679
   2    C        1.744406107     0.597697136     0.253176610
   3    C        0.701994986    -0.098021082     0.311357919
   4    C       -0.489803273    -0.895186163     0.365731734
   5    C       -0.610478790    -1.727647529    -0.922363220
   6    C       -1.721808415     0.016905400     0.618625679
   7    C       -2.954627032    -0.810421788     0.981296329
   8    C       -2.013870172     0.903047265    -0.602810290
   9    O       -2.981360079     1.885146045    -0.288956849
  10    H        3.755671370     0.840110105    -0.309686174
  11    H        2.768327710     2.314761622    -0.403721985
  12    H        3.287275149     1.691966673     1.178072221
  13    H       -0.420407310    -1.610922393     1.234712418
  14    H        0.233546461    -2.421905359    -1.012716746
  15    H       -0.605244007    -1.096140050    -1.817521156
  16    H       -1.532418511    -2.318228027    -0.932223223
  17    H       -1.475039014     0.682554889     1.484226093
  18    H       -3.206624437    -1.534656433     0.198544744
  19    H       -3.831928843    -0.159529800     1.107818964
  20    H       -2.812124765    -1.363442399     1.915230093
  21    H       -1.100888435     1.405142300    -0.971343917
  22    H       -2.493266397     0.345578964    -1.427868039
  23    H       -2.696781397     2.419801834     0.476000142


           Empirical Formula: C8 H14 O  =    23 atoms



      MOLECULAR POINT GROUP   :   C1  


                  EIGENVALUES  
 -30.23583 -28.67143 -26.98021 -25.84392 -24.13260 -23.47732 -22.16352 -19.29148
 -17.20214 -16.69444 -16.02750 -15.45588 -15.17055 -14.73066 -14.63550 -14.09895
 -13.75871 -13.27476 -12.96726 -12.77660 -12.26692 -11.77023 -11.43242 -10.49516
 -10.00330  -9.85684   1.48708   1.55023   3.00763   3.86984   3.95118   4.07412
   4.37337   4.61015   5.07110   5.36666   5.37352   5.53434   5.65706   5.70646
   5.84699   5.90173   5.91060   6.00258   6.10996   6.33636   6.44627   6.88009
   6.97335   7.08947


              NET ATOMIC CHARGES AND DIPOLE CONTRIBUTIONS

  ATOM NO.   TYPE          CHARGE      No. of ELECS.   s-Pop       p-Pop       
    1          C          -0.397947        4.3979     1.03173     3.36621
    2          C          -0.079593        4.0796     1.09892     2.98067
    3          C          -0.142894        4.1429     1.11086     3.03203
    4          C          -0.062317        4.0623     1.04324     3.01907
    5          C          -0.437885        4.4379     1.05502     3.38287
    6          C          -0.137476        4.1375     1.07096     3.06652
    7          C          -0.445156        4.4452     1.05453     3.39063
    8          C          -0.008351        4.0084     1.08997     2.91838
    9          O          -0.549225        6.5492     1.84892     4.70031
   10          H           0.166410        0.8336     0.83359
   11          H           0.167170        0.8328     0.83283
   12          H           0.166500        0.8335     0.83350
   13          H           0.156833        0.8432     0.84317
   14          H           0.148570        0.8514     0.85143
   15          H           0.149521        0.8505     0.85048
   16          H           0.148897        0.8511     0.85110
   17          H           0.138952        0.8610     0.86105
   18          H           0.146230        0.8538     0.85377
   19          H           0.159529        0.8405     0.84047
   20          H           0.140300        0.8597     0.85970
   21          H           0.119776        0.8802     0.88022
   22          H           0.144031        0.8560     0.85597
   23          H           0.308125        0.6919     0.69188
 DIPOLE           X         Y         Z       TOTAL
 POINT-CHG.     1.842    -0.738     0.493     2.045
 HYBRID         0.059     0.282     0.244     0.378
 SUM            1.901    -0.456     0.737     2.089


          ATOMIC ORBITAL ELECTRON POPULATIONS

     Atom    s        px        py        pz   
    1  C   1.03173   1.06171   1.12630   1.17821
    2  C   1.09892   0.97290   0.99298   1.01479
    3  C   1.11086   0.99113   1.01327   1.02763
    4  C   1.04324   0.95008   1.01532   1.05368
    5  C   1.05502   1.17421   1.13283   1.07583
    6  C   1.07096   0.97399   1.02743   1.06511
    7  C   1.05453   1.08989   1.13804   1.16270
    8  C   1.08997   0.97646   0.92151   1.02042
    9  O   1.84892   1.53007   1.56254   1.60769
   10  H   0.83359
   11  H   0.83283
   12  H   0.83350
   13  H   0.84317
   14  H   0.85143
   15  H   0.85048
   16  H   0.85110
   17  H   0.86105
   18  H   0.85377
   19  H   0.84047
   20  H   0.85970
   21  H   0.88022
   22  H   0.85597
   23  H   0.69188

 **********************
 *                    *
 * JOB ENDED NORMALLY *
 *                    *
 **********************



 TOTAL JOB TIME:             1.11 SECONDS

 == MOPAC DONE ==
