 *******************************************************************************
 **                                                                           **
 **                              MOPAC v23.2                                  **
 **                                                                           **
 *******************************************************************************
 **          Digital Object Identifier (DOI): 10.5281/zenodo.6511958          **
 **    Visit the DOI location for information on how to cite this program.    **
 *******************************************************************************

                              PM7 CALCULATION RESULTS

 *******************************************************************************
 *  CALCULATION DONE: (MAX THREADS = 40)             Fri Sep 19 21:45:03 2025  *
 *  PM7        - The PM7 Hamiltonian to be used
 *  EPS=37.5   - USE ANDREAS KLAMT'S COSMO IMPLICIT SOLVATION MODEL
 *  1SCF       - DO 1 SCF AND THEN STOP 
 *  T=         - A TIME OF 172800.0 SECONDS REQUESTED
 *  DUMP=N     - RESTART FILE WRITTEN EVERY 7200.0 SECONDS REQUESTED
 *  RELSCF     - DEFAULT SCF CRITERION MULTIPLIED BY 0.0001
 *              (DEFAULT SCF CRITERION = 0.00010)
 *  GRADIENTS  - ALL GRADIENTS TO BE PRINTED
 *  DISP       - PRINT DISPERSION AND HYDROGEN BOND ENERGIES
 *******************************************************************************
PM7 1SCF GRADIENTS EPS=37.5 DISP RELSCF=0.0001
 Title: ASE calculation

   ATOM   CHEMICAL          X               Y               Z
  NUMBER   SYMBOL      (ANGSTROMS)     (ANGSTROMS)     (ANGSTROMS)

     1       C          3.14684192  *   0.10118084  *  -0.42111590  *
     2       C          1.72670952  *   0.06279791  *  -0.41252238  *
     3       C          0.44039017  *   0.02610668  *  -0.40965056  *
     4       C         -0.94140383  *  -0.03998207  *  -0.42696190  *
     5       C         -1.91754201  *   1.13352387  *  -0.41911797  *
     6       C         -2.04388583  *   0.10396276  *   0.68492830  *
     7       N         -2.64974428  *  -1.14989447  *   0.19983658  *
     8       C         -1.73561868  *  -1.30960757  *  -0.87549959  *
     9       O         -1.68778282  *  -2.11964081  *  -1.74111917  *
    10       H          3.53650482  *   1.11920998  *  -0.61349057  *
    11       H          3.57076007  *  -0.55785720  *  -1.20547525  *
    12       H          3.57923897  *  -0.23163278  *   0.54230210  *
    13       H         -1.52458812  *   2.11964081  *  -0.17527058  *
    14       H         -2.67149978  *   1.21955251  *  -1.19815763  *
    15       H         -1.98551292  *   0.28531945  *   1.74111917  *
    16       H         -3.57923897  *  -1.45982271  *   0.31763657  *



          CARTESIAN COORDINATES 

    NO.       ATOM           X           Y           Z

     1         C          3.1468      0.1012     -0.4211
     2         C          1.7267      0.0628     -0.4125
     3         C          0.4404      0.0261     -0.4097
     4         C         -0.9414     -0.0400     -0.4270
     5         C         -1.9175      1.1335     -0.4191
     6         C         -2.0439      0.1040      0.6849
     7         N         -2.6497     -1.1499      0.1998
     8         C         -1.7356     -1.3096     -0.8755
     9         O         -1.6878     -2.1196     -1.7411
    10         H          3.5365      1.1192     -0.6135
    11         H          3.5708     -0.5579     -1.2055
    12         H          3.5792     -0.2316      0.5423
    13         H         -1.5246      2.1196     -0.1753
    14         H         -2.6715      1.2196     -1.1982
    15         H         -1.9855      0.2853      1.7411
    16         H         -3.5792     -1.4598      0.3176

 General Reference for PM7:
 "Optimization of Parameters for Semiempirical Methods VI: More Modifications to the 
 NDDO Approximations and Re-optimization of Parameters", J. J. P. Stewart, J. Mol. Mod., 1:32, 19 (2013)
 https://link.springer.com/article/10.1007/s00894-012-1667-x

           Empirical Formula: C7 H7 N O  =    16 atoms



      MOLECULAR POINT GROUP   :   C1  


      RHF CALCULATION, NO. OF DOUBLY OCCUPIED LEVELS = 23

  SCF CRITERION =    0.1000E-07

 -------------------------------------------------------------------------------
 PM7 1SCF GRADIENTS EPS=37.5 DISP RELSCF=0.0001
 Title: ASE calculation



     1SCF WAS SPECIFIED, SO BFGS WAS NOT USED                 
     SCF FIELD WAS ACHIEVED                                   


                              PM7 CALCULATION
                                                       MOPAC v23.2 Linux
                                                       Fri Sep 19 21:45:04 2025




          FINAL HEAT OF FORMATION =         61.60000 KCAL/MOL =     257.73438 KJ/MOL

          TOTAL ENERGY            =     -33036.57919 KCAL/MOL = ELECTRONIC ENERGY + CORE-CORE REPULSION + SOLVATION ENERGY
          ENERGY OF ATOMS         =      33094.39424 KCAL/MOL
                              SUM =         57.81506 KCAL/MOL
          DISPERSION ENERGY       =         -1.32194 KCAL/MOL
          MM CORR. FOR -CO-NH-    =          0.48981 KCAL/MOL
                              SUM =         56.98292 KCAL/MOL = FINAL HEAT OF FORMATION

     *    WARNING - An energy term is incorrect or missing!

     *    FINAL HEAT OF FORMATION     =     61.60000 KCAL/MOL
     *    SUM OF CONTRIBUTIONS TO HoF =     56.98292 KCAL/MOL
     *                     DIFFERENCE =      4.61708 KCAL/MOL

          VAN DER WAALS AREA      =        165.84 SQUARE ANGSTROMS


          TOTAL ENERGY            =      -1432.60166 EV
          ELECTRONIC ENERGY       =      -1878.04298 EV 
          CORE-CORE REPULSION     =        445.44131 EV

          DIELECTRIC ENERGY       =         -0.50512 EV
          COSMO AREA              =        165.84 SQUARE ANGSTROMS
          COSMO VOLUME            =        152.80 CUBIC ANGSTROMS

          GRADIENT NORM           =         41.74244          =       10.43561 PER ATOM
          IONIZATION POTENTIAL    =          9.665113 EV
          HOMO LUMO ENERGIES (EV) =         -9.665  0.057
          NO. OF FILLED LEVELS    =         23
          MOLECULAR WEIGHT        =        121.1384         POINT GROUP:  C1  

          MOLECULAR DIMENSIONS (Angstroms)

            Atom       Atom       Distance
            H    16    H    10     7.62576
            H    13    O     9     4.30169
            H    12    H    14     3.59947


          SCF CALCULATIONS        =          2

          WALL-CLOCK TIME         =      0.477 SECONDS
          COMPUTATION TIME        =      0.418 SECONDS

          LARGEST ATOMIC GRADIENTS

          Atom     Label                     Cartesian Gradients           Cartesian Coordinates       |Gradient|
                                           X          Y          Z        X          Y          Z

             8       C                   8.733    -20.025    -23.209   -1.73562   -1.30961   -0.87550     31.874
             9       O                  -1.782     12.176     11.939   -1.68778   -2.11964   -1.74112     17.145
             7       N                 -10.779      5.911      8.892   -2.64974   -1.14989    0.19984     15.172
             1       C                   6.753      0.785      0.245    3.14684    0.10118   -0.42112      6.803
            16       H                   6.130      1.295      0.092   -3.57924   -1.45982    0.31764      6.266
             4       C                  -3.499      2.915      2.852   -0.94140   -0.03998   -0.42696      5.374
             6       C                  -1.095     -3.756      2.602   -2.04389    0.10396    0.68493      4.699
             2       C                  -4.241     -0.521     -0.109    1.72671    0.06280   -0.41252      4.274
             5       C                   0.138      3.814     -1.543   -1.91754    1.13352   -0.41912      4.116
             3       C                   2.585      1.310      0.656    0.44039    0.02611   -0.40965      2.972



       FINAL  POINT  AND  DERIVATIVES

   PARAMETER     ATOM    TYPE            VALUE        GRADIENT
      1          1  C    CARTESIAN X     3.146842      6.753298  KCAL/ANGSTROM
      2          1  C    CARTESIAN Y     0.101181      0.785078  KCAL/ANGSTROM
      3          1  C    CARTESIAN Z    -0.421116      0.245469  KCAL/ANGSTROM
      4          2  C    CARTESIAN X     1.726710     -4.240800  KCAL/ANGSTROM
      5          2  C    CARTESIAN Y     0.062798     -0.520995  KCAL/ANGSTROM
      6          2  C    CARTESIAN Z    -0.412522     -0.109172  KCAL/ANGSTROM
      7          3  C    CARTESIAN X     0.440390      2.585184  KCAL/ANGSTROM
      8          3  C    CARTESIAN Y     0.026107      1.310018  KCAL/ANGSTROM
      9          3  C    CARTESIAN Z    -0.409651      0.656275  KCAL/ANGSTROM
     10          4  C    CARTESIAN X    -0.941404     -3.499182  KCAL/ANGSTROM
     11          4  C    CARTESIAN Y    -0.039982      2.915487  KCAL/ANGSTROM
     12          4  C    CARTESIAN Z    -0.426962      2.851847  KCAL/ANGSTROM
     13          5  C    CARTESIAN X    -1.917542      0.137882  KCAL/ANGSTROM
     14          5  C    CARTESIAN Y     1.133524      3.813659  KCAL/ANGSTROM
     15          5  C    CARTESIAN Z    -0.419118     -1.543335  KCAL/ANGSTROM
     16          6  C    CARTESIAN X    -2.043886     -1.094947  KCAL/ANGSTROM
     17          6  C    CARTESIAN Y     0.103963     -3.756001  KCAL/ANGSTROM
     18          6  C    CARTESIAN Z     0.684928      2.602491  KCAL/ANGSTROM
     19          7  N    CARTESIAN X    -2.649744    -10.778583  KCAL/ANGSTROM
     20          7  N    CARTESIAN Y    -1.149894      5.910633  KCAL/ANGSTROM
     21          7  N    CARTESIAN Z     0.199837      8.891785  KCAL/ANGSTROM
     22          8  C    CARTESIAN X    -1.735619      8.732940  KCAL/ANGSTROM
     23          8  C    CARTESIAN Y    -1.309608    -20.024979  KCAL/ANGSTROM
     24          8  C    CARTESIAN Z    -0.875500    -23.209275  KCAL/ANGSTROM
     25          9  O    CARTESIAN X    -1.687783     -1.782135  KCAL/ANGSTROM
     26          9  O    CARTESIAN Y    -2.119641     12.175883  KCAL/ANGSTROM
     27          9  O    CARTESIAN Z    -1.741119     11.938599  KCAL/ANGSTROM
     28         10  H    CARTESIAN X     3.536505     -1.339319  KCAL/ANGSTROM
     29         10  H    CARTESIAN Y     1.119210     -0.756263  KCAL/ANGSTROM
     30         10  H    CARTESIAN Z    -0.613491      0.091476  KCAL/ANGSTROM
     31         11  H    CARTESIAN X     3.570760     -1.543836  KCAL/ANGSTROM
     32         11  H    CARTESIAN Y    -0.557857      0.137690  KCAL/ANGSTROM
     33         11  H    CARTESIAN Z    -1.205475      0.410380  KCAL/ANGSTROM
     34         12  H    CARTESIAN X     3.579239     -1.411943  KCAL/ANGSTROM
     35         12  H    CARTESIAN Y    -0.231633      0.041205  KCAL/ANGSTROM
     36         12  H    CARTESIAN Z     0.542302     -0.728044  KCAL/ANGSTROM
     37         13  H    CARTESIAN X    -1.524588      0.030140  KCAL/ANGSTROM
     38         13  H    CARTESIAN Y     2.119641     -1.828472  KCAL/ANGSTROM
     39         13  H    CARTESIAN Z    -0.175271     -0.785098  KCAL/ANGSTROM
     40         14  H    CARTESIAN X    -2.671500      1.156690  KCAL/ANGSTROM
     41         14  H    CARTESIAN Y     1.219553     -0.705448  KCAL/ANGSTROM
     42         14  H    CARTESIAN Z    -1.198158      1.155800  KCAL/ANGSTROM
     43         15  H    CARTESIAN X    -1.985513      0.164574  KCAL/ANGSTROM
     44         15  H    CARTESIAN Y     0.285319     -0.792255  KCAL/ANGSTROM
     45         15  H    CARTESIAN Z     1.741119     -2.561063  KCAL/ANGSTROM
     46         16  H    CARTESIAN X    -3.579239      6.130031  KCAL/ANGSTROM
     47         16  H    CARTESIAN Y    -1.459823      1.294756  KCAL/ANGSTROM
     48         16  H    CARTESIAN Z     0.317637      0.091863  KCAL/ANGSTROM




   ATOM   CHEMICAL          X               Y               Z
  NUMBER   SYMBOL      (ANGSTROMS)     (ANGSTROMS)     (ANGSTROMS)

     1       C          3.14684192  *   0.10118084  *  -0.42111590  *
     2       C          1.72670952  *   0.06279791  *  -0.41252238  *
     3       C          0.44039017  *   0.02610668  *  -0.40965056  *
     4       C         -0.94140383  *  -0.03998207  *  -0.42696190  *
     5       C         -1.91754201  *   1.13352387  *  -0.41911797  *
     6       C         -2.04388583  *   0.10396276  *   0.68492830  *
     7       N         -2.64974428  *  -1.14989447  *   0.19983658  *
     8       C         -1.73561868  *  -1.30960757  *  -0.87549959  *
     9       O         -1.68778282  *  -2.11964081  *  -1.74111917  *
    10       H          3.53650482  *   1.11920998  *  -0.61349057  *
    11       H          3.57076007  *  -0.55785720  *  -1.20547525  *
    12       H          3.57923897  *  -0.23163278  *   0.54230210  *
    13       H         -1.52458812  *   2.11964081  *  -0.17527058  *
    14       H         -2.67149978  *   1.21955251  *  -1.19815763  *
    15       H         -1.98551292  *   0.28531945  *   1.74111917  *
    16       H         -3.57923897  *  -1.45982271  *   0.31763657  *

                             CARTESIAN COORDINATES

   1    C        3.146841916     0.101180837    -0.421115897
   2    C        1.726709518     0.062797907    -0.412522384
   3    C        0.440390166     0.026106682    -0.409650564
   4    C       -0.941403828    -0.039982072    -0.426961902
   5    C       -1.917542014     1.133523870    -0.419117967
   6    C       -2.043885828     0.103962764     0.684928304
   7    N       -2.649744278    -1.149894471     0.199836577
   8    C       -1.735618680    -1.309607567    -0.875499590
   9    O       -1.687782820    -2.119640807    -1.741119167
  10    H        3.536504816     1.119209984    -0.613490568
  11    H        3.570760074    -0.557857199    -1.205475247
  12    H        3.579238974    -0.231632780     0.542302103
  13    H       -1.524588124     2.119640807    -0.175270583
  14    H       -2.671499775     1.219552508    -1.198157626
  15    H       -1.985512920     0.285319453     1.741119167
  16    H       -3.579238974    -1.459822710     0.317636572


           Empirical Formula: C7 H7 N O  =    16 atoms



      MOLECULAR POINT GROUP   :   C1  


                  EIGENVALUES  
 -37.87939 -31.62826 -29.80978 -27.19661 -24.87826 -23.36479 -21.43739 -20.51401
 -17.85567 -17.41425 -16.75182 -15.81749 -14.99970 -14.84307 -14.79832 -14.23327
 -14.02512 -13.26190 -12.54868 -11.73065 -10.66255 -10.09360  -9.66511   0.05749
   0.51277   0.76521   1.68705   2.17793   2.32066   3.03369   3.47972   3.83883
   3.89148   4.59993   4.82971   5.26606   5.34619   5.35490   5.52570   5.83797
   5.96919   6.65654   6.72508


              NET ATOMIC CHARGES AND DIPOLE CONTRIBUTIONS

  ATOM NO.   TYPE          CHARGE      No. of ELECS.   s-Pop       p-Pop       
    1          C          -0.433681        4.4337     1.03595     3.39773
    2          C           0.024643        3.9754     1.11958     2.85577
    3          C          -0.196575        4.1966     1.07225     3.12433
    4          C          -0.120059        4.1201     1.04270     3.07736
    5          C          -0.306330        4.3063     1.07561     3.23072
    6          C           0.064584        3.9354     1.08133     2.85408
    7          N          -0.627007        5.6270     1.59871     4.02830
    8          C           0.642547        3.3575     1.10678     2.25067
    9          O          -0.544129        6.5441     1.86464     4.67949
   10          H           0.189511        0.8105     0.81049
   11          H           0.194409        0.8056     0.80559
   12          H           0.190198        0.8098     0.80980
   13          H           0.188421        0.8116     0.81158
   14          H           0.187924        0.8121     0.81208
   15          H           0.197136        0.8029     0.80286
   16          H           0.348409        0.6516     0.65159
 DIPOLE           X         Y         Z       TOTAL
 POINT-CHG.     1.161     4.253     3.289     5.500
 HYBRID        -0.548    -0.292    -0.312     0.696
 SUM            0.612     3.961     2.976     4.992


          ATOMIC ORBITAL ELECTRON POPULATIONS

     Atom    s        px        py        pz   
    1  C   1.03595   0.99386   1.20166   1.20221
    2  C   1.11958   0.95222   0.94844   0.95511
    3  C   1.07225   0.94959   1.08959   1.08515
    4  C   1.04270   0.94449   1.01606   1.11681
    5  C   1.07561   1.08470   1.04445   1.10157
    6  C   1.08133   0.93625   0.89058   1.02725
    7  N   1.59871   1.30797   1.33448   1.38586
    8  C   1.10678   0.77574   0.77602   0.69892
    9  O   1.86464   1.76529   1.48396   1.43025
   10  H   0.81049
   11  H   0.80559
   12  H   0.80980
   13  H   0.81158
   14  H   0.81208
   15  H   0.80286
   16  H   0.65159

 **********************
 *                    *
 * JOB ENDED NORMALLY *
 *                    *
 **********************



 TOTAL JOB TIME:             0.86 SECONDS

 == MOPAC DONE ==
