 *******************************************************************************
 **                                                                           **
 **                              MOPAC v23.2                                  **
 **                                                                           **
 *******************************************************************************
 **          Digital Object Identifier (DOI): 10.5281/zenodo.6511958          **
 **    Visit the DOI location for information on how to cite this program.    **
 *******************************************************************************

                              PM7 CALCULATION RESULTS

 *******************************************************************************
 *  CALCULATION DONE: (MAX THREADS = 40)             Fri Sep 19 21:29:16 2025  *
 *  PM7        - The PM7 Hamiltonian to be used
 *
 *
 *
 *                 CHARGE ON SYSTEM = +1
 *
 *
 *
 *  1SCF       - DO 1 SCF AND THEN STOP 
 *  T=         - A TIME OF 172800.0 SECONDS REQUESTED
 *  DUMP=N     - RESTART FILE WRITTEN EVERY 7200.0 SECONDS REQUESTED
 *  RELSCF     - DEFAULT SCF CRITERION MULTIPLIED BY 0.0001
 *              (DEFAULT SCF CRITERION = 0.00010)
 *  GRADIENTS  - ALL GRADIENTS TO BE PRINTED
 *  DISP       - PRINT DISPERSION AND HYDROGEN BOND ENERGIES
 *******************************************************************************
PM7 1SCF GRADIENTS DISP RELSCF=0.0001 CHARGE=1
 Title: ASE calculation

   ATOM   CHEMICAL          X               Y               Z
  NUMBER   SYMBOL      (ANGSTROMS)     (ANGSTROMS)     (ANGSTROMS)

     1       C         -2.40789014  *  -0.26199399  *   0.72558647  *
     2       C         -1.23875356  *   0.66144308  *   1.04975867  *
     3       C         -0.04163807  *   0.34887792  *   0.14055440  *
     4       C         -0.27992343  *   0.64954906  *  -1.32052050  *
     5       C          0.67247879  *  -0.95418549  *   0.43944420  *
     6       C          2.01217250  *  -0.59924015  *   1.02803477  *
     7       O          2.86784747  *  -1.32068141  *   1.42078708  *
     8       C          2.07956705  *   0.92939011  *   1.03474560  *
     9       O          0.90922122  *   1.43599434  *   0.51764158  *
    10       H         -2.80888053  *  -0.09902749  *  -0.28429551  *
    11       H         -3.24835526  *  -0.08210586  *   1.42042005  *
    12       H         -2.15336358  *  -1.32498710  *   0.82128211  *
    13       H         -0.95970781  *   0.54705212  *   2.11927652  *
    14       H         -1.56332677  *   1.71982413  *   0.93171307  *
    15       H         -1.04382169  *  -0.04026001  *  -1.73517441  *
    16       H         -0.67600835  *   1.66375567  *  -1.50197740  *
    17       H          0.61528694  *   0.52522142  *  -1.94873051  *
    18       H          0.10100660  *  -1.61166798  *   1.14047601  *
    19       H          0.79939800  *  -1.60361659  *  -0.46102684  *
    20       H          2.24204952  *   1.38358996  *   2.05498537  *
    21       H          2.93818073  *   1.35876357  *   0.44128502  *



          CARTESIAN COORDINATES 

    NO.       ATOM           X           Y           Z

     1         C         -2.4079     -0.2620      0.7256
     2         C         -1.2388      0.6614      1.0498
     3         C         -0.0416      0.3489      0.1406
     4         C         -0.2799      0.6495     -1.3205
     5         C          0.6725     -0.9542      0.4394
     6         C          2.0122     -0.5992      1.0280
     7         O          2.8678     -1.3207      1.4208
     8         C          2.0796      0.9294      1.0347
     9         O          0.9092      1.4360      0.5176
    10         H         -2.8089     -0.0990     -0.2843
    11         H         -3.2484     -0.0821      1.4204
    12         H         -2.1534     -1.3250      0.8213
    13         H         -0.9597      0.5471      2.1193
    14         H         -1.5633      1.7198      0.9317
    15         H         -1.0438     -0.0403     -1.7352
    16         H         -0.6760      1.6638     -1.5020
    17         H          0.6153      0.5252     -1.9487
    18         H          0.1010     -1.6117      1.1405
    19         H          0.7994     -1.6036     -0.4610
    20         H          2.2420      1.3836      2.0550
    21         H          2.9382      1.3588      0.4413

 General Reference for PM7:
 "Optimization of Parameters for Semiempirical Methods VI: More Modifications to the 
 NDDO Approximations and Re-optimization of Parameters", J. J. P. Stewart, J. Mol. Mod., 1:32, 19 (2013)
 https://link.springer.com/article/10.1007/s00894-012-1667-x

           Empirical Formula: C7 H12 O2  =    21 atoms



      MOLECULAR POINT GROUP   :   C1  


          UHF CALCULATION, NO. OF ALPHA ELECTRONS =   26
                           NO. OF BETA  ELECTRONS =   25
  SCF CRITERION =    0.1000E-07

 -------------------------------------------------------------------------------
 PM7 1SCF GRADIENTS DISP RELSCF=0.0001 CHARGE=1
 Title: ASE calculation



     1SCF WAS SPECIFIED, SO BFGS WAS NOT USED                 
     SCF FIELD WAS ACHIEVED                                   


                              PM7 CALCULATION
                                                       MOPAC v23.2 Linux
                                                       Fri Sep 19 21:29:17 2025




          FINAL HEAT OF FORMATION =        113.27697 KCAL/MOL =     473.95084 KJ/MOL

          TOTAL ENERGY            =     -36981.87968 KCAL/MOL = ELECTRONIC ENERGY + CORE-CORE REPULSION
          ENERGY OF ATOMS         =      37097.27293 KCAL/MOL
                              SUM =        115.39326 KCAL/MOL
          DISPERSION ENERGY       =         -2.11629 KCAL/MOL
                              SUM =        113.27697 KCAL/MOL = FINAL HEAT OF FORMATION



          TOTAL ENERGY            =      -1603.68609 EV
          ELECTRONIC ENERGY       =      -8023.20866 EV 
          CORE-CORE REPULSION     =       6419.52257 EV
          COSMO AREA              =        167.20 SQUARE ANGSTROMS
          COSMO VOLUME            =        169.83 CUBIC ANGSTROMS

          GRADIENT NORM           =          1.04393          =       0.22780 PER ATOM
          IONIZATION POTENTIAL    =         15.178467 EV
          ALPHA SOMO LUMO (EV)    =        -15.191 -5.125
          BETA  SOMO LUMO (EV)    =        -15.178 -8.285
          NO. OF ALPHA ELECTRONS  =         26
          NO. OF BETA  ELECTRONS  =         25
          MOLECULAR WEIGHT        =        128.1706         POINT GROUP:  C1  

          MOLECULAR DIMENSIONS (Angstroms)

            Atom       Atom       Distance
            H    21    H    11     6.42713
            H    16    O     7     4.97320
            H    19    H    20     3.81126


          SCF CALCULATIONS        =          1

          WALL-CLOCK TIME         =      1.031 SECONDS
          COMPUTATION TIME        =      1.457 SECONDS

          LARGEST ATOMIC GRADIENTS

          Atom     Label                     Cartesian Gradients           Cartesian Coordinates       |Gradient|
                                           X          Y          Z        X          Y          Z

            20       H                   0.178     -0.006      0.317    2.24205    1.38359    2.05499      0.364
            18       H                  -0.159      0.317      0.039    0.10101   -1.61167    1.14048      0.357
             9       O                  -0.126      0.229     -0.237    0.90922    1.43599    0.51764      0.353
             7       O                   0.205     -0.097      0.206    2.86785   -1.32068    1.42079      0.307
            10       H                   0.172      0.122     -0.183   -2.80888   -0.09903   -0.28430      0.279
            12       H                   0.186      0.040      0.169   -2.15336   -1.32499    0.82128      0.255
             3       C                   0.154      0.039     -0.197   -0.04164    0.34888    0.14055      0.253
            16       H                  -0.181      0.155      0.046   -0.67601    1.66376   -1.50198      0.242
            11       H                  -0.132     -0.151      0.105   -3.24836   -0.08211    1.42042      0.226
            19       H                   0.017     -0.169     -0.122    0.79940   -1.60362   -0.46103      0.209



       FINAL  POINT  AND  DERIVATIVES

   PARAMETER     ATOM    TYPE            VALUE        GRADIENT
      1          1  C    CARTESIAN X    -2.407890     -0.010804  KCAL/ANGSTROM
      2          1  C    CARTESIAN Y    -0.261994     -0.001845  KCAL/ANGSTROM
      3          1  C    CARTESIAN Z     0.725586     -0.033663  KCAL/ANGSTROM
      4          2  C    CARTESIAN X    -1.238754      0.106054  KCAL/ANGSTROM
      5          2  C    CARTESIAN Y     0.661443      0.016424  KCAL/ANGSTROM
      6          2  C    CARTESIAN Z     1.049759     -0.102757  KCAL/ANGSTROM
      7          3  C    CARTESIAN X    -0.041638      0.154170  KCAL/ANGSTROM
      8          3  C    CARTESIAN Y     0.348878      0.039175  KCAL/ANGSTROM
      9          3  C    CARTESIAN Z     0.140554     -0.196586  KCAL/ANGSTROM
     10          4  C    CARTESIAN X    -0.279923     -0.147772  KCAL/ANGSTROM
     11          4  C    CARTESIAN Y     0.649549      0.027939  KCAL/ANGSTROM
     12          4  C    CARTESIAN Z    -1.320520     -0.110663  KCAL/ANGSTROM
     13          5  C    CARTESIAN X     0.672479     -0.142794  KCAL/ANGSTROM
     14          5  C    CARTESIAN Y    -0.954185      0.001619  KCAL/ANGSTROM
     15          5  C    CARTESIAN Z     0.439444     -0.023329  KCAL/ANGSTROM
     16          6  C    CARTESIAN X     2.012172     -0.012500  KCAL/ANGSTROM
     17          6  C    CARTESIAN Y    -0.599240     -0.001442  KCAL/ANGSTROM
     18          6  C    CARTESIAN Z     1.028035      0.037063  KCAL/ANGSTROM
     19          7  O    CARTESIAN X     2.867847      0.205254  KCAL/ANGSTROM
     20          7  O    CARTESIAN Y    -1.320681     -0.096778  KCAL/ANGSTROM
     21          7  O    CARTESIAN Z     1.420787      0.206463  KCAL/ANGSTROM
     22          8  C    CARTESIAN X     2.079567      0.130022  KCAL/ANGSTROM
     23          8  C    CARTESIAN Y     0.929390     -0.133228  KCAL/ANGSTROM
     24          8  C    CARTESIAN Z     1.034746      0.059925  KCAL/ANGSTROM
     25          9  O    CARTESIAN X     0.909221     -0.125906  KCAL/ANGSTROM
     26          9  O    CARTESIAN Y     1.435994      0.228794  KCAL/ANGSTROM
     27          9  O    CARTESIAN Z     0.517642     -0.236858  KCAL/ANGSTROM
     28         10  H    CARTESIAN X    -2.808881      0.171535  KCAL/ANGSTROM
     29         10  H    CARTESIAN Y    -0.099027      0.121702  KCAL/ANGSTROM
     30         10  H    CARTESIAN Z    -0.284296     -0.183375  KCAL/ANGSTROM
     31         11  H    CARTESIAN X    -3.248355     -0.132231  KCAL/ANGSTROM
     32         11  H    CARTESIAN Y    -0.082106     -0.150743  KCAL/ANGSTROM
     33         11  H    CARTESIAN Z     1.420420      0.105299  KCAL/ANGSTROM
     34         12  H    CARTESIAN X    -2.153364      0.186060  KCAL/ANGSTROM
     35         12  H    CARTESIAN Y    -1.324987      0.040414  KCAL/ANGSTROM
     36         12  H    CARTESIAN Z     0.821282      0.168913  KCAL/ANGSTROM
     37         13  H    CARTESIAN X    -0.959708     -0.062166  KCAL/ANGSTROM
     38         13  H    CARTESIAN Y     0.547052     -0.153527  KCAL/ANGSTROM
     39         13  H    CARTESIAN Z     2.119277     -0.109591  KCAL/ANGSTROM
     40         14  H    CARTESIAN X    -1.563327     -0.177582  KCAL/ANGSTROM
     41         14  H    CARTESIAN Y     1.719824     -0.064098  KCAL/ANGSTROM
     42         14  H    CARTESIAN Z     0.931713      0.036704  KCAL/ANGSTROM
     43         15  H    CARTESIAN X    -1.043822     -0.081455  KCAL/ANGSTROM
     44         15  H    CARTESIAN Y    -0.040260     -0.080165  KCAL/ANGSTROM
     45         15  H    CARTESIAN Z    -1.735174      0.135976  KCAL/ANGSTROM
     46         16  H    CARTESIAN X    -0.676008     -0.180588  KCAL/ANGSTROM
     47         16  H    CARTESIAN Y     1.663756      0.155014  KCAL/ANGSTROM
     48         16  H    CARTESIAN Z    -1.501977      0.046154  KCAL/ANGSTROM
     49         17  H    CARTESIAN X     0.615287     -0.040360  KCAL/ANGSTROM
     50         17  H    CARTESIAN Y     0.525221     -0.046924  KCAL/ANGSTROM
     51         17  H    CARTESIAN Z    -1.948731      0.020046  KCAL/ANGSTROM
     52         18  H    CARTESIAN X     0.101007     -0.158731  KCAL/ANGSTROM
     53         18  H    CARTESIAN Y    -1.611668      0.316991  KCAL/ANGSTROM
     54         18  H    CARTESIAN Z     1.140476      0.039419  KCAL/ANGSTROM
     55         19  H    CARTESIAN X     0.799398      0.016697  KCAL/ANGSTROM
     56         19  H    CARTESIAN Y    -1.603617     -0.168887  KCAL/ANGSTROM
     57         19  H    CARTESIAN Z    -0.461027     -0.122145  KCAL/ANGSTROM
     58         20  H    CARTESIAN X     2.242050      0.178065  KCAL/ANGSTROM
     59         20  H    CARTESIAN Y     1.383590     -0.006366  KCAL/ANGSTROM
     60         20  H    CARTESIAN Z     2.054985      0.316866  KCAL/ANGSTROM
     61         21  H    CARTESIAN X     2.938181      0.125032  KCAL/ANGSTROM
     62         21  H    CARTESIAN Y     1.358764     -0.044075  KCAL/ANGSTROM
     63         21  H    CARTESIAN Z     0.441285     -0.053863  KCAL/ANGSTROM




   ATOM   CHEMICAL          X               Y               Z
  NUMBER   SYMBOL      (ANGSTROMS)     (ANGSTROMS)     (ANGSTROMS)

     1       C         -2.40789014  *  -0.26199399  *   0.72558647  *
     2       C         -1.23875356  *   0.66144308  *   1.04975867  *
     3       C         -0.04163807  *   0.34887792  *   0.14055440  *
     4       C         -0.27992343  *   0.64954906  *  -1.32052050  *
     5       C          0.67247879  *  -0.95418549  *   0.43944420  *
     6       C          2.01217250  *  -0.59924015  *   1.02803477  *
     7       O          2.86784747  *  -1.32068141  *   1.42078708  *
     8       C          2.07956705  *   0.92939011  *   1.03474560  *
     9       O          0.90922122  *   1.43599434  *   0.51764158  *
    10       H         -2.80888053  *  -0.09902749  *  -0.28429551  *
    11       H         -3.24835526  *  -0.08210586  *   1.42042005  *
    12       H         -2.15336358  *  -1.32498710  *   0.82128211  *
    13       H         -0.95970781  *   0.54705212  *   2.11927652  *
    14       H         -1.56332677  *   1.71982413  *   0.93171307  *
    15       H         -1.04382169  *  -0.04026001  *  -1.73517441  *
    16       H         -0.67600835  *   1.66375567  *  -1.50197740  *
    17       H          0.61528694  *   0.52522142  *  -1.94873051  *
    18       H          0.10100660  *  -1.61166798  *   1.14047601  *
    19       H          0.79939800  *  -1.60361659  *  -0.46102684  *
    20       H          2.24204952  *   1.38358996  *   2.05498537  *
    21       H          2.93818073  *   1.35876357  *   0.44128502  *

                             CARTESIAN COORDINATES

   1    C       -2.407890139    -0.261993995     0.725586474
   2    C       -1.238753560     0.661443082     1.049758670
   3    C       -0.041638067     0.348877916     0.140554397
   4    C       -0.279923432     0.649549058    -1.320520496
   5    C        0.672478787    -0.954185493     0.439444198
   6    C        2.012172497    -0.599240146     1.028034773
   7    O        2.867847469    -1.320681415     1.420787083
   8    C        2.079567047     0.929390110     1.034745601
   9    O        0.909221218     1.435994338     0.517641581
  10    H       -2.808880525    -0.099027494    -0.284295510
  11    H       -3.248355258    -0.082105859     1.420420050
  12    H       -2.153363581    -1.324987099     0.821282109
  13    H       -0.959707815     0.547052117     2.119276516
  14    H       -1.563326773     1.719824126     0.931713070
  15    H       -1.043821695    -0.040260007    -1.735174413
  16    H       -0.676008347     1.663755670    -1.501977401
  17    H        0.615286938     0.525221418    -1.948730513
  18    H        0.101006603    -1.611667983     1.140476015
  19    H        0.799397995    -1.603616590    -0.461026836
  20    H        2.242049522     1.383589962     2.054985370
  21    H        2.938180726     1.358763567     0.441285023


           Empirical Formula: C7 H12 O2  =    21 atoms



      MOLECULAR POINT GROUP   :   C1  


          ALPHA EIGENVALUES  
 -39.95666 -36.64497 -34.63954 -32.33457 -30.56795 -29.26537 -27.16467 -25.40028
 -24.39465 -22.91375 -22.62691 -21.22940 -20.67998 -20.39804 -19.83442 -19.74562
 -19.19860 -18.57637 -18.02783 -17.95230 -17.74041 -17.46922 -17.32675 -16.41241
 -16.25634 -15.19128  -5.12462  -4.14583  -3.05229  -2.47516  -1.71780  -1.65586
  -1.48192  -1.28186  -0.95991  -0.18471  -0.17572   0.20957   0.34148   0.75471
   0.80076   0.86152   1.29161   1.56715   1.82127   1.85668   2.07047   2.97165


           BETA EIGENVALUES 
 -37.41196 -36.50398 -34.08044 -31.82210 -30.48330 -29.07078 -26.97081 -25.24735
 -24.25173 -22.24265 -21.92922 -21.07132 -20.51093 -19.96647 -19.72675 -19.20798
 -18.98428 -18.43544 -17.97626 -17.86856 -17.46160 -17.27329 -16.45396 -16.27012
 -15.17847  -8.28475  -4.57345  -4.11554  -2.74164  -2.42858  -1.71201  -1.60930
  -1.42034  -1.25784  -0.75707  -0.15723  -0.07294   0.21489   0.34218   0.76142
   0.80971   0.86635   1.29246   1.57176   1.82335   1.85908   2.07163   2.97280


              NET ATOMIC CHARGES AND DIPOLE CONTRIBUTIONS

  ATOM NO.   TYPE          CHARGE      No. of ELECS.   s-Pop       p-Pop       
    1          C          -0.425798        4.4258     1.05170     3.37410
    2          C          -0.297966        4.2980     1.06998     3.22799
    3          C           0.189777        3.8102     1.12887     2.68135
    4          C          -0.495067        4.4951     1.06199     3.43308
    5          C          -0.454595        4.4546     1.08148     3.37312
    6          C           0.427315        3.5727     1.11881     2.45388
    7          O          -0.248950        6.2489     1.87793     4.37102
    8          C          -0.340473        4.3405     1.13566     3.20482
    9          O           0.194311        5.8057     1.90827     3.89742
   10          H           0.165713        0.8343     0.83429
   11          H           0.185664        0.8143     0.81434
   12          H           0.159940        0.8401     0.84006
   13          H           0.170539        0.8295     0.82946
   14          H           0.179626        0.8204     0.82037
   15          H           0.214898        0.7851     0.78510
   16          H           0.195462        0.8045     0.80454
   17          H           0.186666        0.8133     0.81333
   18          H           0.229814        0.7702     0.77019
   19          H           0.228496        0.7715     0.77150
   20          H           0.267006        0.7330     0.73299
   21          H           0.267621        0.7324     0.73238
 DIPOLE           X         Y         Z       TOTAL
 POINT-CHG.    -0.841     2.842    -0.927     3.105
 HYBRID         0.267     0.301    -0.002     0.403
 SUM           -0.574     3.143    -0.929     3.327


          ATOMIC ORBITAL ELECTRON POPULATIONS

     Atom    s        px        py        pz   
    1  C   1.05170   1.06512   1.10972   1.19925
    2  C   1.06998   0.98807   1.15075   1.08917
    3  C   1.12887   0.86431   0.83635   0.98069
    4  C   1.06199   1.22075   1.22689   0.98543
    5  C   1.08148   1.07088   1.07780   1.22444
    6  C   1.11881   0.85437   0.84607   0.75344
    7  O   1.87793   1.42637   1.60351   1.34114
    8  C   1.13566   0.92926   1.13428   1.14128
    9  O   1.90827   1.23291   1.43125   1.23326
   10  H   0.83429
   11  H   0.81434
   12  H   0.84006
   13  H   0.82946
   14  H   0.82037
   15  H   0.78510
   16  H   0.80454
   17  H   0.81333
   18  H   0.77019
   19  H   0.77150
   20  H   0.73299
   21  H   0.73238


                    (SZ)    =    0.500000
                    (S**2)  =    0.758436


          ATOMIC ORBITAL SPIN POPULATIONS

    Atom   Total    s     px     py     pz   
         Atomic
    1  C  0.0018 -0.000  0.002 -0.000 -0.000
    2  C  0.0407  0.004  0.023  0.001  0.013
    3  C -0.0440 -0.004 -0.024 -0.020  0.004
    4  C  0.0348  0.004  0.002  0.000  0.028
    5  C  0.0004 -0.000  0.001 -0.001  0.001
    6  C -0.0063 -0.001 -0.001 -0.000 -0.003
    7  O  0.0056  0.000  0.001 -0.000  0.005
    8  C  0.0006 -0.009 -0.024 -0.005  0.038
    9  O  0.8508  0.017  0.151  0.042  0.641
   10  H  0.0001  0.000
   11  H  0.0020  0.002
   12  H -0.0000 -0.000
   13  H -0.0010 -0.001
   14  H -0.0014 -0.001
   15  H  0.0002  0.000
   16  H -0.0011 -0.001
   17  H -0.0013 -0.001
   18  H  0.0002  0.000
   19  H  0.0004  0.000
   20  H  0.0593  0.059
   21  H  0.0583  0.058

 **********************
 *                    *
 * JOB ENDED NORMALLY *
 *                    *
 **********************



 TOTAL JOB TIME:             1.17 SECONDS

 == MOPAC DONE ==
