 *******************************************************************************
 **                                                                           **
 **                              MOPAC v23.2                                  **
 **                                                                           **
 *******************************************************************************
 **          Digital Object Identifier (DOI): 10.5281/zenodo.6511958          **
 **    Visit the DOI location for information on how to cite this program.    **
 *******************************************************************************

                              PM7 CALCULATION RESULTS

 *******************************************************************************
 *  CALCULATION DONE: (MAX THREADS = 40)             Fri Sep 19 21:39:14 2025  *
 *  PM7        - The PM7 Hamiltonian to be used
 *
 *
 *
 *                 CHARGE ON SYSTEM = +1
 *
 *
 *
 *  EPS=37.5   - USE ANDREAS KLAMT'S COSMO IMPLICIT SOLVATION MODEL
 *  1SCF       - DO 1 SCF AND THEN STOP 
 *  T=         - A TIME OF 172800.0 SECONDS REQUESTED
 *  DUMP=N     - RESTART FILE WRITTEN EVERY 7200.0 SECONDS REQUESTED
 *  RELSCF     - DEFAULT SCF CRITERION MULTIPLIED BY 0.0001
 *              (DEFAULT SCF CRITERION = 0.00010)
 *  GRADIENTS  - ALL GRADIENTS TO BE PRINTED
 *  DISP       - PRINT DISPERSION AND HYDROGEN BOND ENERGIES
 *******************************************************************************
PM7 1SCF GRADIENTS EPS=37.5 DISP RELSCF=0.0001 CHARGE=1
 Title: ASE calculation

   ATOM   CHEMICAL          X               Y               Z
  NUMBER   SYMBOL      (ANGSTROMS)     (ANGSTROMS)     (ANGSTROMS)

     1       C         -1.98638628  *  -1.32007787  *   1.16204253  *
     2       C         -1.61326272  *  -0.79469255  *  -0.21278164  *
     3       C         -0.51577299  *  -1.54862604  *  -0.94858201  *
     4       C          0.72320012  *  -0.62352989  *  -0.91832144  *
     5       C          1.77892821  *  -1.15249520  *   0.06287153  *
     6       O          1.12509896  *  -1.22652496  *   1.31728441  *
     7       C          0.14934234  *   0.74525925  *  -0.52616479  *
     8       C          0.88602095  *   1.60155329  *   0.47791729  *
     9       O         -1.14823922  *   0.53543236  *   0.02228833  *
    10       H         -2.51619851  *  -2.28653750  *   1.07881099  *
    11       H         -2.65003219  *  -0.64230285  *   1.72143386  *
    12       H         -1.09156977  *  -1.49960939  *   1.78759749  *
    13       H         -2.54359150  *  -0.62118127  *  -0.83293826  *
    14       H         -0.80551088  *  -1.80743156  *  -1.98629323  *
    15       H         -0.29366677  *  -2.52515722  *  -0.46267415  *
    16       H          1.19363171  *  -0.57033136  *  -1.93324301  *
    17       H          2.12896966  *  -2.16184421  *  -0.23193772  *
    18       H          2.65003219  *  -0.47489999  *   0.15066473  *
    19       H          1.70047514  *  -1.65937000  *   1.98629323  *
    20       H         -0.10116029  *   1.36430234  *  -1.45012175  *
    21       H          1.86979771  *   1.91645259  *   0.08767480  *
    22       H          0.34375805  *   2.52515722  *   0.73783562  *
    23       H          1.07769497  *   1.06557316  *   1.42727851  *



          CARTESIAN COORDINATES 

    NO.       ATOM           X           Y           Z

     1         C         -1.9864     -1.3201      1.1620
     2         C         -1.6133     -0.7947     -0.2128
     3         C         -0.5158     -1.5486     -0.9486
     4         C          0.7232     -0.6235     -0.9183
     5         C          1.7789     -1.1525      0.0629
     6         O          1.1251     -1.2265      1.3173
     7         C          0.1493      0.7453     -0.5262
     8         C          0.8860      1.6016      0.4779
     9         O         -1.1482      0.5354      0.0223
    10         H         -2.5162     -2.2865      1.0788
    11         H         -2.6500     -0.6423      1.7214
    12         H         -1.0916     -1.4996      1.7876
    13         H         -2.5436     -0.6212     -0.8329
    14         H         -0.8055     -1.8074     -1.9863
    15         H         -0.2937     -2.5252     -0.4627
    16         H          1.1936     -0.5703     -1.9332
    17         H          2.1290     -2.1618     -0.2319
    18         H          2.6500     -0.4749      0.1507
    19         H          1.7005     -1.6594      1.9863
    20         H         -0.1012      1.3643     -1.4501
    21         H          1.8698      1.9165      0.0877
    22         H          0.3438      2.5252      0.7378
    23         H          1.0777      1.0656      1.4273

 General Reference for PM7:
 "Optimization of Parameters for Semiempirical Methods VI: More Modifications to the 
 NDDO Approximations and Re-optimization of Parameters", J. J. P. Stewart, J. Mol. Mod., 1:32, 19 (2013)
 https://link.springer.com/article/10.1007/s00894-012-1667-x

           Empirical Formula: C7 H14 O2  =    23 atoms



      MOLECULAR POINT GROUP   :   C1  


          UHF CALCULATION, NO. OF ALPHA ELECTRONS =   27
                           NO. OF BETA  ELECTRONS =   26
  SCF CRITERION =    0.1000E-07

 -------------------------------------------------------------------------------
 PM7 1SCF GRADIENTS EPS=37.5 DISP RELSCF=0.0001 CHARGE=1
 Title: ASE calculation



     1SCF WAS SPECIFIED, SO BFGS WAS NOT USED                 
     SCF FIELD WAS ACHIEVED                                   


                              PM7 CALCULATION
                                                       MOPAC v23.2 Linux
                                                       Fri Sep 19 21:39:15 2025




          FINAL HEAT OF FORMATION =         41.99336 KCAL/MOL =     175.70022 KJ/MOL

          TOTAL ENERGY            =     -37667.53167 KCAL/MOL = ELECTRONIC ENERGY + CORE-CORE REPULSION + SOLVATION ENERGY
          ENERGY OF ATOMS         =      37712.04263 KCAL/MOL
                              SUM =         44.51096 KCAL/MOL
          DISPERSION ENERGY       =         -2.51760 KCAL/MOL
                              SUM =         41.99336 KCAL/MOL = FINAL HEAT OF FORMATION

          VAN DER WAALS AREA      =        166.06 SQUARE ANGSTROMS


          TOTAL ENERGY            =      -1633.41877 EV
          ELECTRONIC ENERGY       =      -2727.26481 EV 
          CORE-CORE REPULSION     =       1093.84604 EV

          DIELECTRIC ENERGY       =         -2.18433 EV
          COSMO AREA              =        166.06 SQUARE ANGSTROMS
          COSMO VOLUME            =        171.13 CUBIC ANGSTROMS

          GRADIENT NORM           =          9.52836          =       1.98680 PER ATOM
          IONIZATION POTENTIAL    =         10.977260 EV
          ALPHA SOMO LUMO (EV)    =        -10.977 -0.242
          BETA  SOMO LUMO (EV)    =        -10.979 -3.432
          NO. OF ALPHA ELECTRONS  =         27
          NO. OF BETA  ELECTRONS  =         26
          MOLECULAR WEIGHT        =        130.1864         POINT GROUP:  C1  

          MOLECULAR DIMENSIONS (Angstroms)

            Atom       Atom       Distance
            H    21    H    10     6.15503
            H    17    H    22     4.79109
            H    19    H    14     4.50876


          SCF CALCULATIONS        =          2

          WALL-CLOCK TIME         =      1.125 SECONDS
          COMPUTATION TIME        =      0.881 SECONDS

          LARGEST ATOMIC GRADIENTS

          Atom     Label                     Cartesian Gradients           Cartesian Coordinates       |Gradient|
                                           X          Y          Z        X          Y          Z

             7       C                   1.733      2.386     -2.114    0.14934    0.74526   -0.52616      3.628
             8       C                  -1.573     -0.309     -2.818    0.88602    1.60155    0.47792      3.242
             1       C                  -1.093      2.071     -2.167   -1.98639   -1.32008    1.16204      3.191
             3       C                  -0.881      2.199     -1.223   -0.51577   -1.54863   -0.94858      2.666
             5       C                   0.883     -0.930      2.122    1.77893   -1.15250    0.06287      2.479
             6       O                   0.339      0.511     -2.287    1.12510   -1.22652    1.31728      2.368
             9       O                  -2.099     -0.190      0.311   -1.14824    0.53543    0.02229      2.131
            23       H                   0.748     -0.416      1.826    1.07769    1.06557    1.42728      2.017
            12       H                   1.333     -0.597      1.210   -1.09157   -1.49961    1.78760      1.897
             2       C                  -1.138     -0.686     -1.048   -1.61326   -0.79469   -0.21278      1.693



       FINAL  POINT  AND  DERIVATIVES

   PARAMETER     ATOM    TYPE            VALUE        GRADIENT
      1          1  C    CARTESIAN X    -1.986386     -1.093197  KCAL/ANGSTROM
      2          1  C    CARTESIAN Y    -1.320078      2.070880  KCAL/ANGSTROM
      3          1  C    CARTESIAN Z     1.162043     -2.167277  KCAL/ANGSTROM
      4          2  C    CARTESIAN X    -1.613263     -1.138467  KCAL/ANGSTROM
      5          2  C    CARTESIAN Y    -0.794693     -0.686241  KCAL/ANGSTROM
      6          2  C    CARTESIAN Z    -0.212782     -1.047935  KCAL/ANGSTROM
      7          3  C    CARTESIAN X    -0.515773     -0.881016  KCAL/ANGSTROM
      8          3  C    CARTESIAN Y    -1.548626      2.198987  KCAL/ANGSTROM
      9          3  C    CARTESIAN Z    -0.948582     -1.222704  KCAL/ANGSTROM
     10          4  C    CARTESIAN X     0.723200      0.020735  KCAL/ANGSTROM
     11          4  C    CARTESIAN Y    -0.623530     -0.238821  KCAL/ANGSTROM
     12          4  C    CARTESIAN Z    -0.918321     -1.378413  KCAL/ANGSTROM
     13          5  C    CARTESIAN X     1.778928      0.882781  KCAL/ANGSTROM
     14          5  C    CARTESIAN Y    -1.152495     -0.930499  KCAL/ANGSTROM
     15          5  C    CARTESIAN Z     0.062872      2.121968  KCAL/ANGSTROM
     16          6  O    CARTESIAN X     1.125099      0.339367  KCAL/ANGSTROM
     17          6  O    CARTESIAN Y    -1.226525      0.511208  KCAL/ANGSTROM
     18          6  O    CARTESIAN Z     1.317284     -2.287138  KCAL/ANGSTROM
     19          7  C    CARTESIAN X     0.149342      1.733211  KCAL/ANGSTROM
     20          7  C    CARTESIAN Y     0.745259      2.385639  KCAL/ANGSTROM
     21          7  C    CARTESIAN Z    -0.526165     -2.113977  KCAL/ANGSTROM
     22          8  C    CARTESIAN X     0.886021     -1.572869  KCAL/ANGSTROM
     23          8  C    CARTESIAN Y     1.601553     -0.309246  KCAL/ANGSTROM
     24          8  C    CARTESIAN Z     0.477917     -2.818246  KCAL/ANGSTROM
     25          9  O    CARTESIAN X    -1.148239     -2.099344  KCAL/ANGSTROM
     26          9  O    CARTESIAN Y     0.535432     -0.189975  KCAL/ANGSTROM
     27          9  O    CARTESIAN Z     0.022288      0.310967  KCAL/ANGSTROM
     28         10  H    CARTESIAN X    -2.516199     -0.423995  KCAL/ANGSTROM
     29         10  H    CARTESIAN Y    -2.286538     -1.238832  KCAL/ANGSTROM
     30         10  H    CARTESIAN Z     1.078811      0.813986  KCAL/ANGSTROM
     31         11  H    CARTESIAN X    -2.650032     -0.445472  KCAL/ANGSTROM
     32         11  H    CARTESIAN Y    -0.642303     -0.344520  KCAL/ANGSTROM
     33         11  H    CARTESIAN Z     1.721434      1.418533  KCAL/ANGSTROM
     34         12  H    CARTESIAN X    -1.091570      1.333084  KCAL/ANGSTROM
     35         12  H    CARTESIAN Y    -1.499609     -0.597121  KCAL/ANGSTROM
     36         12  H    CARTESIAN Z     1.787597      1.209767  KCAL/ANGSTROM
     37         13  H    CARTESIAN X    -2.543592     -0.113823  KCAL/ANGSTROM
     38         13  H    CARTESIAN Y    -0.621181     -0.507657  KCAL/ANGSTROM
     39         13  H    CARTESIAN Z    -0.832938      1.121748  KCAL/ANGSTROM
     40         14  H    CARTESIAN X    -0.805511      0.329622  KCAL/ANGSTROM
     41         14  H    CARTESIAN Y    -1.807432     -1.364686  KCAL/ANGSTROM
     42         14  H    CARTESIAN Z    -1.986293     -0.453311  KCAL/ANGSTROM
     43         15  H    CARTESIAN X    -0.293667      0.688400  KCAL/ANGSTROM
     44         15  H    CARTESIAN Y    -2.525157     -1.117184  KCAL/ANGSTROM
     45         15  H    CARTESIAN Z    -0.462674      0.851188  KCAL/ANGSTROM
     46         16  H    CARTESIAN X     1.193632      0.127310  KCAL/ANGSTROM
     47         16  H    CARTESIAN Y    -0.570331     -0.400774  KCAL/ANGSTROM
     48         16  H    CARTESIAN Z    -1.933243      0.234517  KCAL/ANGSTROM
     49         17  H    CARTESIAN X     2.128970      0.217656  KCAL/ANGSTROM
     50         17  H    CARTESIAN Y    -2.161844     -0.663854  KCAL/ANGSTROM
     51         17  H    CARTESIAN Z    -0.231938     -0.536923  KCAL/ANGSTROM
     52         18  H    CARTESIAN X     2.650032      0.636199  KCAL/ANGSTROM
     53         18  H    CARTESIAN Y    -0.474900      0.106961  KCAL/ANGSTROM
     54         18  H    CARTESIAN Z     0.150665      0.124069  KCAL/ANGSTROM
     55         19  H    CARTESIAN X     1.700475     -1.234737  KCAL/ANGSTROM
     56         19  H    CARTESIAN Y    -1.659370      0.568901  KCAL/ANGSTROM
     57         19  H    CARTESIAN Z     1.986293      0.648655  KCAL/ANGSTROM
     58         20  H    CARTESIAN X    -0.101160      0.296476  KCAL/ANGSTROM
     59         20  H    CARTESIAN Y     1.364302     -0.311976  KCAL/ANGSTROM
     60         20  H    CARTESIAN Z    -1.450122      1.314718  KCAL/ANGSTROM
     61         21  H    CARTESIAN X     1.869798      0.817436  KCAL/ANGSTROM
     62         21  H    CARTESIAN Y     1.916453      0.754478  KCAL/ANGSTROM
     63         21  H    CARTESIAN Z     0.087675      0.852145  KCAL/ANGSTROM
     64         22  H    CARTESIAN X     0.343758      0.832847  KCAL/ANGSTROM
     65         22  H    CARTESIAN Y     2.525157      0.720463  KCAL/ANGSTROM
     66         22  H    CARTESIAN Z     0.737836      1.177710  KCAL/ANGSTROM
     67         23  H    CARTESIAN X     1.077695      0.747797  KCAL/ANGSTROM
     68         23  H    CARTESIAN Y     1.065573     -0.416132  KCAL/ANGSTROM
     69         23  H    CARTESIAN Z     1.427279      1.825949  KCAL/ANGSTROM




   ATOM   CHEMICAL          X               Y               Z
  NUMBER   SYMBOL      (ANGSTROMS)     (ANGSTROMS)     (ANGSTROMS)

     1       C         -1.98638628  *  -1.32007787  *   1.16204253  *
     2       C         -1.61326272  *  -0.79469255  *  -0.21278164  *
     3       C         -0.51577299  *  -1.54862604  *  -0.94858201  *
     4       C          0.72320012  *  -0.62352989  *  -0.91832144  *
     5       C          1.77892821  *  -1.15249520  *   0.06287153  *
     6       O          1.12509896  *  -1.22652496  *   1.31728441  *
     7       C          0.14934234  *   0.74525925  *  -0.52616479  *
     8       C          0.88602095  *   1.60155329  *   0.47791729  *
     9       O         -1.14823922  *   0.53543236  *   0.02228833  *
    10       H         -2.51619851  *  -2.28653750  *   1.07881099  *
    11       H         -2.65003219  *  -0.64230285  *   1.72143386  *
    12       H         -1.09156977  *  -1.49960939  *   1.78759749  *
    13       H         -2.54359150  *  -0.62118127  *  -0.83293826  *
    14       H         -0.80551088  *  -1.80743156  *  -1.98629323  *
    15       H         -0.29366677  *  -2.52515722  *  -0.46267415  *
    16       H          1.19363171  *  -0.57033136  *  -1.93324301  *
    17       H          2.12896966  *  -2.16184421  *  -0.23193772  *
    18       H          2.65003219  *  -0.47489999  *   0.15066473  *
    19       H          1.70047514  *  -1.65937000  *   1.98629323  *
    20       H         -0.10116029  *   1.36430234  *  -1.45012175  *
    21       H          1.86979771  *   1.91645259  *   0.08767480  *
    22       H          0.34375805  *   2.52515722  *   0.73783562  *
    23       H          1.07769497  *   1.06557316  *   1.42727851  *

                             CARTESIAN COORDINATES

   1    C       -1.986386278    -1.320077867     1.162042531
   2    C       -1.613262720    -0.794692546    -0.212781638
   3    C       -0.515772993    -1.548626042    -0.948582008
   4    C        0.723200122    -0.623529894    -0.918321440
   5    C        1.778928205    -1.152495196     0.062871530
   6    O        1.125098955    -1.226524956     1.317284409
   7    C        0.149342341     0.745259246    -0.526164794
   8    C        0.886020947     1.601553293     0.477917287
   9    O       -1.148239219     0.535432365     0.022288332
  10    H       -2.516198512    -2.286537504     1.078810987
  11    H       -2.650032192    -0.642302850     1.721433856
  12    H       -1.091569772    -1.499609394     1.787597492
  13    H       -2.543591502    -0.621181270    -0.832938262
  14    H       -0.805510878    -1.807431559    -1.986293230
  15    H       -0.293666773    -2.525157224    -0.462674150
  16    H        1.193631709    -0.570331360    -1.933243009
  17    H        2.128969664    -2.161844213    -0.231937723
  18    H        2.650032192    -0.474899991     0.150664725
  19    H        1.700475140    -1.659370003     1.986293230
  20    H       -0.101160287     1.364302340    -1.450121753
  21    H        1.869797712     1.916452590     0.087674802
  22    H        0.343758049     2.525157224     0.737835621
  23    H        1.077694969     1.065573156     1.427278509


           Empirical Formula: C7 H14 O2  =    23 atoms



      MOLECULAR POINT GROUP   :   C1  


          ALPHA EIGENVALUES  
 -35.16122 -30.43291 -28.92198 -28.57022 -26.08615 -24.32549 -22.65064 -21.64345
 -20.25865 -19.29063 -17.60088 -17.09304 -16.68516 -16.29544 -15.62975 -14.99643
 -14.68094 -14.33610 -13.90026 -13.80204 -13.61867 -13.08539 -12.92986 -12.64749
 -12.29294 -11.95028 -10.97726  -0.24218   1.68584   2.44134   2.69089   2.92145
   2.99607   3.15342   3.41998   3.74757   4.23625   4.35201   5.06182   5.16002
   5.18086   5.27146   5.30865   5.32686   5.36592   5.58805   5.89350   5.93078
   6.36974   6.38630


           BETA EIGENVALUES 
 -32.65894 -29.86515 -28.55873 -28.31342 -25.97256 -24.20990 -22.52877 -21.33805
 -20.04079 -18.87119 -17.34044 -16.56447 -16.41818 -16.20505 -15.25165 -14.60605
 -14.55102 -14.08555 -13.74428 -13.49278 -13.41331 -12.95866 -12.76239 -12.62253
 -11.80531 -10.97916  -3.43198   0.32900   1.94284   2.45752   2.71292   3.01681
   3.06158   3.22887   3.43805   3.75482   4.38844   4.45614   5.07198   5.16596
   5.19344   5.28205   5.31736   5.33017   5.36869   5.58892   5.89409   5.93167
   6.37330   6.38810


              NET ATOMIC CHARGES AND DIPOLE CONTRIBUTIONS

  ATOM NO.   TYPE          CHARGE      No. of ELECS.   s-Pop       p-Pop       
    1          C          -0.467719        4.4677     1.06148     3.40624
    2          C           0.005109        3.9949     1.12307     2.87182
    3          C          -0.321120        4.3211     1.07456     3.24656
    4          C          -0.160614        4.1606     1.08194     3.07868
    5          C           0.010764        3.9892     1.08995     2.89928
    6          O          -0.612281        6.6123     1.84604     4.76624
    7          C          -0.008196        4.0082     1.12719     2.88100
    8          C          -0.469612        4.4696     1.05790     3.41171
    9          O           0.199014        5.8010     1.90594     3.89504
   10          H           0.197103        0.8029     0.80290
   11          H           0.183894        0.8161     0.81611
   12          H           0.190992        0.8090     0.80901
   13          H           0.229604        0.7704     0.77040
   14          H           0.181448        0.8186     0.81855
   15          H           0.194610        0.8054     0.80539
   16          H           0.193209        0.8068     0.80679
   17          H           0.140684        0.8593     0.85932
   18          H           0.140860        0.8591     0.85914
   19          H           0.355945        0.6441     0.64405
   20          H           0.243107        0.7569     0.75689
   21          H           0.195642        0.8044     0.80436
   22          H           0.184485        0.8155     0.81552
   23          H           0.193072        0.8069     0.80693
 DIPOLE           X         Y         Z       TOTAL
 POINT-CHG.    -0.741     1.029    -2.806     3.079
 HYBRID        -0.180     0.063     0.482     0.518
 SUM           -0.921     1.092    -2.324     2.728


          ATOMIC ORBITAL ELECTRON POPULATIONS

     Atom    s        px        py        pz   
    1  C   1.06148   1.20587   1.18358   1.01680
    2  C   1.12307   1.04096   0.79998   1.03088
    3  C   1.07456   0.97900   1.10603   1.16153
    4  C   1.08194   1.02070   0.94054   1.11744
    5  C   1.08995   0.98110   1.12253   0.79565
    6  O   1.84604   1.55011   1.87666   1.33947
    7  C   1.12719   0.81934   1.03096   1.03070
    8  C   1.05790   1.15731   1.13685   1.11755
    9  O   1.90594   1.29734   1.33066   1.26705
   10  H   0.80290
   11  H   0.81611
   12  H   0.80901
   13  H   0.77040
   14  H   0.81855
   15  H   0.80539
   16  H   0.80679
   17  H   0.85932
   18  H   0.85914
   19  H   0.64405
   20  H   0.75689
   21  H   0.80436
   22  H   0.81552
   23  H   0.80693


                    (SZ)    =    0.500000
                    (S**2)  =    0.758665


          ATOMIC ORBITAL SPIN POPULATIONS

    Atom   Total    s     px     py     pz   
         Atomic
    1  C  0.0536  0.007  0.003  0.013  0.032
    2  C -0.0357 -0.006 -0.009 -0.031  0.011
    3  C -0.0000 -0.000  0.001 -0.001  0.000
    4  C  0.0078  0.001 -0.001  0.008 -0.000
    5  C  0.0014  0.000  0.001  0.001  0.000
    6  O -0.0001  0.000 -0.000  0.000 -0.000
    7  C -0.0280 -0.007 -0.026 -0.005  0.010
    8  C  0.0358  0.005  0.012  0.005  0.014
    9  O  0.8574  0.018  0.146  0.098  0.596
   10  H -0.0007 -0.001
   11  H -0.0016 -0.002
   12  H -0.0010 -0.001
   13  H  0.0469  0.047
   14  H  0.0007  0.001
   15  H -0.0004 -0.000
   16  H -0.0013 -0.001
   17  H  0.0008  0.001
   18  H  0.0000  0.000
   19  H  0.0000  0.000
   20  H  0.0666  0.067
   21  H -0.0018 -0.002
   22  H -0.0008 -0.001
   23  H  0.0000  0.000

 **********************
 *                    *
 * JOB ENDED NORMALLY *
 *                    *
 **********************



 TOTAL JOB TIME:             1.48 SECONDS

 == MOPAC DONE ==
