 *******************************************************************************
 **                                                                           **
 **                              MOPAC v23.2                                  **
 **                                                                           **
 *******************************************************************************
 **          Digital Object Identifier (DOI): 10.5281/zenodo.6511958          **
 **    Visit the DOI location for information on how to cite this program.    **
 *******************************************************************************

                              PM7 CALCULATION RESULTS

 *******************************************************************************
 *  CALCULATION DONE: (MAX THREADS = 40)             Fri Sep 19 21:31:19 2025  *
 *  PM7        - The PM7 Hamiltonian to be used
 *  1SCF       - DO 1 SCF AND THEN STOP 
 *  T=         - A TIME OF 172800.0 SECONDS REQUESTED
 *  DUMP=N     - RESTART FILE WRITTEN EVERY 7200.0 SECONDS REQUESTED
 *  RELSCF     - DEFAULT SCF CRITERION MULTIPLIED BY 0.0001
 *              (DEFAULT SCF CRITERION = 0.00010)
 *  GRADIENTS  - ALL GRADIENTS TO BE PRINTED
 *  DISP       - PRINT DISPERSION AND HYDROGEN BOND ENERGIES
 *******************************************************************************
PM7 1SCF GRADIENTS DISP RELSCF=0.0001
 Title: ASE calculation

   ATOM   CHEMICAL          X               Y               Z
  NUMBER   SYMBOL      (ANGSTROMS)     (ANGSTROMS)     (ANGSTROMS)

     1       C         -1.89893984  *  -0.79912090  *   1.09096511  *
     2       C         -1.24582993  *  -0.64248092  *  -0.27812156  *
     3       C          0.03087987  *  -1.49273049  *  -0.44823054  *
     4       C          1.10286163  *  -0.48350631  *  -0.89721096  *
     5       C          2.50734549  *  -0.81954312  *  -0.40155238  *
     6       O          2.63644770  *  -0.88268627  *   1.00142170  *
     7       C          0.53221115  *   0.88259099  *  -0.43989440  *
     8       C          0.96635376  *   1.35655978  *   0.93980971  *
     9       O         -0.88203309  *   0.72260517  *  -0.45373470  *
    10       H         -2.24650258  *  -1.82209983  *   1.26032360  *
    11       H         -2.76408181  *  -0.12749044  *   1.18090658  *
    12       H         -1.20881513  *  -0.52707087  *   1.89748322  *
    13       H         -1.97691354  *  -0.82058550  *  -1.09692300  *
    14       H         -0.11081263  *  -2.29089574  *  -1.19263655  *
    15       H          0.30606829  *  -1.99984811  *   0.48998240  *
    16       H          1.13892915  *  -0.47517265  *  -2.01570215  *
    17       H          2.84720240  *  -1.79332569  *  -0.80583291  *
    18       H          3.23846694  *  -0.03381682  *  -0.67891867  *
    19       H          1.85615283  *  -1.30704036  *   1.41027619  *
    20       H          0.70327816  *   1.67537027  *  -1.20127532  *
    21       H          2.04901383  *   1.52652356  *   0.98752643  *
    22       H          0.45823215  *   2.29330999  *   1.20057782  *
    23       H          0.71975402  *   0.62823479  *   1.71936582  *



          CARTESIAN COORDINATES 

    NO.       ATOM           X           Y           Z

     1         C         -1.8989     -0.7991      1.0910
     2         C         -1.2458     -0.6425     -0.2781
     3         C          0.0309     -1.4927     -0.4482
     4         C          1.1029     -0.4835     -0.8972
     5         C          2.5073     -0.8195     -0.4016
     6         O          2.6364     -0.8827      1.0014
     7         C          0.5322      0.8826     -0.4399
     8         C          0.9664      1.3566      0.9398
     9         O         -0.8820      0.7226     -0.4537
    10         H         -2.2465     -1.8221      1.2603
    11         H         -2.7641     -0.1275      1.1809
    12         H         -1.2088     -0.5271      1.8975
    13         H         -1.9769     -0.8206     -1.0969
    14         H         -0.1108     -2.2909     -1.1926
    15         H          0.3061     -1.9998      0.4900
    16         H          1.1389     -0.4752     -2.0157
    17         H          2.8472     -1.7933     -0.8058
    18         H          3.2385     -0.0338     -0.6789
    19         H          1.8562     -1.3070      1.4103
    20         H          0.7033      1.6754     -1.2013
    21         H          2.0490      1.5265      0.9875
    22         H          0.4582      2.2933      1.2006
    23         H          0.7198      0.6282      1.7194

 General Reference for PM7:
 "Optimization of Parameters for Semiempirical Methods VI: More Modifications to the 
 NDDO Approximations and Re-optimization of Parameters", J. J. P. Stewart, J. Mol. Mod., 1:32, 19 (2013)
 https://link.springer.com/article/10.1007/s00894-012-1667-x

           Empirical Formula: C7 H14 O2  =    23 atoms



      MOLECULAR POINT GROUP   :   C1  


      RHF CALCULATION, NO. OF DOUBLY OCCUPIED LEVELS = 27

  SCF CRITERION =    0.1000E-07

 -------------------------------------------------------------------------------
 PM7 1SCF GRADIENTS DISP RELSCF=0.0001
 Title: ASE calculation



     1SCF WAS SPECIFIED, SO BFGS WAS NOT USED                 
     SCF FIELD WAS ACHIEVED                                   


                              PM7 CALCULATION
                                                       MOPAC v23.2 Linux
                                                       Fri Sep 19 21:31:20 2025




          FINAL HEAT OF FORMATION =       -109.16813 KCAL/MOL =    -456.75947 KJ/MOL

          TOTAL ENERGY            =     -37818.76601 KCAL/MOL = ELECTRONIC ENERGY + CORE-CORE REPULSION
          ENERGY OF ATOMS         =      37712.04263 KCAL/MOL
                              SUM =       -106.72338 KCAL/MOL
          DISPERSION ENERGY       =         -2.44014 KCAL/MOL
          H-BOND ENERGY           =         -0.00461 KCAL/MOL
                              SUM =       -109.16813 KCAL/MOL = FINAL HEAT OF FORMATION



          TOTAL ENERGY            =      -1639.97691 EV
          ELECTRONIC ENERGY       =      -8648.51124 EV 
          CORE-CORE REPULSION     =       7008.53433 EV
          COSMO AREA              =        165.53 SQUARE ANGSTROMS
          COSMO VOLUME            =        172.32 CUBIC ANGSTROMS

          GRADIENT NORM           =          0.93496          =       0.19495 PER ATOM
          IONIZATION POTENTIAL    =          9.820222 EV
          HOMO LUMO ENERGIES (EV) =         -9.820  2.390
          NO. OF FILLED LEVELS    =         27
          MOLECULAR WEIGHT        =        130.1864         POINT GROUP:  C1  

          MOLECULAR DIMENSIONS (Angstroms)

            Atom       Atom       Distance
            H    18    H    11     6.28477
            H    22    H    14     5.20163
            H    20    H    19     3.90964


          SCF CALCULATIONS        =          1

          WALL-CLOCK TIME         =      0.984 SECONDS
          COMPUTATION TIME        =      0.838 SECONDS

          LARGEST ATOMIC GRADIENTS

          Atom     Label                     Cartesian Gradients           Cartesian Coordinates       |Gradient|
                                           X          Y          Z        X          Y          Z

            19       H                   0.152      0.019      0.382    1.85615   -1.30704    1.41028      0.411
            18       H                   0.196      0.176     -0.298    3.23847   -0.03382   -0.67892      0.398
            23       H                   0.323      0.025      0.165    0.71975    0.62823    1.71937      0.364
            14       H                   0.075      0.173     -0.073   -0.11081   -2.29090   -1.19264      0.202
             7       C                  -0.184     -0.033      0.043    0.53221    0.88259   -0.43989      0.192
            11       H                  -0.189      0.010      0.000   -2.76408   -0.12749    1.18091      0.189
             6       O                  -0.124     -0.108     -0.063    2.63645   -0.88269    1.00142      0.176
            13       H                   0.160     -0.051     -0.043   -1.97691   -0.82059   -1.09692      0.173
            12       H                   0.074      0.082     -0.114   -1.20882   -0.52707    1.89748      0.159
             9       O                  -0.132     -0.028     -0.057   -0.88203    0.72261   -0.45373      0.147



       FINAL  POINT  AND  DERIVATIVES

   PARAMETER     ATOM    TYPE            VALUE        GRADIENT
      1          1  C    CARTESIAN X    -1.898940     -0.067785  KCAL/ANGSTROM
      2          1  C    CARTESIAN Y    -0.799121     -0.011774  KCAL/ANGSTROM
      3          1  C    CARTESIAN Z     1.090965     -0.007744  KCAL/ANGSTROM
      4          2  C    CARTESIAN X    -1.245830     -0.034801  KCAL/ANGSTROM
      5          2  C    CARTESIAN Y    -0.642481     -0.031200  KCAL/ANGSTROM
      6          2  C    CARTESIAN Z    -0.278122     -0.001754  KCAL/ANGSTROM
      7          3  C    CARTESIAN X     0.030880     -0.091506  KCAL/ANGSTROM
      8          3  C    CARTESIAN Y    -1.492730     -0.080530  KCAL/ANGSTROM
      9          3  C    CARTESIAN Z    -0.448231     -0.029220  KCAL/ANGSTROM
     10          4  C    CARTESIAN X     1.102862     -0.069472  KCAL/ANGSTROM
     11          4  C    CARTESIAN Y    -0.483506     -0.083188  KCAL/ANGSTROM
     12          4  C    CARTESIAN Z    -0.897211      0.092710  KCAL/ANGSTROM
     13          5  C    CARTESIAN X     2.507345      0.046859  KCAL/ANGSTROM
     14          5  C    CARTESIAN Y    -0.819543     -0.039937  KCAL/ANGSTROM
     15          5  C    CARTESIAN Z    -0.401552     -0.022992  KCAL/ANGSTROM
     16          6  O    CARTESIAN X     2.636448     -0.123963  KCAL/ANGSTROM
     17          6  O    CARTESIAN Y    -0.882686     -0.108445  KCAL/ANGSTROM
     18          6  O    CARTESIAN Z     1.001422     -0.063397  KCAL/ANGSTROM
     19          7  C    CARTESIAN X     0.532211     -0.183753  KCAL/ANGSTROM
     20          7  C    CARTESIAN Y     0.882591     -0.032970  KCAL/ANGSTROM
     21          7  C    CARTESIAN Z    -0.439894      0.042915  KCAL/ANGSTROM
     22          8  C    CARTESIAN X     0.966354     -0.104563  KCAL/ANGSTROM
     23          8  C    CARTESIAN Y     1.356560     -0.033525  KCAL/ANGSTROM
     24          8  C    CARTESIAN Z     0.939810      0.037142  KCAL/ANGSTROM
     25          9  O    CARTESIAN X    -0.882033     -0.132255  KCAL/ANGSTROM
     26          9  O    CARTESIAN Y     0.722605     -0.028428  KCAL/ANGSTROM
     27          9  O    CARTESIAN Z    -0.453735     -0.057235  KCAL/ANGSTROM
     28         10  H    CARTESIAN X    -2.246503     -0.082921  KCAL/ANGSTROM
     29         10  H    CARTESIAN Y    -1.822100      0.002748  KCAL/ANGSTROM
     30         10  H    CARTESIAN Z     1.260324      0.099865  KCAL/ANGSTROM
     31         11  H    CARTESIAN X    -2.764082     -0.188675  KCAL/ANGSTROM
     32         11  H    CARTESIAN Y    -0.127490      0.009845  KCAL/ANGSTROM
     33         11  H    CARTESIAN Z     1.180907      0.000303  KCAL/ANGSTROM
     34         12  H    CARTESIAN X    -1.208815      0.074309  KCAL/ANGSTROM
     35         12  H    CARTESIAN Y    -0.527071      0.081738  KCAL/ANGSTROM
     36         12  H    CARTESIAN Z     1.897483     -0.113791  KCAL/ANGSTROM
     37         13  H    CARTESIAN X    -1.976914      0.159780  KCAL/ANGSTROM
     38         13  H    CARTESIAN Y    -0.820586     -0.051153  KCAL/ANGSTROM
     39         13  H    CARTESIAN Z    -1.096923     -0.042998  KCAL/ANGSTROM
     40         14  H    CARTESIAN X    -0.110813      0.074743  KCAL/ANGSTROM
     41         14  H    CARTESIAN Y    -2.290896      0.172710  KCAL/ANGSTROM
     42         14  H    CARTESIAN Z    -1.192637     -0.073253  KCAL/ANGSTROM
     43         15  H    CARTESIAN X     0.306068     -0.083985  KCAL/ANGSTROM
     44         15  H    CARTESIAN Y    -1.999848      0.003205  KCAL/ANGSTROM
     45         15  H    CARTESIAN Z     0.489982     -0.120301  KCAL/ANGSTROM
     46         16  H    CARTESIAN X     1.138929      0.083106  KCAL/ANGSTROM
     47         16  H    CARTESIAN Y    -0.475173      0.075425  KCAL/ANGSTROM
     48         16  H    CARTESIAN Z    -2.015702      0.088705  KCAL/ANGSTROM
     49         17  H    CARTESIAN X     2.847202      0.015592  KCAL/ANGSTROM
     50         17  H    CARTESIAN Y    -1.793326     -0.101909  KCAL/ANGSTROM
     51         17  H    CARTESIAN Z    -0.805833     -0.053117  KCAL/ANGSTROM
     52         18  H    CARTESIAN X     3.238467      0.196226  KCAL/ANGSTROM
     53         18  H    CARTESIAN Y    -0.033817      0.175552  KCAL/ANGSTROM
     54         18  H    CARTESIAN Z    -0.678919     -0.298233  KCAL/ANGSTROM
     55         19  H    CARTESIAN X     1.856153      0.152425  KCAL/ANGSTROM
     56         19  H    CARTESIAN Y    -1.307040      0.018857  KCAL/ANGSTROM
     57         19  H    CARTESIAN Z     1.410276      0.381604  KCAL/ANGSTROM
     58         20  H    CARTESIAN X     0.703278      0.095969  KCAL/ANGSTROM
     59         20  H    CARTESIAN Y     1.675370     -0.021100  KCAL/ANGSTROM
     60         20  H    CARTESIAN Z    -1.201275      0.100518  KCAL/ANGSTROM
     61         21  H    CARTESIAN X     2.049014     -0.137992  KCAL/ANGSTROM
     62         21  H    CARTESIAN Y     1.526524      0.020921  KCAL/ANGSTROM
     63         21  H    CARTESIAN Z     0.987526     -0.010483  KCAL/ANGSTROM
     64         22  H    CARTESIAN X     0.458232      0.079551  KCAL/ANGSTROM
     65         22  H    CARTESIAN Y     2.293310      0.038561  KCAL/ANGSTROM
     66         22  H    CARTESIAN Z     1.200578     -0.114392  KCAL/ANGSTROM
     67         23  H    CARTESIAN X     0.719754      0.323114  KCAL/ANGSTROM
     68         23  H    CARTESIAN Y     0.628235      0.024597  KCAL/ANGSTROM
     69         23  H    CARTESIAN Z     1.719366      0.165142  KCAL/ANGSTROM




   ATOM   CHEMICAL          X               Y               Z
  NUMBER   SYMBOL      (ANGSTROMS)     (ANGSTROMS)     (ANGSTROMS)

     1       C         -1.89893984  *  -0.79912090  *   1.09096511  *
     2       C         -1.24582993  *  -0.64248092  *  -0.27812156  *
     3       C          0.03087987  *  -1.49273049  *  -0.44823054  *
     4       C          1.10286163  *  -0.48350631  *  -0.89721096  *
     5       C          2.50734549  *  -0.81954312  *  -0.40155238  *
     6       O          2.63644770  *  -0.88268627  *   1.00142170  *
     7       C          0.53221115  *   0.88259099  *  -0.43989440  *
     8       C          0.96635376  *   1.35655978  *   0.93980971  *
     9       O         -0.88203309  *   0.72260517  *  -0.45373470  *
    10       H         -2.24650258  *  -1.82209983  *   1.26032360  *
    11       H         -2.76408181  *  -0.12749044  *   1.18090658  *
    12       H         -1.20881513  *  -0.52707087  *   1.89748322  *
    13       H         -1.97691354  *  -0.82058550  *  -1.09692300  *
    14       H         -0.11081263  *  -2.29089574  *  -1.19263655  *
    15       H          0.30606829  *  -1.99984811  *   0.48998240  *
    16       H          1.13892915  *  -0.47517265  *  -2.01570215  *
    17       H          2.84720240  *  -1.79332569  *  -0.80583291  *
    18       H          3.23846694  *  -0.03381682  *  -0.67891867  *
    19       H          1.85615283  *  -1.30704036  *   1.41027619  *
    20       H          0.70327816  *   1.67537027  *  -1.20127532  *
    21       H          2.04901383  *   1.52652356  *   0.98752643  *
    22       H          0.45823215  *   2.29330999  *   1.20057782  *
    23       H          0.71975402  *   0.62823479  *   1.71936582  *

                             CARTESIAN COORDINATES

   1    C       -1.898939845    -0.799120899     1.090965110
   2    C       -1.245829930    -0.642480921    -0.278121559
   3    C        0.030879872    -1.492730494    -0.448230536
   4    C        1.102861625    -0.483506310    -0.897210961
   5    C        2.507345490    -0.819543117    -0.401552384
   6    O        2.636447699    -0.882686273     1.001421697
   7    C        0.532211154     0.882590989    -0.439894400
   8    C        0.966353762     1.356559778     0.939809705
   9    O       -0.882033094     0.722605169    -0.453734699
  10    H       -2.246502582    -1.822099826     1.260323602
  11    H       -2.764081807    -0.127490443     1.180906581
  12    H       -1.208815134    -0.527070867     1.897483220
  13    H       -1.976913544    -0.820585502    -1.096922995
  14    H       -0.110812635    -2.290895739    -1.192636551
  15    H        0.306068287    -1.999848108     0.489982397
  16    H        1.138929153    -0.475172655    -2.015702154
  17    H        2.847202398    -1.793325692    -0.805832914
  18    H        3.238466942    -0.033816818    -0.678918671
  19    H        1.856152825    -1.307040360     1.410276188
  20    H        0.703278160     1.675370268    -1.201275323
  21    H        2.049013832     1.526523560     0.987526426
  22    H        0.458232147     2.293309987     1.200577825
  23    H        0.719754020     0.628234785     1.719365816


           Empirical Formula: C7 H14 O2  =    23 atoms



      MOLECULAR POINT GROUP   :   C1  


                  EIGENVALUES  
 -31.19432 -29.35482 -27.23515 -26.94712 -25.37749 -23.83853 -21.71715 -20.27962
 -19.48242 -17.58558 -16.86488 -16.00571 -15.38566 -15.04691 -14.57856 -14.38304
 -13.65454 -13.48173 -13.39598 -12.93412 -12.62641 -11.98267 -11.79562 -11.59594
 -11.46347 -10.48929  -9.82022   2.39032   2.84108   3.16067   3.77085   4.00191
   4.16069   4.32853   4.54464   4.80595   5.16132   5.37199   5.53513   5.57690
   5.65227   5.74569   5.86255   5.95988   5.99149   6.10710   6.21176   6.38196
   6.91430   7.24306


              NET ATOMIC CHARGES AND DIPOLE CONTRIBUTIONS

  ATOM NO.   TYPE          CHARGE      No. of ELECS.   s-Pop       p-Pop       
    1          C          -0.488936        4.4889     1.05992     3.42902
    2          C           0.149435        3.8506     1.08759     2.76298
    3          C          -0.330889        4.3309     1.07304     3.25785
    4          C          -0.214881        4.2149     1.08178     3.13310
    5          C          -0.004149        4.0041     1.08490     2.91924
    6          O          -0.546260        6.5463     1.84847     4.69779
    7          C           0.147093        3.8529     1.09063     2.76228
    8          C          -0.479919        4.4799     1.05826     3.42166
    9          O          -0.435576        6.4356     1.88150     4.55408
   10          H           0.147996        0.8520     0.85200
   11          H           0.162904        0.8371     0.83710
   12          H           0.154567        0.8454     0.84543
   13          H           0.127564        0.8724     0.87244
   14          H           0.145530        0.8545     0.85447
   15          H           0.141682        0.8583     0.85832
   16          H           0.149593        0.8504     0.85041
   17          H           0.119129        0.8809     0.88087
   18          H           0.142870        0.8571     0.85713
   19          H           0.313436        0.6866     0.68656
   20          H           0.128396        0.8716     0.87160
   21          H           0.164119        0.8359     0.83588
   22          H           0.154445        0.8456     0.84555
   23          H           0.151853        0.8481     0.84815
 DIPOLE           X         Y         Z       TOTAL
 POINT-CHG.     0.045    -1.610    -1.284     2.060
 HYBRID        -0.319    -0.175     0.549     0.658
 SUM           -0.275    -1.785    -0.736     1.950


          ATOMIC ORBITAL ELECTRON POPULATIONS

     Atom    s        px        py        pz   
    1  C   1.05992   1.16939   1.16980   1.08984
    2  C   1.08759   0.96950   0.79100   1.00248
    3  C   1.07304   1.03086   1.07102   1.15596
    4  C   1.08178   0.99768   1.01759   1.11783
    5  C   1.08490   1.00839   1.12312   0.78773
    6  O   1.84847   1.53870   1.87061   1.28849
    7  C   1.09063   0.77684   0.98327   1.00217
    8  C   1.05826   1.17051   1.17096   1.08018
    9  O   1.88150   1.29037   1.32009   1.94361
   10  H   0.85200
   11  H   0.83710
   12  H   0.84543
   13  H   0.87244
   14  H   0.85447
   15  H   0.85832
   16  H   0.85041
   17  H   0.88087
   18  H   0.85713
   19  H   0.68656
   20  H   0.87160
   21  H   0.83588
   22  H   0.84555
   23  H   0.84815

 **********************
 *                    *
 * JOB ENDED NORMALLY *
 *                    *
 **********************



 TOTAL JOB TIME:             1.55 SECONDS

 == MOPAC DONE ==
