 *******************************************************************************
 **                                                                           **
 **                              MOPAC v23.2                                  **
 **                                                                           **
 *******************************************************************************
 **          Digital Object Identifier (DOI): 10.5281/zenodo.6511958          **
 **    Visit the DOI location for information on how to cite this program.    **
 *******************************************************************************

                              PM7 CALCULATION RESULTS

 *******************************************************************************
 *  CALCULATION DONE: (MAX THREADS = 40)             Fri Sep 19 21:42:36 2025  *
 *  PM7        - The PM7 Hamiltonian to be used
 *  EPS=37.5   - USE ANDREAS KLAMT'S COSMO IMPLICIT SOLVATION MODEL
 *  1SCF       - DO 1 SCF AND THEN STOP 
 *  T=         - A TIME OF 172800.0 SECONDS REQUESTED
 *  DUMP=N     - RESTART FILE WRITTEN EVERY 7200.0 SECONDS REQUESTED
 *  RELSCF     - DEFAULT SCF CRITERION MULTIPLIED BY 0.0001
 *              (DEFAULT SCF CRITERION = 0.00010)
 *  GRADIENTS  - ALL GRADIENTS TO BE PRINTED
 *  DISP       - PRINT DISPERSION AND HYDROGEN BOND ENERGIES
 *******************************************************************************
PM7 1SCF GRADIENTS EPS=37.5 DISP RELSCF=0.0001
 Title: ASE calculation

   ATOM   CHEMICAL          X               Y               Z
  NUMBER   SYMBOL      (ANGSTROMS)     (ANGSTROMS)     (ANGSTROMS)

     1       C          1.76531050  *   1.02086396  *  -0.84550764  *
     2       C          1.22269348  *   0.13613014  *   0.24833240  *
     3       C         -0.12982390  *   0.51443095  *   0.91667579  *
     4       C         -0.37805620  *  -1.02840531  *   1.31579368  *
     5       C         -1.79040178  *  -1.01062689  *   0.69510006  *
     6       C         -0.98869686  *  -0.11983224  *  -0.29923592  *
     7       C         -1.55229075  *   0.52235364  *  -1.49704973  *
     8       C          0.31478147  *  -1.06540047  *  -0.14024359  *
     9       H          0.99900312  *   1.29688736  *  -1.57935925  *
    10       H          2.17208458  *   1.95305382  *  -0.43402739  *
    11       H          2.57415063  *   0.52097549  *  -1.39282774  *
    12       H          2.01944798  *  -0.12033843  *   0.96666360  *
    13       H         -0.35523467  *   1.37491706  *   1.48355979  *
    14       H         -0.05816666  *  -1.52467162  *   2.19178223  *
    15       H         -2.57415063  *  -0.51729358  *   1.26619508  *
    16       H         -2.16985254  *  -1.95305382  *   0.30577503  *
    17       H         -1.96683607  *  -0.22472470  *  -2.19178223  *
    18       H         -2.37164508  *   1.20903112  *  -1.23273932  *
    19       H         -0.80763308  *   1.10710384  *  -2.05712215  *
    20       H          0.56971150  *  -1.91199553  *  -0.71539831  *



          CARTESIAN COORDINATES 

    NO.       ATOM           X           Y           Z

     1         C          1.7653      1.0209     -0.8455
     2         C          1.2227      0.1361      0.2483
     3         C         -0.1298      0.5144      0.9167
     4         C         -0.3781     -1.0284      1.3158
     5         C         -1.7904     -1.0106      0.6951
     6         C         -0.9887     -0.1198     -0.2992
     7         C         -1.5523      0.5224     -1.4970
     8         C          0.3148     -1.0654     -0.1402
     9         H          0.9990      1.2969     -1.5794
    10         H          2.1721      1.9531     -0.4340
    11         H          2.5742      0.5210     -1.3928
    12         H          2.0194     -0.1203      0.9667
    13         H         -0.3552      1.3749      1.4836
    14         H         -0.0582     -1.5247      2.1918
    15         H         -2.5742     -0.5173      1.2662
    16         H         -2.1699     -1.9531      0.3058
    17         H         -1.9668     -0.2247     -2.1918
    18         H         -2.3716      1.2090     -1.2327
    19         H         -0.8076      1.1071     -2.0571
    20         H          0.5697     -1.9120     -0.7154

 General Reference for PM7:
 "Optimization of Parameters for Semiempirical Methods VI: More Modifications to the 
 NDDO Approximations and Re-optimization of Parameters", J. J. P. Stewart, J. Mol. Mod., 1:32, 19 (2013)
 https://link.springer.com/article/10.1007/s00894-012-1667-x

           Empirical Formula: C8 H12  =    20 atoms



      MOLECULAR POINT GROUP   :   Cs  


      RHF CALCULATION, NO. OF DOUBLY OCCUPIED LEVELS = 22

  SCF CRITERION =    0.1000E-07

 -------------------------------------------------------------------------------
 PM7 1SCF GRADIENTS EPS=37.5 DISP RELSCF=0.0001
 Title: ASE calculation



     1SCF WAS SPECIFIED, SO BFGS WAS NOT USED                 
     SCF FIELD WAS ACHIEVED                                   


                              PM7 CALCULATION
                                                       MOPAC v23.2 Linux
                                                       Fri Sep 19 21:42:37 2025




          FINAL HEAT OF FORMATION =         89.60014 KCAL/MOL =     374.88699 KJ/MOL

          TOTAL ENERGY            =     -26307.69637 KCAL/MOL = ELECTRONIC ENERGY + CORE-CORE REPULSION + SOLVATION ENERGY
          ENERGY OF ATOMS         =      26398.86351 KCAL/MOL
                              SUM =         91.16713 KCAL/MOL
          DISPERSION ENERGY       =         -1.56699 KCAL/MOL
                              SUM =         89.60014 KCAL/MOL = FINAL HEAT OF FORMATION

          VAN DER WAALS AREA      =        153.99 SQUARE ANGSTROMS


          TOTAL ENERGY            =      -1140.80969 EV
          ELECTRONIC ENERGY       =      -1949.82533 EV 
          CORE-CORE REPULSION     =        809.01565 EV

          DIELECTRIC ENERGY       =         -0.07285 EV
          COSMO AREA              =        153.99 SQUARE ANGSTROMS
          COSMO VOLUME            =        152.92 CUBIC ANGSTROMS

          GRADIENT NORM           =          4.16938          =       0.93230 PER ATOM
          IONIZATION POTENTIAL    =         10.549098 EV
          HOMO LUMO ENERGIES (EV) =        -10.549  2.325
          NO. OF FILLED LEVELS    =         22
          MOLECULAR WEIGHT        =        108.1828         POINT GROUP:  Cs  

          MOLECULAR DIMENSIONS (Angstroms)

            Atom       Atom       Distance
            H    16    H    10     5.88705
            H    14    H    17     4.95464
            H    20    H    13     3.80398


          SCF CALCULATIONS        =          2

          WALL-CLOCK TIME         =      0.922 SECONDS
          COMPUTATION TIME        =      0.695 SECONDS

          LARGEST ATOMIC GRADIENTS

          Atom     Label                     Cartesian Gradients           Cartesian Coordinates       |Gradient|
                                           X          Y          Z        X          Y          Z

             7       C                  -1.126      1.200     -2.088   -1.55229    0.52235   -1.49705      2.658
             1       C                   0.667      0.935     -1.082    1.76531    1.02086   -0.84551      1.577
             4       C                   0.395     -0.429      0.805   -0.37806   -1.02841    1.31579      0.994
            14       H                  -0.312      0.424     -0.756   -0.05817   -1.52467    2.19178      0.921
             9       H                  -0.015     -0.484      0.623    0.99900    1.29689   -1.57936      0.789
             5       C                  -0.734     -0.060     -0.266   -1.79040   -1.01063    0.69510      0.783
            18       H                   0.210     -0.453      0.579   -2.37165    1.20903   -1.23274      0.765
            17       H                   0.163     -0.326      0.630   -1.96684   -0.22472   -2.19178      0.727
            11       H                  -0.351      0.089      0.549    2.57415    0.52098   -1.39283      0.658
             2       C                   0.261     -0.285      0.498    1.22269    0.13613    0.24833      0.631



       FINAL  POINT  AND  DERIVATIVES

   PARAMETER     ATOM    TYPE            VALUE        GRADIENT
      1          1  C    CARTESIAN X     1.765311      0.667137  KCAL/ANGSTROM
      2          1  C    CARTESIAN Y     1.020864      0.934635  KCAL/ANGSTROM
      3          1  C    CARTESIAN Z    -0.845508     -1.081511  KCAL/ANGSTROM
      4          2  C    CARTESIAN X     1.222693      0.260963  KCAL/ANGSTROM
      5          2  C    CARTESIAN Y     0.136130     -0.285338  KCAL/ANGSTROM
      6          2  C    CARTESIAN Z     0.248332      0.498063  KCAL/ANGSTROM
      7          3  C    CARTESIAN X    -0.129824     -0.219085  KCAL/ANGSTROM
      8          3  C    CARTESIAN Y     0.514431      0.404893  KCAL/ANGSTROM
      9          3  C    CARTESIAN Z     0.916676      0.393921  KCAL/ANGSTROM
     10          4  C    CARTESIAN X    -0.378056      0.394865  KCAL/ANGSTROM
     11          4  C    CARTESIAN Y    -1.028405     -0.428619  KCAL/ANGSTROM
     12          4  C    CARTESIAN Z     1.315794      0.804955  KCAL/ANGSTROM
     13          5  C    CARTESIAN X    -1.790402     -0.734104  KCAL/ANGSTROM
     14          5  C    CARTESIAN Y    -1.010627     -0.059766  KCAL/ANGSTROM
     15          5  C    CARTESIAN Z     0.695100     -0.265831  KCAL/ANGSTROM
     16          6  C    CARTESIAN X    -0.988697      0.463909  KCAL/ANGSTROM
     17          6  C    CARTESIAN Y    -0.119832     -0.145844  KCAL/ANGSTROM
     18          6  C    CARTESIAN Z    -0.299236      0.387711  KCAL/ANGSTROM
     19          7  C    CARTESIAN X    -1.552291     -1.126116  KCAL/ANGSTROM
     20          7  C    CARTESIAN Y     0.522354      1.199676  KCAL/ANGSTROM
     21          7  C    CARTESIAN Z    -1.497050     -2.087824  KCAL/ANGSTROM
     22          8  C    CARTESIAN X     0.314781      0.017887  KCAL/ANGSTROM
     23          8  C    CARTESIAN Y    -1.065400     -0.548695  KCAL/ANGSTROM
     24          8  C    CARTESIAN Z    -0.140244     -0.233639  KCAL/ANGSTROM
     25          9  H    CARTESIAN X     0.999003     -0.014686  KCAL/ANGSTROM
     26          9  H    CARTESIAN Y     1.296887     -0.484401  KCAL/ANGSTROM
     27          9  H    CARTESIAN Z    -1.579359      0.622929  KCAL/ANGSTROM
     28         10  H    CARTESIAN X     2.172085     -0.115064  KCAL/ANGSTROM
     29         10  H    CARTESIAN Y     1.953054     -0.594847  KCAL/ANGSTROM
     30         10  H    CARTESIAN Z    -0.434027      0.102608  KCAL/ANGSTROM
     31         11  H    CARTESIAN X     2.574151     -0.351044  KCAL/ANGSTROM
     32         11  H    CARTESIAN Y     0.520975      0.089032  KCAL/ANGSTROM
     33         11  H    CARTESIAN Z    -1.392828      0.549468  KCAL/ANGSTROM
     34         12  H    CARTESIAN X     2.019448     -0.258259  KCAL/ANGSTROM
     35         12  H    CARTESIAN Y    -0.120338      0.199040  KCAL/ANGSTROM
     36         12  H    CARTESIAN Z     0.966664     -0.383951  KCAL/ANGSTROM
     37         13  H    CARTESIAN X    -0.355235      0.301354  KCAL/ANGSTROM
     38         13  H    CARTESIAN Y     1.374917     -0.405739  KCAL/ANGSTROM
     39         13  H    CARTESIAN Z     1.483560     -0.277293  KCAL/ANGSTROM
     40         14  H    CARTESIAN X    -0.058167     -0.311591  KCAL/ANGSTROM
     41         14  H    CARTESIAN Y    -1.524672      0.423703  KCAL/ANGSTROM
     42         14  H    CARTESIAN Z     2.191782     -0.755583  KCAL/ANGSTROM
     43         15  H    CARTESIAN X    -2.574151      0.336208  KCAL/ANGSTROM
     44         15  H    CARTESIAN Y    -0.517294     -0.024387  KCAL/ANGSTROM
     45         15  H    CARTESIAN Z     1.266195     -0.108261  KCAL/ANGSTROM
     46         16  H    CARTESIAN X    -2.169853      0.239473  KCAL/ANGSTROM
     47         16  H    CARTESIAN Y    -1.953054      0.264207  KCAL/ANGSTROM
     48         16  H    CARTESIAN Z     0.305775      0.016101  KCAL/ANGSTROM
     49         17  H    CARTESIAN X    -1.966836      0.162941  KCAL/ANGSTROM
     50         17  H    CARTESIAN Y    -0.224725     -0.325911  KCAL/ANGSTROM
     51         17  H    CARTESIAN Z    -2.191782      0.629539  KCAL/ANGSTROM
     52         18  H    CARTESIAN X    -2.371645      0.210036  KCAL/ANGSTROM
     53         18  H    CARTESIAN Y     1.209031     -0.453122  KCAL/ANGSTROM
     54         18  H    CARTESIAN Z    -1.232739      0.579054  KCAL/ANGSTROM
     55         19  H    CARTESIAN X    -0.807633      0.008830  KCAL/ANGSTROM
     56         19  H    CARTESIAN Y     1.107104     -0.245149  KCAL/ANGSTROM
     57         19  H    CARTESIAN Z    -2.057122      0.304968  KCAL/ANGSTROM
     58         20  H    CARTESIAN X     0.569711      0.066344  KCAL/ANGSTROM
     59         20  H    CARTESIAN Y    -1.911996      0.486628  KCAL/ANGSTROM
     60         20  H    CARTESIAN Z    -0.715398      0.304574  KCAL/ANGSTROM




   ATOM   CHEMICAL          X               Y               Z
  NUMBER   SYMBOL      (ANGSTROMS)     (ANGSTROMS)     (ANGSTROMS)

     1       C          1.76531050  *   1.02086396  *  -0.84550764  *
     2       C          1.22269348  *   0.13613014  *   0.24833240  *
     3       C         -0.12982390  *   0.51443095  *   0.91667579  *
     4       C         -0.37805620  *  -1.02840531  *   1.31579368  *
     5       C         -1.79040178  *  -1.01062689  *   0.69510006  *
     6       C         -0.98869686  *  -0.11983224  *  -0.29923592  *
     7       C         -1.55229075  *   0.52235364  *  -1.49704973  *
     8       C          0.31478147  *  -1.06540047  *  -0.14024359  *
     9       H          0.99900312  *   1.29688736  *  -1.57935925  *
    10       H          2.17208458  *   1.95305382  *  -0.43402739  *
    11       H          2.57415063  *   0.52097549  *  -1.39282774  *
    12       H          2.01944798  *  -0.12033843  *   0.96666360  *
    13       H         -0.35523467  *   1.37491706  *   1.48355979  *
    14       H         -0.05816666  *  -1.52467162  *   2.19178223  *
    15       H         -2.57415063  *  -0.51729358  *   1.26619508  *
    16       H         -2.16985254  *  -1.95305382  *   0.30577503  *
    17       H         -1.96683607  *  -0.22472470  *  -2.19178223  *
    18       H         -2.37164508  *   1.20903112  *  -1.23273932  *
    19       H         -0.80763308  *   1.10710384  *  -2.05712215  *
    20       H          0.56971150  *  -1.91199553  *  -0.71539831  *

                             CARTESIAN COORDINATES

   1    C        1.765310504     1.020863958    -0.845507642
   2    C        1.222693479     0.136130138     0.248332401
   3    C       -0.129823902     0.514430945     0.916675789
   4    C       -0.378056198    -1.028405305     1.315793684
   5    C       -1.790401784    -1.010626890     0.695100056
   6    C       -0.988696863    -0.119832244    -0.299235922
   7    C       -1.552290748     0.522353635    -1.497049728
   8    C        0.314781468    -1.065400466    -0.140243591
   9    H        0.999003119     1.296887358    -1.579359250
  10    H        2.172084584     1.953053825    -0.434027392
  11    H        2.574150629     0.520975493    -1.392827745
  12    H        2.019447984    -0.120338431     0.966663603
  13    H       -0.355234666     1.374917059     1.483559792
  14    H       -0.058166661    -1.524671619     2.191782227
  15    H       -2.574150629    -0.517293585     1.266195078
  16    H       -2.169852539    -1.953053825     0.305775026
  17    H       -1.966836074    -0.224724697    -2.191782227
  18    H       -2.371645084     1.209031122    -1.232739319
  19    H       -0.807633082     1.107103836    -2.057122148
  20    H        0.569711497    -1.911995530    -0.715398306


           Empirical Formula: C8 H12  =    20 atoms



      MOLECULAR POINT GROUP   :   Cs  


                  EIGENVALUES  
 -33.46532 -26.98340 -25.98215 -23.47926 -21.66877 -20.30565 -19.45656 -17.18828
 -16.22613 -15.70248 -15.40017 -14.50600 -14.15566 -13.80900 -13.77357 -12.90132
 -11.67361 -11.33423 -11.21527 -11.01012 -10.64145 -10.54910   2.32475   3.06873
   3.09387   3.18421   3.41602   3.49469   4.42128   4.63456   4.71409   5.33390
   5.62099   5.72509   5.84623   5.90984   5.91547   6.19218   6.22356   6.28408
   6.38152   6.56457   6.85734   7.15273


              NET ATOMIC CHARGES AND DIPOLE CONTRIBUTIONS

  ATOM NO.   TYPE          CHARGE      No. of ELECS.   s-Pop       p-Pop       
    1          C          -0.461462        4.4615     1.05080     3.41066
    2          C          -0.127424        4.1274     1.06981     3.05761
    3          C          -0.179986        4.1800     1.11249     3.06750
    4          C          -0.151368        4.1514     1.10174     3.04963
    5          C          -0.341901        4.3419     1.07617     3.26573
    6          C           0.054702        3.9453     1.08892     2.85638
    7          C          -0.464768        4.4648     1.04588     3.41888
    8          C          -0.180273        4.1803     1.11247     3.06780
    9          H           0.154960        0.8450     0.84504
   10          H           0.153639        0.8464     0.84636
   11          H           0.153847        0.8462     0.84615
   12          H           0.142103        0.8579     0.85790
   13          H           0.149822        0.8502     0.85018
   14          H           0.154139        0.8459     0.84586
   15          H           0.149834        0.8502     0.85017
   16          H           0.149904        0.8501     0.85010
   17          H           0.164640        0.8354     0.83536
   18          H           0.165276        0.8347     0.83472
   19          H           0.164557        0.8354     0.83544
   20          H           0.149760        0.8502     0.85024
 DIPOLE           X         Y         Z       TOTAL
 POINT-CHG.    -0.154     0.415    -0.680     0.811
 HYBRID        -0.053     0.002    -0.027     0.060
 SUM           -0.207     0.417    -0.706     0.846


          ATOMIC ORBITAL ELECTRON POPULATIONS

     Atom    s        px        py        pz   
    1  C   1.05080   1.16538   1.13313   1.11215
    2  C   1.06981   1.01007   1.00815   1.03939
    3  C   1.11249   1.00984   1.01901   1.03864
    4  C   1.10174   0.99564   1.02304   1.03095
    5  C   1.07617   1.03892   1.13300   1.09381
    6  C   1.08892   0.94284   0.97096   0.94258
    7  C   1.04588   1.16689   1.16193   1.09006
    8  C   1.11247   1.00530   1.04017   1.02234
    9  H   0.84504
   10  H   0.84636
   11  H   0.84615
   12  H   0.85790
   13  H   0.85018
   14  H   0.84586
   15  H   0.85017
   16  H   0.85010
   17  H   0.83536
   18  H   0.83472
   19  H   0.83544
   20  H   0.85024

 **********************
 *                    *
 * JOB ENDED NORMALLY *
 *                    *
 **********************



 TOTAL JOB TIME:             1.37 SECONDS

 == MOPAC DONE ==
