 *******************************************************************************
 **                                                                           **
 **                              MOPAC v23.2                                  **
 **                                                                           **
 *******************************************************************************
 **          Digital Object Identifier (DOI): 10.5281/zenodo.6511958          **
 **    Visit the DOI location for information on how to cite this program.    **
 *******************************************************************************

                              PM7 CALCULATION RESULTS

 *******************************************************************************
 *  CALCULATION DONE: (MAX THREADS = 40)             Fri Sep 19 21:27:55 2025  *
 *  PM7        - The PM7 Hamiltonian to be used
 *
 *
 *
 *                 CHARGE ON SYSTEM = +1
 *
 *
 *
 *  1SCF       - DO 1 SCF AND THEN STOP 
 *  T=         - A TIME OF 172800.0 SECONDS REQUESTED
 *  DUMP=N     - RESTART FILE WRITTEN EVERY 7200.0 SECONDS REQUESTED
 *  RELSCF     - DEFAULT SCF CRITERION MULTIPLIED BY 0.0001
 *              (DEFAULT SCF CRITERION = 0.00010)
 *  GRADIENTS  - ALL GRADIENTS TO BE PRINTED
 *  DISP       - PRINT DISPERSION AND HYDROGEN BOND ENERGIES
 *******************************************************************************
PM7 1SCF GRADIENTS DISP RELSCF=0.0001 CHARGE=1
 Title: ASE calculation

   ATOM   CHEMICAL          X               Y               Z
  NUMBER   SYMBOL      (ANGSTROMS)     (ANGSTROMS)     (ANGSTROMS)

     1       C         -2.80925503  *  -0.36687064  *   0.10650634  *
     2       N         -1.36823659  *  -0.20392130  *   0.04199353  *
     3       C         -0.72177181  *   0.91617447  *  -0.37305677  *
     4       C          0.70009019  *   0.65931072  *  -0.27594478  *
     5       N          1.71421380  *   1.46267884  *  -0.59045522  *
     6       C          0.83149183  *  -0.69889411  *   0.23990003  *
     7       C          2.13090843  *  -1.34148219  *   0.48394173  *
     8       O          3.14349755  *  -0.72847753  *   0.23403454  *
     9       C         -0.44342336  *  -1.19266422  *   0.42187309  *
    10       H         -3.32133018  *   0.18577611  *  -0.70832906  *
    11       H         -3.21053847  *   0.00796904  *   1.07418107  *
    12       H         -3.10197601  *  -1.43322692  *   0.00994059  *
    13       H         -1.21659029  *   1.81744431  *  -0.70712218  *
    14       H          2.67693807  *   1.11523854  *  -0.47195900  *
    15       H          1.58839886  *   2.39716684  *  -0.94649829  *
    16       H          2.15017969  *  -2.36264845  *   0.88690791  *
    17       H         -0.77053860  *  -2.16024063  *   0.78695328  *



          CARTESIAN COORDINATES 

    NO.       ATOM           X           Y           Z

     1         C         -2.8093     -0.3669      0.1065
     2         N         -1.3682     -0.2039      0.0420
     3         C         -0.7218      0.9162     -0.3731
     4         C          0.7001      0.6593     -0.2759
     5         N          1.7142      1.4627     -0.5905
     6         C          0.8315     -0.6989      0.2399
     7         C          2.1309     -1.3415      0.4839
     8         O          3.1435     -0.7285      0.2340
     9         C         -0.4434     -1.1927      0.4219
    10         H         -3.3213      0.1858     -0.7083
    11         H         -3.2105      0.0080      1.0742
    12         H         -3.1020     -1.4332      0.0099
    13         H         -1.2166      1.8174     -0.7071
    14         H          2.6769      1.1152     -0.4720
    15         H          1.5884      2.3972     -0.9465
    16         H          2.1502     -2.3626      0.8869
    17         H         -0.7705     -2.1602      0.7870

 General Reference for PM7:
 "Optimization of Parameters for Semiempirical Methods VI: More Modifications to the 
 NDDO Approximations and Re-optimization of Parameters", J. J. P. Stewart, J. Mol. Mod., 1:32, 19 (2013)
 https://link.springer.com/article/10.1007/s00894-012-1667-x

           Empirical Formula: C6 H8 N2 O  =    17 atoms



      MOLECULAR POINT GROUP   :   C1  


          UHF CALCULATION, NO. OF ALPHA ELECTRONS =   24
                           NO. OF BETA  ELECTRONS =   23
  SCF CRITERION =    0.1000E-07

 -------------------------------------------------------------------------------
 PM7 1SCF GRADIENTS DISP RELSCF=0.0001 CHARGE=1
 Title: ASE calculation



     1SCF WAS SPECIFIED, SO BFGS WAS NOT USED                 
     SCF FIELD WAS ACHIEVED                                   


                              PM7 CALCULATION
                                                       MOPAC v23.2 Linux
                                                       Fri Sep 19 21:27:56 2025




          FINAL HEAT OF FORMATION =        159.57031 KCAL/MOL =     667.64216 KJ/MOL

          TOTAL ENERGY            =     -34703.26549 KCAL/MOL = ELECTRONIC ENERGY + CORE-CORE REPULSION
          ENERGY OF ATOMS         =      34865.63902 KCAL/MOL
                              SUM =        162.37353 KCAL/MOL
          DISPERSION ENERGY       =         -1.82996 KCAL/MOL
          H-BOND ENERGY           =         -0.97327 KCAL/MOL
                              SUM =        159.57031 KCAL/MOL = FINAL HEAT OF FORMATION



          TOTAL ENERGY            =      -1504.87602 EV
          ELECTRONIC ENERGY       =      -6910.05979 EV 
          CORE-CORE REPULSION     =       5405.18376 EV
          COSMO AREA              =        159.67 SQUARE ANGSTROMS
          COSMO VOLUME            =        153.05 CUBIC ANGSTROMS

          GRADIENT NORM           =          0.80914          =       0.19625 PER ATOM
          IONIZATION POTENTIAL    =         13.735941 EV
          ALPHA SOMO LUMO (EV)    =        -13.736 -4.735
          BETA  SOMO LUMO (EV)    =        -14.434 -6.554
          NO. OF ALPHA ELECTRONS  =         24
          NO. OF BETA  ELECTRONS  =         23
          MOLECULAR WEIGHT        =        124.1420         POINT GROUP:  C1  

          MOLECULAR DIMENSIONS (Angstroms)

            Atom       Atom       Distance
            H    10    O     8     6.59681
            H    17    H    15     5.22373
            O     8    H    11     1.55758


          SCF CALCULATIONS        =          1

          WALL-CLOCK TIME         =      1.000 SECONDS
          COMPUTATION TIME        =      0.736 SECONDS

          LARGEST ATOMIC GRADIENTS

          Atom     Label                     Cartesian Gradients           Cartesian Coordinates       |Gradient|
                                           X          Y          Z        X          Y          Z

            10       H                   0.035     -0.343      0.145   -3.32133    0.18578   -0.70833      0.374
            14       H                  -0.004     -0.231     -0.228    2.67694    1.11524   -0.47196      0.325
            13       H                  -0.039     -0.151      0.281   -1.21659    1.81744   -0.70712      0.321
            11       H                  -0.137     -0.025     -0.188   -3.21054    0.00797    1.07418      0.233
            12       H                   0.020      0.206     -0.088   -3.10198   -1.43323    0.00994      0.225
             6       C                  -0.061      0.127      0.129    0.83149   -0.69889    0.23990      0.191
             4       C                  -0.039      0.120      0.117    0.70009    0.65931   -0.27594      0.172
             8       O                   0.129     -0.037     -0.091    3.14350   -0.72848    0.23403      0.162
            15       H                   0.112      0.101     -0.048    1.58840    2.39717   -0.94650      0.158
            17       H                  -0.120      0.073     -0.047   -0.77054   -2.16024    0.78695      0.148



       FINAL  POINT  AND  DERIVATIVES

   PARAMETER     ATOM    TYPE            VALUE        GRADIENT
      1          1  C    CARTESIAN X    -2.809255      0.136288  KCAL/ANGSTROM
      2          1  C    CARTESIAN Y    -0.366871      0.002523  KCAL/ANGSTROM
      3          1  C    CARTESIAN Z     0.106506      0.046949  KCAL/ANGSTROM
      4          2  N    CARTESIAN X    -1.368237      0.016579  KCAL/ANGSTROM
      5          2  N    CARTESIAN Y    -0.203921     -0.028625  KCAL/ANGSTROM
      6          2  N    CARTESIAN Z     0.041994     -0.107753  KCAL/ANGSTROM
      7          3  C    CARTESIAN X    -0.721772      0.010274  KCAL/ANGSTROM
      8          3  C    CARTESIAN Y     0.916174     -0.011218  KCAL/ANGSTROM
      9          3  C    CARTESIAN Z    -0.373057     -0.003057  KCAL/ANGSTROM
     10          4  C    CARTESIAN X     0.700090     -0.038802  KCAL/ANGSTROM
     11          4  C    CARTESIAN Y     0.659311      0.120072  KCAL/ANGSTROM
     12          4  C    CARTESIAN Z    -0.275945      0.117278  KCAL/ANGSTROM
     13          5  N    CARTESIAN X     1.714214      0.047279  KCAL/ANGSTROM
     14          5  N    CARTESIAN Y     1.462679      0.095372  KCAL/ANGSTROM
     15          5  N    CARTESIAN Z    -0.590455      0.025111  KCAL/ANGSTROM
     16          6  C    CARTESIAN X     0.831492     -0.060582  KCAL/ANGSTROM
     17          6  C    CARTESIAN Y    -0.698894      0.126859  KCAL/ANGSTROM
     18          6  C    CARTESIAN Z     0.239900      0.128776  KCAL/ANGSTROM
     19          7  C    CARTESIAN X     2.130908     -0.037234  KCAL/ANGSTROM
     20          7  C    CARTESIAN Y    -1.341482      0.051462  KCAL/ANGSTROM
     21          7  C    CARTESIAN Z     0.483942      0.063794  KCAL/ANGSTROM
     22          8  O    CARTESIAN X     3.143498      0.128925  KCAL/ANGSTROM
     23          8  O    CARTESIAN Y    -0.728478     -0.036990  KCAL/ANGSTROM
     24          8  O    CARTESIAN Z     0.234035     -0.091299  KCAL/ANGSTROM
     25          9  C    CARTESIAN X    -0.443423     -0.032232  KCAL/ANGSTROM
     26          9  C    CARTESIAN Y    -1.192664      0.048086  KCAL/ANGSTROM
     27          9  C    CARTESIAN Z     0.421873     -0.045152  KCAL/ANGSTROM
     28         10  H    CARTESIAN X    -3.321330      0.035454  KCAL/ANGSTROM
     29         10  H    CARTESIAN Y     0.185776     -0.342634  KCAL/ANGSTROM
     30         10  H    CARTESIAN Z    -0.708329      0.145348  KCAL/ANGSTROM
     31         11  H    CARTESIAN X    -3.210538     -0.136533  KCAL/ANGSTROM
     32         11  H    CARTESIAN Y     0.007969     -0.024821  KCAL/ANGSTROM
     33         11  H    CARTESIAN Z     1.074181     -0.187506  KCAL/ANGSTROM
     34         12  H    CARTESIAN X    -3.101976      0.019967  KCAL/ANGSTROM
     35         12  H    CARTESIAN Y    -1.433227      0.205772  KCAL/ANGSTROM
     36         12  H    CARTESIAN Z     0.009941     -0.088009  KCAL/ANGSTROM
     37         13  H    CARTESIAN X    -1.216590     -0.039435  KCAL/ANGSTROM
     38         13  H    CARTESIAN Y     1.817444     -0.150752  KCAL/ANGSTROM
     39         13  H    CARTESIAN Z    -0.707122      0.280948  KCAL/ANGSTROM
     40         14  H    CARTESIAN X     2.676938     -0.003597  KCAL/ANGSTROM
     41         14  H    CARTESIAN Y     1.115239     -0.231141  KCAL/ANGSTROM
     42         14  H    CARTESIAN Z    -0.471959     -0.227839  KCAL/ANGSTROM
     43         15  H    CARTESIAN X     1.588399      0.111883  KCAL/ANGSTROM
     44         15  H    CARTESIAN Y     2.397167      0.101353  KCAL/ANGSTROM
     45         15  H    CARTESIAN Z    -0.946498     -0.048179  KCAL/ANGSTROM
     46         16  H    CARTESIAN X     2.150180     -0.038557  KCAL/ANGSTROM
     47         16  H    CARTESIAN Y    -2.362648      0.001516  KCAL/ANGSTROM
     48         16  H    CARTESIAN Z     0.886908      0.037729  KCAL/ANGSTROM
     49         17  H    CARTESIAN X    -0.770539     -0.119699  KCAL/ANGSTROM
     50         17  H    CARTESIAN Y    -2.160241      0.073183  KCAL/ANGSTROM
     51         17  H    CARTESIAN Z     0.786953     -0.047101  KCAL/ANGSTROM




   ATOM   CHEMICAL          X               Y               Z
  NUMBER   SYMBOL      (ANGSTROMS)     (ANGSTROMS)     (ANGSTROMS)

     1       C         -2.80925503  *  -0.36687064  *   0.10650634  *
     2       N         -1.36823659  *  -0.20392130  *   0.04199353  *
     3       C         -0.72177181  *   0.91617447  *  -0.37305677  *
     4       C          0.70009019  *   0.65931072  *  -0.27594478  *
     5       N          1.71421380  *   1.46267884  *  -0.59045522  *
     6       C          0.83149183  *  -0.69889411  *   0.23990003  *
     7       C          2.13090843  *  -1.34148219  *   0.48394173  *
     8       O          3.14349755  *  -0.72847753  *   0.23403454  *
     9       C         -0.44342336  *  -1.19266422  *   0.42187309  *
    10       H         -3.32133018  *   0.18577611  *  -0.70832906  *
    11       H         -3.21053847  *   0.00796904  *   1.07418107  *
    12       H         -3.10197601  *  -1.43322692  *   0.00994059  *
    13       H         -1.21659029  *   1.81744431  *  -0.70712218  *
    14       H          2.67693807  *   1.11523854  *  -0.47195900  *
    15       H          1.58839886  *   2.39716684  *  -0.94649829  *
    16       H          2.15017969  *  -2.36264845  *   0.88690791  *
    17       H         -0.77053860  *  -2.16024063  *   0.78695328  *

                             CARTESIAN COORDINATES

   1    C       -2.809255030    -0.366870645     0.106506345
   2    N       -1.368236592    -0.203921296     0.041993526
   3    C       -0.721771813     0.916174472    -0.373056765
   4    C        0.700090186     0.659310718    -0.275944781
   5    N        1.714213796     1.462678839    -0.590455223
   6    C        0.831491832    -0.698894108     0.239900026
   7    C        2.130908429    -1.341482191     0.483941731
   8    O        3.143497551    -0.728477531     0.234034543
   9    C       -0.443423360    -1.192664220     0.421873093
  10    H       -3.321330177     0.185776106    -0.708329062
  11    H       -3.210538467     0.007969040     1.074181075
  12    H       -3.101976014    -1.433226921     0.009940590
  13    H       -1.216590287     1.817444310    -0.707122178
  14    H        2.676938071     1.115238536    -0.471959004
  15    H        1.588398863     2.397166836    -0.946498294
  16    H        2.150179695    -2.362648445     0.886907915
  17    H       -0.770538595    -2.160240633     0.786953277


           Empirical Formula: C6 H8 N2 O  =    17 atoms



      MOLECULAR POINT GROUP   :   C1  


          ALPHA EIGENVALUES  
 -42.99420 -42.52510 -35.13541 -33.49559 -30.57052 -28.91406 -27.18130 -25.88149
 -24.82121 -22.99000 -21.88226 -21.32494 -21.20201 -20.05561 -19.52076 -19.28833
 -18.88310 -18.11984 -18.08585 -17.92329 -17.25633 -14.88881 -14.45353 -13.73594
  -4.73516  -4.61472  -3.51434  -2.71360  -2.50238  -1.89078  -1.51401  -0.68074
  -0.42146  -0.23311   0.04927   0.52656   0.63824   0.69759   0.79355   0.89066
   0.93523   1.38927   1.51412   1.55926


           BETA EIGENVALUES 
 -42.81882 -41.57231 -35.08885 -33.38827 -30.46379 -28.80717 -27.11703 -25.74958
 -24.69288 -22.87257 -21.71395 -21.22772 -20.80105 -20.01316 -19.46176 -18.84551
 -18.79526 -18.05689 -17.88257 -17.74653 -16.12149 -14.54054 -14.43394  -6.55423
  -4.26883  -3.61073  -3.36299  -2.58036  -2.11872  -1.86194  -1.49090  -0.63429
  -0.39492  -0.14188   0.10502   0.66096   0.71146   0.73493   0.81946   0.92658
   1.02486   1.39372   1.53489   1.71341


              NET ATOMIC CHARGES AND DIPOLE CONTRIBUTIONS

  ATOM NO.   TYPE          CHARGE      No. of ELECS.   s-Pop       p-Pop       
    1          C          -0.278025        4.2780     1.06808     3.20995
    2          N          -0.111890        5.1119     1.50799     3.60390
    3          C          -0.054732        4.0547     1.10209     2.95265
    4          C           0.121187        3.8788     1.05498     2.82383
    5          N          -0.267668        5.2677     1.49949     3.76818
    6          C          -0.274361        4.2744     1.08421     3.19015
    7          C           0.387479        3.6125     1.13182     2.48071
    8          O          -0.424194        6.4242     1.87922     4.54498
    9          C           0.052217        3.9478     1.10796     2.83982
   10          H           0.192350        0.8076     0.80765
   11          H           0.195529        0.8045     0.80447
   12          H           0.193340        0.8067     0.80666
   13          H           0.213572        0.7864     0.78643
   14          H           0.361752        0.6382     0.63825
   15          H           0.324878        0.6751     0.67512
   16          H           0.159175        0.8408     0.84083
   17          H           0.209392        0.7906     0.79061
 DIPOLE           X         Y         Z       TOTAL
 POINT-CHG.    -4.765     1.610    -0.569     5.061
 HYBRID         0.217     0.764    -0.306     0.851
 SUM           -4.548     2.373    -0.875     5.204


          ATOMIC ORBITAL ELECTRON POPULATIONS

     Atom    s        px        py        pz   
    1  C   1.06808   0.78609   1.21364   1.21021
    2  N   1.50799   1.11451   1.13529   1.35411
    3  C   1.10209   0.94801   0.96913   1.03550
    4  C   1.05498   0.89258   0.94117   0.99008
    5  N   1.49949   1.18790   1.20658   1.37370
    6  C   1.08421   1.03993   0.99895   1.15126
    7  C   1.13182   0.81986   0.94838   0.71247
    8  O   1.87922   1.44203   1.68295   1.42000
    9  C   1.10796   0.89915   0.98073   0.95994
   10  H   0.80765
   11  H   0.80447
   12  H   0.80666
   13  H   0.78643
   14  H   0.63825
   15  H   0.67512
   16  H   0.84083
   17  H   0.79061


                    (SZ)    =    0.500000
                    (S**2)  =    0.794143


          ATOMIC ORBITAL SPIN POPULATIONS

    Atom   Total    s     px     py     pz   
         Atomic
    1  C -0.0060 -0.001 -0.005 -0.000 -0.000
    2  N  0.0841  0.003  0.003  0.008  0.070
    3  C  0.3391  0.008  0.009  0.044  0.279
    4  C -0.0215 -0.007 -0.016 -0.007  0.008
    5  N  0.5306  0.023  0.022  0.078  0.407
    6  C  0.0649  0.001  0.001  0.009  0.053
    7  C -0.0083 -0.001 -0.002 -0.001 -0.005
    8  O  0.0117  0.000 -0.000  0.001  0.010
    9  C  0.0561  0.000 -0.001  0.007  0.049
   10  H  0.0012  0.001
   11  H  0.0037  0.004
   12  H  0.0006  0.001
   13  H -0.0092 -0.009
   14  H -0.0225 -0.022
   15  H -0.0225 -0.022
   16  H  0.0000  0.000
   17  H -0.0019 -0.002

 **********************
 *                    *
 * JOB ENDED NORMALLY *
 *                    *
 **********************



 TOTAL JOB TIME:             1.48 SECONDS

 == MOPAC DONE ==
