 *******************************************************************************
 **                                                                           **
 **                              MOPAC v23.2                                  **
 **                                                                           **
 *******************************************************************************
 **          Digital Object Identifier (DOI): 10.5281/zenodo.6511958          **
 **    Visit the DOI location for information on how to cite this program.    **
 *******************************************************************************

                              PM7 CALCULATION RESULTS

 *******************************************************************************
 *  CALCULATION DONE: (MAX THREADS = 40)             Fri Sep 19 21:27:01 2025  *
 *  PM7        - The PM7 Hamiltonian to be used
 *  1SCF       - DO 1 SCF AND THEN STOP 
 *  T=         - A TIME OF 172800.0 SECONDS REQUESTED
 *  DUMP=N     - RESTART FILE WRITTEN EVERY 7200.0 SECONDS REQUESTED
 *  RELSCF     - DEFAULT SCF CRITERION MULTIPLIED BY 0.0001
 *              (DEFAULT SCF CRITERION = 0.00010)
 *  GRADIENTS  - ALL GRADIENTS TO BE PRINTED
 *  DISP       - PRINT DISPERSION AND HYDROGEN BOND ENERGIES
 *******************************************************************************
PM7 1SCF GRADIENTS DISP RELSCF=0.0001
 Title: ASE calculation

   ATOM   CHEMICAL          X               Y               Z
  NUMBER   SYMBOL      (ANGSTROMS)     (ANGSTROMS)     (ANGSTROMS)

     1       C         -2.27753118  *   0.00555042  *  -0.51118066  *
     2       C         -0.82311081  *  -0.06623867  *  -0.17235650  *
     3       C         -0.05274938  *   1.19091851  *  -0.20322371  *
     4       C          1.25405326  *   1.11012382  *   0.10386255  *
     5       C          1.71168929  *  -0.27808162  *   0.43197498  *
     6       O          0.86656852  *  -0.75251526  *   1.50448080  *
     7       C         -0.34717496  *  -1.09061623  *   0.89051412  *
     8       C         -0.01744006  *  -1.32854785  *  -0.57603435  *
     9       O          1.36167703  *  -1.10959660  *  -0.69745850  *
    10       H         -2.43192800  *   0.39512299  *  -1.52845039  *
    11       H         -2.81608627  *   0.67233162  *   0.17861540  *
    12       H         -2.76961162  *  -0.97506961  *  -0.46268458  *
    13       H         -0.56767460  *   2.10584385  *  -0.46766917  *
    14       H          1.95621729  *   1.92418665  *   0.12958534  *
    15       H          2.75306688  *  -0.48036663  *   0.69899153  *
    16       H         -0.98198104  *  -1.62880821  *   1.56851697  *
    17       H         -0.34578674  *  -2.08778863  *  -1.26013373  *



          CARTESIAN COORDINATES 

    NO.       ATOM           X           Y           Z

     1         C         -2.2775      0.0056     -0.5112
     2         C         -0.8231     -0.0662     -0.1724
     3         C         -0.0527      1.1909     -0.2032
     4         C          1.2541      1.1101      0.1039
     5         C          1.7117     -0.2781      0.4320
     6         O          0.8666     -0.7525      1.5045
     7         C         -0.3472     -1.0906      0.8905
     8         C         -0.0174     -1.3285     -0.5760
     9         O          1.3617     -1.1096     -0.6975
    10         H         -2.4319      0.3951     -1.5285
    11         H         -2.8161      0.6723      0.1786
    12         H         -2.7696     -0.9751     -0.4627
    13         H         -0.5677      2.1058     -0.4677
    14         H          1.9562      1.9242      0.1296
    15         H          2.7531     -0.4804      0.6990
    16         H         -0.9820     -1.6288      1.5685
    17         H         -0.3458     -2.0878     -1.2601

 General Reference for PM7:
 "Optimization of Parameters for Semiempirical Methods VI: More Modifications to the 
 NDDO Approximations and Re-optimization of Parameters", J. J. P. Stewart, J. Mol. Mod., 1:32, 19 (2013)
 https://link.springer.com/article/10.1007/s00894-012-1667-x

           Empirical Formula: C7 H8 O2  =    17 atoms



      MOLECULAR POINT GROUP   :   Cs  


      RHF CALCULATION, NO. OF DOUBLY OCCUPIED LEVELS = 24

  SCF CRITERION =    0.1000E-07

 -------------------------------------------------------------------------------
 PM7 1SCF GRADIENTS DISP RELSCF=0.0001
 Title: ASE calculation



     1SCF WAS SPECIFIED, SO BFGS WAS NOT USED                 
     SCF FIELD WAS ACHIEVED                                   


                              PM7 CALCULATION
                                                       MOPAC v23.2 Linux
                                                       Fri Sep 19 21:27:01 2025




          FINAL HEAT OF FORMATION =        -28.32856 KCAL/MOL =    -118.52670 KJ/MOL

          TOTAL ENERGY            =     -35894.67614 KCAL/MOL = ELECTRONIC ENERGY + CORE-CORE REPULSION
          ENERGY OF ATOMS         =      35867.73354 KCAL/MOL
                              SUM =        -26.94260 KCAL/MOL
          DISPERSION ENERGY       =         -1.38597 KCAL/MOL
                              SUM =        -28.32856 KCAL/MOL = FINAL HEAT OF FORMATION



          TOTAL ENERGY            =      -1556.54048 EV
          ELECTRONIC ENERGY       =      -7490.14607 EV 
          CORE-CORE REPULSION     =       5933.60559 EV
          COSMO AREA              =        145.33 SQUARE ANGSTROMS
          COSMO VOLUME            =        143.40 CUBIC ANGSTROMS

          GRADIENT NORM           =          1.23832          =       0.30034 PER ATOM
          IONIZATION POTENTIAL    =          9.689659 EV
          HOMO LUMO ENERGIES (EV) =         -9.690  0.362
          NO. OF FILLED LEVELS    =         24
          MOLECULAR WEIGHT        =        124.1390         POINT GROUP:  Cs  

          MOLECULAR DIMENSIONS (Angstroms)

            Atom       Atom       Distance
            H    15    H    11     5.71095
            H    14    H    17     4.57029
            H    10    H    16     3.26828


          SCF CALCULATIONS        =          1

          WALL-CLOCK TIME         =      0.461 SECONDS
          COMPUTATION TIME        =      0.247 SECONDS

          LARGEST ATOMIC GRADIENTS

          Atom     Label                     Cartesian Gradients           Cartesian Coordinates       |Gradient|
                                           X          Y          Z        X          Y          Z

             7       C                   0.084      0.343      0.279   -0.34717   -1.09062    0.89051      0.450
             8       C                   0.215      0.245     -0.305   -0.01744   -1.32855   -0.57603      0.446
             6       O                  -0.088      0.407      0.061    0.86657   -0.75252    1.50448      0.421
             9       O                  -0.027      0.359     -0.209    1.36168   -1.10960   -0.69746      0.416
             3       C                   0.281     -0.153      0.086   -0.05275    1.19092   -0.20322      0.332
            17       H                  -0.014     -0.310     -0.094   -0.34579   -2.08779   -1.26013      0.324
            16       H                  -0.074     -0.260      0.172   -0.98198   -1.62881    1.56852      0.320
            12       H                   0.115     -0.289      0.072   -2.76961   -0.97507   -0.46268      0.319
            13       H                   0.119     -0.262      0.067   -0.56767    2.10584   -0.46767      0.296
            15       H                  -0.086     -0.254      0.022    2.75307   -0.48037    0.69899      0.269



       FINAL  POINT  AND  DERIVATIVES

   PARAMETER     ATOM    TYPE            VALUE        GRADIENT
      1          1  C    CARTESIAN X    -2.277531     -0.224584  KCAL/ANGSTROM
      2          1  C    CARTESIAN Y     0.005550     -0.029959  KCAL/ANGSTROM
      3          1  C    CARTESIAN Z    -0.511181     -0.045151  KCAL/ANGSTROM
      4          2  C    CARTESIAN X    -0.823111     -0.099365  KCAL/ANGSTROM
      5          2  C    CARTESIAN Y    -0.066239      0.072954  KCAL/ANGSTROM
      6          2  C    CARTESIAN Z    -0.172357     -0.035182  KCAL/ANGSTROM
      7          3  C    CARTESIAN X    -0.052749      0.281440  KCAL/ANGSTROM
      8          3  C    CARTESIAN Y     1.190919     -0.152735  KCAL/ANGSTROM
      9          3  C    CARTESIAN Z    -0.203224      0.085895  KCAL/ANGSTROM
     10          4  C    CARTESIAN X     1.254053     -0.195659  KCAL/ANGSTROM
     11          4  C    CARTESIAN Y     1.110124     -0.079147  KCAL/ANGSTROM
     12          4  C    CARTESIAN Z     0.103863     -0.034057  KCAL/ANGSTROM
     13          5  C    CARTESIAN X     1.711689      0.064546  KCAL/ANGSTROM
     14          5  C    CARTESIAN Y    -0.278082      0.043096  KCAL/ANGSTROM
     15          5  C    CARTESIAN Z     0.431975      0.007139  KCAL/ANGSTROM
     16          6  O    CARTESIAN X     0.866569     -0.087759  KCAL/ANGSTROM
     17          6  O    CARTESIAN Y    -0.752515      0.406825  KCAL/ANGSTROM
     18          6  O    CARTESIAN Z     1.504481      0.061046  KCAL/ANGSTROM
     19          7  C    CARTESIAN X    -0.347175      0.083917  KCAL/ANGSTROM
     20          7  C    CARTESIAN Y    -1.090616      0.343002  KCAL/ANGSTROM
     21          7  C    CARTESIAN Z     0.890514      0.278706  KCAL/ANGSTROM
     22          8  C    CARTESIAN X    -0.017440      0.214918  KCAL/ANGSTROM
     23          8  C    CARTESIAN Y    -1.328548      0.245341  KCAL/ANGSTROM
     24          8  C    CARTESIAN Z    -0.576034     -0.304756  KCAL/ANGSTROM
     25          9  O    CARTESIAN X     1.361677     -0.026834  KCAL/ANGSTROM
     26          9  O    CARTESIAN Y    -1.109597      0.358615  KCAL/ANGSTROM
     27          9  O    CARTESIAN Z    -0.697458     -0.209358  KCAL/ANGSTROM
     28         10  H    CARTESIAN X    -2.431928     -0.067914  KCAL/ANGSTROM
     29         10  H    CARTESIAN Y     0.395123      0.151486  KCAL/ANGSTROM
     30         10  H    CARTESIAN Z    -1.528450     -0.043019  KCAL/ANGSTROM
     31         11  H    CARTESIAN X    -2.816086     -0.068143  KCAL/ANGSTROM
     32         11  H    CARTESIAN Y     0.672332      0.149783  KCAL/ANGSTROM
     33         11  H    CARTESIAN Z     0.178615     -0.032254  KCAL/ANGSTROM
     34         12  H    CARTESIAN X    -2.769612      0.114814  KCAL/ANGSTROM
     35         12  H    CARTESIAN Y    -0.975070     -0.288796  KCAL/ANGSTROM
     36         12  H    CARTESIAN Z    -0.462685      0.072144  KCAL/ANGSTROM
     37         13  H    CARTESIAN X    -0.567675      0.118880  KCAL/ANGSTROM
     38         13  H    CARTESIAN Y     2.105844     -0.262371  KCAL/ANGSTROM
     39         13  H    CARTESIAN Z    -0.467669      0.067094  KCAL/ANGSTROM
     40         14  H    CARTESIAN X     1.956217      0.066537  KCAL/ANGSTROM
     41         14  H    CARTESIAN Y     1.924187     -0.134378  KCAL/ANGSTROM
     42         14  H    CARTESIAN Z     0.129585      0.031654  KCAL/ANGSTROM
     43         15  H    CARTESIAN X     2.753067     -0.086026  KCAL/ANGSTROM
     44         15  H    CARTESIAN Y    -0.480367     -0.254255  KCAL/ANGSTROM
     45         15  H    CARTESIAN Z     0.698992      0.021859  KCAL/ANGSTROM
     46         16  H    CARTESIAN X    -0.981981     -0.074443  KCAL/ANGSTROM
     47         16  H    CARTESIAN Y    -1.628808     -0.259693  KCAL/ANGSTROM
     48         16  H    CARTESIAN Z     1.568517      0.171775  KCAL/ANGSTROM
     49         17  H    CARTESIAN X    -0.345787     -0.014326  KCAL/ANGSTROM
     50         17  H    CARTESIAN Y    -2.087789     -0.309772  KCAL/ANGSTROM
     51         17  H    CARTESIAN Z    -1.260134     -0.093538  KCAL/ANGSTROM




   ATOM   CHEMICAL          X               Y               Z
  NUMBER   SYMBOL      (ANGSTROMS)     (ANGSTROMS)     (ANGSTROMS)

     1       C         -2.27753118  *   0.00555042  *  -0.51118066  *
     2       C         -0.82311081  *  -0.06623867  *  -0.17235650  *
     3       C         -0.05274938  *   1.19091851  *  -0.20322371  *
     4       C          1.25405326  *   1.11012382  *   0.10386255  *
     5       C          1.71168929  *  -0.27808162  *   0.43197498  *
     6       O          0.86656852  *  -0.75251526  *   1.50448080  *
     7       C         -0.34717496  *  -1.09061623  *   0.89051412  *
     8       C         -0.01744006  *  -1.32854785  *  -0.57603435  *
     9       O          1.36167703  *  -1.10959660  *  -0.69745850  *
    10       H         -2.43192800  *   0.39512299  *  -1.52845039  *
    11       H         -2.81608627  *   0.67233162  *   0.17861540  *
    12       H         -2.76961162  *  -0.97506961  *  -0.46268458  *
    13       H         -0.56767460  *   2.10584385  *  -0.46766917  *
    14       H          1.95621729  *   1.92418665  *   0.12958534  *
    15       H          2.75306688  *  -0.48036663  *   0.69899153  *
    16       H         -0.98198104  *  -1.62880821  *   1.56851697  *
    17       H         -0.34578674  *  -2.08778863  *  -1.26013373  *

                             CARTESIAN COORDINATES

   1    C       -2.277531179     0.005550417    -0.511180658
   2    C       -0.823110813    -0.066238674    -0.172356503
   3    C       -0.052749379     1.190918513    -0.203223706
   4    C        1.254053264     1.110123822     0.103862549
   5    C        1.711689293    -0.278081619     0.431974984
   6    O        0.866568517    -0.752515256     1.504480797
   7    C       -0.347174956    -1.090616230     0.890514119
   8    C       -0.017440061    -1.328547849    -0.576034346
   9    O        1.361677029    -1.109596600    -0.697458499
  10    H       -2.431927999     0.395122987    -1.528450391
  11    H       -2.816086271     0.672331625     0.178615404
  12    H       -2.769611623    -0.975069608    -0.462684581
  13    H       -0.567674598     2.105843848    -0.467669174
  14    H        1.956217285     1.924186655     0.129585344
  15    H        2.753066884    -0.480366631     0.698991526
  16    H       -0.981981041    -1.628808209     1.568516966
  17    H       -0.345786736    -2.087788630    -1.260133734


           Empirical Formula: C7 H8 O2  =    17 atoms



      MOLECULAR POINT GROUP   :   Cs  


                  EIGENVALUES  
 -33.27023 -28.92535 -28.59807 -27.35442 -25.02499 -23.50216 -21.41624 -20.85319
 -18.28361 -17.63163 -16.58771 -16.31746 -15.66617 -14.51704 -14.24525 -14.04031
 -13.92443 -13.61337 -12.59511 -12.28298 -12.24257 -10.93715 -10.01525  -9.68966
   0.36214   1.90367   2.17695   2.18841   3.18917   3.34872   3.55648   3.73405
   4.11246   4.50500   4.52132   5.12018   5.37153   5.42770   5.57995   5.58247
   5.75127   5.83003   6.07298   6.54944


              NET ATOMIC CHARGES AND DIPOLE CONTRIBUTIONS

  ATOM NO.   TYPE          CHARGE      No. of ELECS.   s-Pop       p-Pop       
    1          C          -0.431390        4.4314     1.04669     3.38470
    2          C          -0.119292        4.1193     1.05082     3.06847
    3          C          -0.071120        4.0711     1.09116     2.97996
    4          C          -0.270712        4.2707     1.09733     3.17338
    5          C           0.283701        3.7163     1.12138     2.59492
    6          O          -0.362477        6.3625     1.88947     4.47300
    7          C           0.014314        3.9857     1.09359     2.89210
    8          C           0.014272        3.9857     1.09360     2.89213
    9          O          -0.362489        6.3625     1.88949     4.47300
   10          H           0.158894        0.8411     0.84111
   11          H           0.158896        0.8411     0.84110
   12          H           0.151435        0.8486     0.84856
   13          H           0.154250        0.8457     0.84575
   14          H           0.164927        0.8351     0.83507
   15          H           0.158033        0.8420     0.84197
   16          H           0.179381        0.8206     0.82062
   17          H           0.179375        0.8206     0.82063
 DIPOLE           X         Y         Z       TOTAL
 POINT-CHG.    -1.939     0.496    -0.517     2.067
 HYBRID         0.155     0.091     0.020     0.181
 SUM           -1.784     0.588    -0.497     1.943


          ATOMIC ORBITAL ELECTRON POPULATIONS

     Atom    s        px        py        pz   
    1  C   1.04669   1.02298   1.18389   1.17784
    2  C   1.05082   0.98655   0.96479   1.11712
    3  C   1.09116   0.99674   1.03352   0.94969
    4  C   1.09733   1.04542   1.05662   1.07134
    5  C   1.12138   0.97208   0.87794   0.74490
    6  O   1.88947   1.29242   1.83108   1.34950
    7  C   1.09359   0.90868   1.04513   0.93828
    8  C   1.09360   0.81983   1.03251   1.03979
    9  O   1.88949   1.25814   1.70748   1.50738
   10  H   0.84111
   11  H   0.84110
   12  H   0.84856
   13  H   0.84575
   14  H   0.83507
   15  H   0.84197
   16  H   0.82062
   17  H   0.82063

 **********************
 *                    *
 * JOB ENDED NORMALLY *
 *                    *
 **********************



 TOTAL JOB TIME:             0.84 SECONDS

 == MOPAC DONE ==
