 *******************************************************************************
 **                                                                           **
 **                              MOPAC v23.2                                  **
 **                                                                           **
 *******************************************************************************
 **          Digital Object Identifier (DOI): 10.5281/zenodo.6511958          **
 **    Visit the DOI location for information on how to cite this program.    **
 *******************************************************************************

                              PM7 CALCULATION RESULTS

 *******************************************************************************
 *  CALCULATION DONE: (MAX THREADS = 40)             Fri Sep 19 21:28:58 2025  *
 *  PM7        - The PM7 Hamiltonian to be used
 *
 *
 *
 *                 CHARGE ON SYSTEM = +1
 *
 *
 *
 *  1SCF       - DO 1 SCF AND THEN STOP 
 *  T=         - A TIME OF 172800.0 SECONDS REQUESTED
 *  DUMP=N     - RESTART FILE WRITTEN EVERY 7200.0 SECONDS REQUESTED
 *  RELSCF     - DEFAULT SCF CRITERION MULTIPLIED BY 0.0001
 *              (DEFAULT SCF CRITERION = 0.00010)
 *  GRADIENTS  - ALL GRADIENTS TO BE PRINTED
 *  DISP       - PRINT DISPERSION AND HYDROGEN BOND ENERGIES
 *******************************************************************************
PM7 1SCF GRADIENTS DISP RELSCF=0.0001 CHARGE=1
 Title: ASE calculation

   ATOM   CHEMICAL          X               Y               Z
  NUMBER   SYMBOL      (ANGSTROMS)     (ANGSTROMS)     (ANGSTROMS)

     1       O         -2.55741663  *   2.43049363  *  -2.70662490  *
     2       C         -2.13115194  *   1.71253784  *  -1.90373445  *
     3       O         -1.69081954  *   0.97906198  *  -1.09116536  *
     4       C         -1.69975060  *  -1.46116261  *  -0.36847807  *
     5       C         -0.41756466  *  -0.97687643  *  -0.10562355  *
     6       C          0.03481652  *  -0.12168951  *   1.05638442  *
     7       O          1.45345973  *   0.06872902  *   0.77277219  *
     8       C          1.72932768  *  -0.56718934  *  -0.36410540  *
     9       N          0.66104638  *  -1.19942337  *  -0.90794525  *
    10       H         -2.54256620  *  -1.27234711  *   0.29070351  *
    11       H         -1.91198196  *  -2.05173633  *  -1.26184754  *
    12       H         -0.02482970  *  -0.58762233  *   2.06392268  *
    13       H         -0.41459337  *   0.89925646  *   1.09394656  *
    14       H          2.76029286  *  -0.51755009  *  -0.73740051  *



          CARTESIAN COORDINATES 

    NO.       ATOM           X           Y           Z

     1         O         -2.5574      2.4305     -2.7066
     2         C         -2.1312      1.7125     -1.9037
     3         O         -1.6908      0.9791     -1.0912
     4         C         -1.6998     -1.4612     -0.3685
     5         C         -0.4176     -0.9769     -0.1056
     6         C          0.0348     -0.1217      1.0564
     7         O          1.4535      0.0687      0.7728
     8         C          1.7293     -0.5672     -0.3641
     9         N          0.6610     -1.1994     -0.9079
    10         H         -2.5426     -1.2723      0.2907
    11         H         -1.9120     -2.0517     -1.2618
    12         H         -0.0248     -0.5876      2.0639
    13         H         -0.4146      0.8993      1.0939
    14         H          2.7603     -0.5176     -0.7374

 General Reference for PM7:
 "Optimization of Parameters for Semiempirical Methods VI: More Modifications to the 
 NDDO Approximations and Re-optimization of Parameters", J. J. P. Stewart, J. Mol. Mod., 1:32, 19 (2013)
 https://link.springer.com/article/10.1007/s00894-012-1667-x

           Empirical Formula: C5 H5 N O3  =    14 atoms



      MOLECULAR POINT GROUP   :   C1  


          UHF CALCULATION, NO. OF ALPHA ELECTRONS =   24
                           NO. OF BETA  ELECTRONS =   23
  SCF CRITERION =    0.1000E-07

 -------------------------------------------------------------------------------
 PM7 1SCF GRADIENTS DISP RELSCF=0.0001 CHARGE=1
 Title: ASE calculation



     1SCF WAS SPECIFIED, SO BFGS WAS NOT USED                 
     SCF FIELD WAS ACHIEVED                                   


                              PM7 CALCULATION
                                                       MOPAC v23.2 Linux
                                                       Fri Sep 19 21:28:59 2025




          FINAL HEAT OF FORMATION =        111.55118 KCAL/MOL =     466.73014 KJ/MOL

          TOTAL ENERGY            =     -40226.17641 KCAL/MOL = ELECTRONIC ENERGY + CORE-CORE REPULSION
          ENERGY OF ATOMS         =      40339.25331 KCAL/MOL
                              SUM =        113.07690 KCAL/MOL
          DISPERSION ENERGY       =         -1.52572 KCAL/MOL
                              SUM =        111.55118 KCAL/MOL = FINAL HEAT OF FORMATION



          TOTAL ENERGY            =      -1744.37211 EV
          ELECTRONIC ENERGY       =      -6944.16542 EV 
          CORE-CORE REPULSION     =       5199.79331 EV
          COSMO AREA              =        159.15 SQUARE ANGSTROMS
          COSMO VOLUME            =        151.22 CUBIC ANGSTROMS

          GRADIENT NORM           =          1.06671          =       0.28509 PER ATOM
          IONIZATION POTENTIAL    =         15.147419 EV
          ALPHA SOMO LUMO (EV)    =        -15.147 -6.297
          BETA  SOMO LUMO (EV)    =        -16.387 -7.805
          NO. OF ALPHA ELECTRONS  =         24
          NO. OF BETA  ELECTRONS  =         23
          MOLECULAR WEIGHT        =        127.0994         POINT GROUP:  C1  

          MOLECULAR DIMENSIONS (Angstroms)

            Atom       Atom       Distance
            H    14    O     1     6.39115
            H    13    H    11     4.01591
            O     1    H    10     3.72263


          SCF CALCULATIONS        =          1

          WALL-CLOCK TIME         =      0.992 SECONDS
          COMPUTATION TIME        =      0.703 SECONDS

          LARGEST ATOMIC GRADIENTS

          Atom     Label                     Cartesian Gradients           Cartesian Coordinates       |Gradient|
                                           X          Y          Z        X          Y          Z

             3       O                  -0.090      0.294     -0.319   -1.69082    0.97906   -1.09117      0.443
            14       H                   0.005      0.410      0.084    2.76029   -0.51755   -0.73740      0.418
            13       H                   0.222      0.163      0.297   -0.41459    0.89926    1.09395      0.405
             7       O                  -0.095     -0.328      0.020    1.45346    0.06873    0.77277      0.342
             1       O                   0.176     -0.211     -0.185   -2.55742    2.43049   -2.70662      0.331
             2       C                   0.043     -0.118      0.284   -2.13115    1.71254   -1.90373      0.310
            10       H                  -0.054      0.010      0.236   -2.54257   -1.27235    0.29070      0.242
             6       C                  -0.129     -0.155     -0.117    0.03482   -0.12169    1.05638      0.233
             5       C                   0.011     -0.102     -0.208   -0.41756   -0.97688   -0.10562      0.232
             9       N                   0.067     -0.088     -0.160    0.66105   -1.19942   -0.90795      0.195



       FINAL  POINT  AND  DERIVATIVES

   PARAMETER     ATOM    TYPE            VALUE        GRADIENT
      1          1  O    CARTESIAN X    -2.557417      0.175844  KCAL/ANGSTROM
      2          1  O    CARTESIAN Y     2.430494     -0.211136  KCAL/ANGSTROM
      3          1  O    CARTESIAN Z    -2.706625     -0.184611  KCAL/ANGSTROM
      4          2  C    CARTESIAN X    -2.131152      0.043395  KCAL/ANGSTROM
      5          2  C    CARTESIAN Y     1.712538     -0.117653  KCAL/ANGSTROM
      6          2  C    CARTESIAN Z    -1.903734      0.283977  KCAL/ANGSTROM
      7          3  O    CARTESIAN X    -1.690820     -0.089653  KCAL/ANGSTROM
      8          3  O    CARTESIAN Y     0.979062      0.293944  KCAL/ANGSTROM
      9          3  O    CARTESIAN Z    -1.091165     -0.319459  KCAL/ANGSTROM
     10          4  C    CARTESIAN X    -1.699751     -0.106578  KCAL/ANGSTROM
     11          4  C    CARTESIAN Y    -1.461163     -0.069416  KCAL/ANGSTROM
     12          4  C    CARTESIAN Z    -0.368478      0.118852  KCAL/ANGSTROM
     13          5  C    CARTESIAN X    -0.417565      0.010945  KCAL/ANGSTROM
     14          5  C    CARTESIAN Y    -0.976876     -0.101850  KCAL/ANGSTROM
     15          5  C    CARTESIAN Z    -0.105624     -0.207625  KCAL/ANGSTROM
     16          6  C    CARTESIAN X     0.034817     -0.129211  KCAL/ANGSTROM
     17          6  C    CARTESIAN Y    -0.121690     -0.154554  KCAL/ANGSTROM
     18          6  C    CARTESIAN Z     1.056384     -0.117418  KCAL/ANGSTROM
     19          7  O    CARTESIAN X     1.453460     -0.094817  KCAL/ANGSTROM
     20          7  O    CARTESIAN Y     0.068729     -0.327634  KCAL/ANGSTROM
     21          7  O    CARTESIAN Z     0.772772      0.020037  KCAL/ANGSTROM
     22          8  C    CARTESIAN X     1.729328     -0.029482  KCAL/ANGSTROM
     23          8  C    CARTESIAN Y    -0.567189      0.016433  KCAL/ANGSTROM
     24          8  C    CARTESIAN Z    -0.364105     -0.123274  KCAL/ANGSTROM
     25          9  N    CARTESIAN X     0.661046      0.067027  KCAL/ANGSTROM
     26          9  N    CARTESIAN Y    -1.199423     -0.087946  KCAL/ANGSTROM
     27          9  N    CARTESIAN Z    -0.907945     -0.160126  KCAL/ANGSTROM
     28         10  H    CARTESIAN X    -2.542566     -0.053891  KCAL/ANGSTROM
     29         10  H    CARTESIAN Y    -1.272347      0.010232  KCAL/ANGSTROM
     30         10  H    CARTESIAN Z     0.290704      0.235679  KCAL/ANGSTROM
     31         11  H    CARTESIAN X    -1.911982      0.011799  KCAL/ANGSTROM
     32         11  H    CARTESIAN Y    -2.051736      0.082868  KCAL/ANGSTROM
     33         11  H    CARTESIAN Z    -1.261848     -0.031805  KCAL/ANGSTROM
     34         12  H    CARTESIAN X    -0.024830     -0.032144  KCAL/ANGSTROM
     35         12  H    CARTESIAN Y    -0.587622      0.093824  KCAL/ANGSTROM
     36         12  H    CARTESIAN Z     2.063923      0.104596  KCAL/ANGSTROM
     37         13  H    CARTESIAN X    -0.414593      0.221730  KCAL/ANGSTROM
     38         13  H    CARTESIAN Y     0.899256      0.163143  KCAL/ANGSTROM
     39         13  H    CARTESIAN Z     1.093947      0.296725  KCAL/ANGSTROM
     40         14  H    CARTESIAN X     2.760293      0.005037  KCAL/ANGSTROM
     41         14  H    CARTESIAN Y    -0.517550      0.409742  KCAL/ANGSTROM
     42         14  H    CARTESIAN Z    -0.737401      0.084448  KCAL/ANGSTROM




   ATOM   CHEMICAL          X               Y               Z
  NUMBER   SYMBOL      (ANGSTROMS)     (ANGSTROMS)     (ANGSTROMS)

     1       O         -2.55741663  *   2.43049363  *  -2.70662490  *
     2       C         -2.13115194  *   1.71253784  *  -1.90373445  *
     3       O         -1.69081954  *   0.97906198  *  -1.09116536  *
     4       C         -1.69975060  *  -1.46116261  *  -0.36847807  *
     5       C         -0.41756466  *  -0.97687643  *  -0.10562355  *
     6       C          0.03481652  *  -0.12168951  *   1.05638442  *
     7       O          1.45345973  *   0.06872902  *   0.77277219  *
     8       C          1.72932768  *  -0.56718934  *  -0.36410540  *
     9       N          0.66104638  *  -1.19942337  *  -0.90794525  *
    10       H         -2.54256620  *  -1.27234711  *   0.29070351  *
    11       H         -1.91198196  *  -2.05173633  *  -1.26184754  *
    12       H         -0.02482970  *  -0.58762233  *   2.06392268  *
    13       H         -0.41459337  *   0.89925646  *   1.09394656  *
    14       H          2.76029286  *  -0.51755009  *  -0.73740051  *

                             CARTESIAN COORDINATES

   1    O       -2.557416634     2.430493627    -2.706624897
   2    C       -2.131151940     1.712537838    -1.903734448
   3    O       -1.690819542     0.979061982    -1.091165357
   4    C       -1.699750602    -1.461162611    -0.368478070
   5    C       -0.417564663    -0.976876435    -0.105623549
   6    C        0.034816517    -0.121689508     1.056384421
   7    O        1.453459727     0.068729021     0.772772188
   8    C        1.729327677    -0.567189337    -0.364105402
   9    N        0.661046378    -1.199423369    -0.907945253
  10    H       -2.542566201    -1.272347109     0.290703506
  11    H       -1.911981963    -2.051736326    -1.261847543
  12    H       -0.024829699    -0.587622332     2.063922675
  13    H       -0.414593374     0.899256459     1.093946560
  14    H        2.760292861    -0.517550085    -0.737400513


           Empirical Formula: C5 H5 N O3  =    14 atoms



      MOLECULAR POINT GROUP   :   C1  


          ALPHA EIGENVALUES  
 -42.52687 -37.79568 -36.95321 -36.13728 -33.01821 -30.11329 -28.10719 -25.56644
 -24.69435 -22.90521 -22.47812 -21.41765 -20.95984 -20.93029 -20.79392 -19.91615
 -19.78051 -18.67144 -18.66778 -18.34446 -16.82022 -16.46694 -16.41282 -15.14742
  -6.29668  -4.54606  -4.51049  -2.96050  -2.94842  -2.91326  -2.52698  -2.46928
  -2.26542  -1.20347  -0.52398  -0.49223  -0.33578   0.11759   0.50149   0.68987
   1.15867


           BETA EIGENVALUES 
 -42.17154 -37.78916 -36.48248 -36.12940 -32.81276 -29.92538 -27.98104 -25.41676
 -24.67336 -22.80501 -22.21856 -21.27227 -20.93436 -20.91649 -20.69452 -19.86614
 -19.66471 -18.52636 -18.19354 -17.41634 -16.61043 -16.42027 -16.38679  -7.80540
  -5.16678  -4.44719  -3.73248  -2.94769  -2.94387  -2.85861  -2.44165  -2.37665
  -2.24850  -1.09454  -0.48073  -0.41123  -0.29966   0.14335   0.63991   0.82324
   1.16645


              NET ATOMIC CHARGES AND DIPOLE CONTRIBUTIONS

  ATOM NO.   TYPE          CHARGE      No. of ELECS.   s-Pop       p-Pop       
    1          O          -0.197631        6.1976     1.87670     4.32093
    2          C           0.690062        3.3099     1.10181     2.20813
    3          O          -0.488467        6.4885     1.87338     4.61509
    4          C          -0.052274        4.0523     1.15008     2.90220
    5          C           0.222183        3.7778     1.11204     2.66578
    6          C          -0.145083        4.1451     1.12837     3.01671
    7          O          -0.169132        6.1691     1.87902     4.29011
    8          C           0.392792        3.6072     1.19930     2.40790
    9          N          -0.370791        5.3708     1.76778     3.60301
   10          H           0.194001        0.8060     0.80600
   11          H           0.208053        0.7919     0.79195
   12          H           0.226080        0.7739     0.77392
   13          H           0.235406        0.7646     0.76459
   14          H           0.254802        0.7452     0.74520
 DIPOLE           X         Y         Z       TOTAL
 POINT-CHG.     1.344    -2.691     2.970     4.227
 HYBRID         0.319     0.452     0.638     0.845
 SUM            1.663    -2.239     3.608     4.560


          ATOMIC ORBITAL ELECTRON POPULATIONS

     Atom    s        px        py        pz   
    1  O   1.87670   1.53012   1.41761   1.37320
    2  C   1.10181   0.71819   0.74107   0.74887
    3  O   1.87338   1.63326   1.51093   1.47089
    4  C   1.15008   0.98795   0.84486   1.06939
    5  C   1.11204   0.94460   0.85014   0.87104
    6  C   1.12837   0.78147   1.14869   1.08655
    7  O   1.87902   1.31682   1.57710   1.39619
    8  C   1.19930   0.99631   0.67721   0.73438
    9  N   1.76778   1.05713   1.24115   1.30472
   10  H   0.80600
   11  H   0.79195
   12  H   0.77392
   13  H   0.76459
   14  H   0.74520


                    (SZ)    =    0.500000
                    (S**2)  =    0.780618


          ATOMIC ORBITAL SPIN POPULATIONS

    Atom   Total    s     px     py     pz   
         Atomic
    1  O  0.0020  0.000  0.000 -0.000  0.002
    2  C  0.0018  0.001  0.000 -0.001  0.001
    3  O  0.0029  0.001  0.001 -0.001  0.001
    4  C  0.6906  0.016  0.046  0.453  0.176
    5  C -0.0305 -0.007 -0.013 -0.006 -0.004
    6  C -0.0024 -0.002 -0.005  0.005  0.000
    7  O  0.1208  0.004  0.011  0.076  0.030
    8  C -0.0004 -0.003 -0.004  0.007 -0.001
    9  N  0.2312  0.005  0.019  0.144  0.063
   10  H -0.0195 -0.019
   11  H -0.0193 -0.019
   12  H  0.0114  0.011
   13  H  0.0120  0.012
   14  H -0.0007 -0.001

 **********************
 *                    *
 * JOB ENDED NORMALLY *
 *                    *
 **********************



 TOTAL JOB TIME:             1.47 SECONDS

 == MOPAC DONE ==
