 *******************************************************************************
 **                                                                           **
 **                              MOPAC v23.2                                  **
 **                                                                           **
 *******************************************************************************
 **          Digital Object Identifier (DOI): 10.5281/zenodo.6511958          **
 **    Visit the DOI location for information on how to cite this program.    **
 *******************************************************************************

                              PM7 CALCULATION RESULTS

 *******************************************************************************
 *  CALCULATION DONE: (MAX THREADS = 40)             Fri Sep 19 21:30:06 2025  *
 *  PM7        - The PM7 Hamiltonian to be used
 *  1SCF       - DO 1 SCF AND THEN STOP 
 *  T=         - A TIME OF 172800.0 SECONDS REQUESTED
 *  DUMP=N     - RESTART FILE WRITTEN EVERY 7200.0 SECONDS REQUESTED
 *  RELSCF     - DEFAULT SCF CRITERION MULTIPLIED BY 0.0001
 *              (DEFAULT SCF CRITERION = 0.00010)
 *  GRADIENTS  - ALL GRADIENTS TO BE PRINTED
 *  DISP       - PRINT DISPERSION AND HYDROGEN BOND ENERGIES
 *******************************************************************************
PM7 1SCF GRADIENTS DISP RELSCF=0.0001
 Title: ASE calculation

   ATOM   CHEMICAL          X               Y               Z
  NUMBER   SYMBOL      (ANGSTROMS)     (ANGSTROMS)     (ANGSTROMS)

     1       C         -3.65637708  *   0.00908387  *   0.30538031  *
     2       N         -2.21134377  *   0.07155594  *   0.20921256  *
     3       C         -1.48904425  *   0.43956020  *   1.20390607  *
     4       O         -0.14151867  *   0.48959638  *   1.08871965  *
     5       C          0.40831760  *   0.11545222  *  -0.18040848  *
     6       C          1.90336127  *   0.24812763  *  -0.06961640  *
     7       C          2.66573844  *  -0.10198623  *  -1.30768151  *
     8       N          2.43054844  *   0.64128029  *   1.04292154  *
     9       O          3.81443968  *   0.70871753  *   0.97443286  *
    10       H         -4.09063018  *   0.66481965  *  -0.47423993  *
    11       H         -3.98127516  *  -1.02353205  *   0.07195152  *
    12       H         -4.08486729  *   0.29594355  *   1.27785893  *
    13       H         -1.71815361  *   0.75446195  *   2.22488426  *
    14       H         -0.00069393  *   0.78768252  *  -0.96250881  *
    15       H          0.11068603  *  -0.92878711  *  -0.40809842  *
    16       H          2.02861871  *  -0.41230022  *  -2.14416621  *
    17       H          3.27144752  *   0.75496798  *  -1.64743070  *
    18       H          3.37855677  *  -0.91965829  *  -1.10775662  *
    19       H          4.05606482  *   1.02218232  *   1.89657865  *



          CARTESIAN COORDINATES 

    NO.       ATOM           X           Y           Z

     1         C         -3.6564      0.0091      0.3054
     2         N         -2.2113      0.0716      0.2092
     3         C         -1.4890      0.4396      1.2039
     4         O         -0.1415      0.4896      1.0887
     5         C          0.4083      0.1155     -0.1804
     6         C          1.9034      0.2481     -0.0696
     7         C          2.6657     -0.1020     -1.3077
     8         N          2.4305      0.6413      1.0429
     9         O          3.8144      0.7087      0.9744
    10         H         -4.0906      0.6648     -0.4742
    11         H         -3.9813     -1.0235      0.0720
    12         H         -4.0849      0.2959      1.2779
    13         H         -1.7182      0.7545      2.2249
    14         H         -0.0007      0.7877     -0.9625
    15         H          0.1107     -0.9288     -0.4081
    16         H          2.0286     -0.4123     -2.1442
    17         H          3.2714      0.7550     -1.6474
    18         H          3.3786     -0.9197     -1.1078
    19         H          4.0561      1.0222      1.8966

 General Reference for PM7:
 "Optimization of Parameters for Semiempirical Methods VI: More Modifications to the 
 NDDO Approximations and Re-optimization of Parameters", J. J. P. Stewart, J. Mol. Mod., 1:32, 19 (2013)
 https://link.springer.com/article/10.1007/s00894-012-1667-x

           Empirical Formula: C5 H10 N2 O2  =    19 atoms



      MOLECULAR POINT GROUP   :   Cs  


      RHF CALCULATION, NO. OF DOUBLY OCCUPIED LEVELS = 26

  SCF CRITERION =    0.1000E-07

 -------------------------------------------------------------------------------
 PM7 1SCF GRADIENTS DISP RELSCF=0.0001
 Title: ASE calculation



     1SCF WAS SPECIFIED, SO BFGS WAS NOT USED                 
     SCF FIELD WAS ACHIEVED                                   


                              PM7 CALCULATION
                                                       MOPAC v23.2 Linux
                                                       Fri Sep 19 21:30:07 2025




          FINAL HEAT OF FORMATION =        -35.18662 KCAL/MOL =    -147.22084 KJ/MOL

          TOTAL ENERGY            =     -39443.57185 KCAL/MOL = ELECTRONIC ENERGY + CORE-CORE REPULSION
          ENERGY OF ATOMS         =      39410.22309 KCAL/MOL
                              SUM =        -33.34876 KCAL/MOL
          DISPERSION ENERGY       =         -1.83787 KCAL/MOL
                              SUM =        -35.18662 KCAL/MOL = FINAL HEAT OF FORMATION



          TOTAL ENERGY            =      -1710.43516 EV
          ELECTRONIC ENERGY       =      -7608.56416 EV 
          CORE-CORE REPULSION     =       5898.12900 EV
          COSMO AREA              =        176.27 SQUARE ANGSTROMS
          COSMO VOLUME            =        164.31 CUBIC ANGSTROMS

          GRADIENT NORM           =          0.92734          =       0.21275 PER ATOM
          IONIZATION POTENTIAL    =          9.787127 EV
          HOMO LUMO ENERGIES (EV) =         -9.787  0.890
          NO. OF FILLED LEVELS    =         26
          MOLECULAR WEIGHT        =        130.1462         POINT GROUP:  Cs  

          MOLECULAR DIMENSIONS (Angstroms)

            Atom       Atom       Distance
            H    19    H    10     8.49218
            H    16    H    13     5.39261
            H    11    H    17     2.32525


          SCF CALCULATIONS        =          1

          WALL-CLOCK TIME         =      0.828 SECONDS
          COMPUTATION TIME        =      0.481 SECONDS

          LARGEST ATOMIC GRADIENTS

          Atom     Label                     Cartesian Gradients           Cartesian Coordinates       |Gradient|
                                           X          Y          Z        X          Y          Z

            11       H                  -0.207      0.071     -0.266   -3.98128   -1.02353    0.07195      0.345
            10       H                  -0.187     -0.224     -0.160   -4.09063    0.66482   -0.47424      0.332
            16       H                   0.006     -0.104     -0.308    2.02862   -0.41230   -2.14417      0.325
            12       H                   0.230      0.065      0.169   -4.08487    0.29594    1.27786      0.293
            19       H                   0.036     -0.091     -0.273    4.05606    1.02218    1.89658      0.290
            18       H                   0.162      0.134      0.159    3.37856   -0.91966   -1.10776      0.263
            17       H                   0.161      0.009      0.195    3.27145    0.75497   -1.64743      0.252
             2       N                   0.034      0.073      0.215   -2.21134    0.07156    0.20921      0.230
             8       N                  -0.156      0.040      0.160    2.43055    0.64128    1.04292      0.227
             7       C                   0.118     -0.044     -0.161    2.66574   -0.10199   -1.30768      0.205



       FINAL  POINT  AND  DERIVATIVES

   PARAMETER     ATOM    TYPE            VALUE        GRADIENT
      1          1  C    CARTESIAN X    -3.656377     -0.007811  KCAL/ANGSTROM
      2          1  C    CARTESIAN Y     0.009084      0.012624  KCAL/ANGSTROM
      3          1  C    CARTESIAN Z     0.305380      0.035300  KCAL/ANGSTROM
      4          2  N    CARTESIAN X    -2.211344      0.034135  KCAL/ANGSTROM
      5          2  N    CARTESIAN Y     0.071556      0.073258  KCAL/ANGSTROM
      6          2  N    CARTESIAN Z     0.209213      0.215328  KCAL/ANGSTROM
      7          3  C    CARTESIAN X    -1.489044      0.034196  KCAL/ANGSTROM
      8          3  C    CARTESIAN Y     0.439560      0.035114  KCAL/ANGSTROM
      9          3  C    CARTESIAN Z     1.203906      0.108093  KCAL/ANGSTROM
     10          4  O    CARTESIAN X    -0.141519      0.063703  KCAL/ANGSTROM
     11          4  O    CARTESIAN Y     0.489596      0.038064  KCAL/ANGSTROM
     12          4  O    CARTESIAN Z     1.088720      0.110976  KCAL/ANGSTROM
     13          5  C    CARTESIAN X     0.408318     -0.114485  KCAL/ANGSTROM
     14          5  C    CARTESIAN Y     0.115452      0.009038  KCAL/ANGSTROM
     15          5  C    CARTESIAN Z    -0.180408      0.046958  KCAL/ANGSTROM
     16          6  C    CARTESIAN X     1.903361      0.014372  KCAL/ANGSTROM
     17          6  C    CARTESIAN Y     0.248128     -0.005837  KCAL/ANGSTROM
     18          6  C    CARTESIAN Z    -0.069616     -0.014655  KCAL/ANGSTROM
     19          7  C    CARTESIAN X     2.665738      0.118380  KCAL/ANGSTROM
     20          7  C    CARTESIAN Y    -0.101986     -0.043944  KCAL/ANGSTROM
     21          7  C    CARTESIAN Z    -1.307682     -0.161263  KCAL/ANGSTROM
     22          8  N    CARTESIAN X     2.430548     -0.155876  KCAL/ANGSTROM
     23          8  N    CARTESIAN Y     0.641280      0.039904  KCAL/ANGSTROM
     24          8  N    CARTESIAN Z     1.042922      0.160137  KCAL/ANGSTROM
     25          9  O    CARTESIAN X     3.814440     -0.125040  KCAL/ANGSTROM
     26          9  O    CARTESIAN Y     0.708718     -0.010559  KCAL/ANGSTROM
     27          9  O    CARTESIAN Z     0.974433      0.002163  KCAL/ANGSTROM
     28         10  H    CARTESIAN X    -4.090630     -0.186950  KCAL/ANGSTROM
     29         10  H    CARTESIAN Y     0.664820     -0.223805  KCAL/ANGSTROM
     30         10  H    CARTESIAN Z    -0.474240     -0.159532  KCAL/ANGSTROM
     31         11  H    CARTESIAN X    -3.981275     -0.206717  KCAL/ANGSTROM
     32         11  H    CARTESIAN Y    -1.023532      0.071429  KCAL/ANGSTROM
     33         11  H    CARTESIAN Z     0.071952     -0.266323  KCAL/ANGSTROM
     34         12  H    CARTESIAN X    -4.084867      0.230206  KCAL/ANGSTROM
     35         12  H    CARTESIAN Y     0.295944      0.064869  KCAL/ANGSTROM
     36         12  H    CARTESIAN Z     1.277859      0.169119  KCAL/ANGSTROM
     37         13  H    CARTESIAN X    -1.718154     -0.025651  KCAL/ANGSTROM
     38         13  H    CARTESIAN Y     0.754462     -0.022695  KCAL/ANGSTROM
     39         13  H    CARTESIAN Z     2.224884     -0.050235  KCAL/ANGSTROM
     40         14  H    CARTESIAN X    -0.000694     -0.021176  KCAL/ANGSTROM
     41         14  H    CARTESIAN Y     0.787683      0.059533  KCAL/ANGSTROM
     42         14  H    CARTESIAN Z    -0.962509      0.001139  KCAL/ANGSTROM
     43         15  H    CARTESIAN X     0.110686     -0.015012  KCAL/ANGSTROM
     44         15  H    CARTESIAN Y    -0.928787     -0.045304  KCAL/ANGSTROM
     45         15  H    CARTESIAN Z    -0.408098      0.030380  KCAL/ANGSTROM
     46         16  H    CARTESIAN X     2.028619      0.005728  KCAL/ANGSTROM
     47         16  H    CARTESIAN Y    -0.412300     -0.103718  KCAL/ANGSTROM
     48         16  H    CARTESIAN Z    -2.144166     -0.308034  KCAL/ANGSTROM
     49         17  H    CARTESIAN X     3.271448      0.160577  KCAL/ANGSTROM
     50         17  H    CARTESIAN Y     0.754968      0.008555  KCAL/ANGSTROM
     51         17  H    CARTESIAN Z    -1.647431      0.194616  KCAL/ANGSTROM
     52         18  H    CARTESIAN X     3.378557      0.161746  KCAL/ANGSTROM
     53         18  H    CARTESIAN Y    -0.919658      0.134170  KCAL/ANGSTROM
     54         18  H    CARTESIAN Z    -1.107757      0.158639  KCAL/ANGSTROM
     55         19  H    CARTESIAN X     4.056065      0.035678  KCAL/ANGSTROM
     56         19  H    CARTESIAN Y     1.022182     -0.090699  KCAL/ANGSTROM
     57         19  H    CARTESIAN Z     1.896579     -0.272806  KCAL/ANGSTROM




   ATOM   CHEMICAL          X               Y               Z
  NUMBER   SYMBOL      (ANGSTROMS)     (ANGSTROMS)     (ANGSTROMS)

     1       C         -3.65637708  *   0.00908387  *   0.30538031  *
     2       N         -2.21134377  *   0.07155594  *   0.20921256  *
     3       C         -1.48904425  *   0.43956020  *   1.20390607  *
     4       O         -0.14151867  *   0.48959638  *   1.08871965  *
     5       C          0.40831760  *   0.11545222  *  -0.18040848  *
     6       C          1.90336127  *   0.24812763  *  -0.06961640  *
     7       C          2.66573844  *  -0.10198623  *  -1.30768151  *
     8       N          2.43054844  *   0.64128029  *   1.04292154  *
     9       O          3.81443968  *   0.70871753  *   0.97443286  *
    10       H         -4.09063018  *   0.66481965  *  -0.47423993  *
    11       H         -3.98127516  *  -1.02353205  *   0.07195152  *
    12       H         -4.08486729  *   0.29594355  *   1.27785893  *
    13       H         -1.71815361  *   0.75446195  *   2.22488426  *
    14       H         -0.00069393  *   0.78768252  *  -0.96250881  *
    15       H          0.11068603  *  -0.92878711  *  -0.40809842  *
    16       H          2.02861871  *  -0.41230022  *  -2.14416621  *
    17       H          3.27144752  *   0.75496798  *  -1.64743070  *
    18       H          3.37855677  *  -0.91965829  *  -1.10775662  *
    19       H          4.05606482  *   1.02218232  *   1.89657865  *

                             CARTESIAN COORDINATES

   1    C       -3.656377079     0.009083866     0.305380314
   2    N       -2.211343775     0.071555941     0.209212559
   3    C       -1.489044249     0.439560197     1.203906065
   4    O       -0.141518666     0.489596382     1.088719654
   5    C        0.408317603     0.115452218    -0.180408478
   6    C        1.903361274     0.248127632    -0.069616398
   7    C        2.665738438    -0.101986230    -1.307681508
   8    N        2.430548436     0.641280289     1.042921537
   9    O        3.814439679     0.708717526     0.974432857
  10    H       -4.090630179     0.664819652    -0.474239932
  11    H       -3.981275164    -1.023532054     0.071951517
  12    H       -4.084867287     0.295943547     1.277858929
  13    H       -1.718153605     0.754461955     2.224884264
  14    H       -0.000693929     0.787682524    -0.962508808
  15    H        0.110686028    -0.928787110    -0.408098420
  16    H        2.028618714    -0.412300218    -2.144166208
  17    H        3.271447518     0.754967979    -1.647430698
  18    H        3.378556769    -0.919658292    -1.107756620
  19    H        4.056064822     1.022182325     1.896578646


           Empirical Formula: C5 H10 N2 O2  =    19 atoms



      MOLECULAR POINT GROUP   :   Cs  


                  EIGENVALUES  
 -35.27796 -34.26051 -30.38107 -28.75699 -26.52329 -24.94713 -24.32830 -21.12847
 -19.19755 -17.37510 -17.13745 -16.59882 -16.44864 -15.75012 -15.20654 -14.47154
 -14.42816 -14.05514 -13.18933 -13.16675 -12.50985 -12.37159 -10.76367 -10.36331
 -10.02973  -9.78713   0.89045   1.08207   1.53791   1.97039   3.23252   3.70917
   4.03338   4.48114   4.87884   5.12716   5.19723   5.28813   5.37243   5.40341
   5.43804   5.66577   5.76870   5.90511   6.47769   6.54357


              NET ATOMIC CHARGES AND DIPOLE CONTRIBUTIONS

  ATOM NO.   TYPE          CHARGE      No. of ELECS.   s-Pop       p-Pop       
    1          C          -0.251252        4.2513     1.05474     3.19652
    2          N          -0.499467        5.4995     1.74401     3.75546
    3          C           0.243463        3.7565     1.11173     2.64481
    4          O          -0.302880        6.3029     1.87217     4.43071
    5          C          -0.046827        4.0468     1.09144     2.95539
    6          C           0.104918        3.8951     1.08435     2.81073
    7          C          -0.466972        4.4670     1.05179     3.41518
    8          N          -0.176597        5.1766     1.79915     3.37745
    9          O          -0.340406        6.3404     1.90292     4.43749
   10          H           0.156311        0.8437     0.84369
   11          H           0.156300        0.8437     0.84370
   12          H           0.122167        0.8778     0.87783
   13          H           0.158724        0.8413     0.84128
   14          H           0.159775        0.8402     0.84023
   15          H           0.159768        0.8402     0.84023
   16          H           0.159595        0.8404     0.84040
   17          H           0.175631        0.8244     0.82437
   18          H           0.175618        0.8244     0.82438
   19          H           0.312131        0.6879     0.68787
 DIPOLE           X         Y         Z       TOTAL
 POINT-CHG.    -1.665    -0.307    -0.618     1.802
 HYBRID         0.498     0.110     0.241     0.564
 SUM           -1.167    -0.197    -0.377     1.242


          ATOMIC ORBITAL ELECTRON POPULATIONS

     Atom    s        px        py        pz   
    1  C   1.05474   0.87754   1.17052   1.14846
    2  N   1.74401   1.13469   1.27134   1.34943
    3  C   1.11173   0.81776   0.88174   0.94530
    4  O   1.87217   1.25350   1.81154   1.36566
    5  C   1.09144   0.92511   1.13522   0.89505
    6  C   1.08435   0.95952   0.94380   0.90740
    7  C   1.05179   1.15141   1.19098   1.07280
    8  N   1.79915   0.93262   1.16969   1.27513
    9  O   1.90292   1.13192   1.87831   1.42727
   10  H   0.84369
   11  H   0.84370
   12  H   0.87783
   13  H   0.84128
   14  H   0.84023
   15  H   0.84023
   16  H   0.84040
   17  H   0.82437
   18  H   0.82438
   19  H   0.68787

 **********************
 *                    *
 * JOB ENDED NORMALLY *
 *                    *
 **********************



 TOTAL JOB TIME:             1.31 SECONDS

 == MOPAC DONE ==
