 *******************************************************************************
 **                                                                           **
 **                              MOPAC v23.2                                  **
 **                                                                           **
 *******************************************************************************
 **          Digital Object Identifier (DOI): 10.5281/zenodo.6511958          **
 **    Visit the DOI location for information on how to cite this program.    **
 *******************************************************************************

                              PM7 CALCULATION RESULTS

 *******************************************************************************
 *  CALCULATION DONE: (MAX THREADS = 40)             Fri Sep 19 21:35:43 2025  *
 *  PM7        - The PM7 Hamiltonian to be used
 *
 *
 *
 *                 CHARGE ON SYSTEM = +1
 *
 *
 *
 *  EPS=37.5   - USE ANDREAS KLAMT'S COSMO IMPLICIT SOLVATION MODEL
 *  1SCF       - DO 1 SCF AND THEN STOP 
 *  T=         - A TIME OF 172800.0 SECONDS REQUESTED
 *  DUMP=N     - RESTART FILE WRITTEN EVERY 7200.0 SECONDS REQUESTED
 *  RELSCF     - DEFAULT SCF CRITERION MULTIPLIED BY 0.0001
 *              (DEFAULT SCF CRITERION = 0.00010)
 *  GRADIENTS  - ALL GRADIENTS TO BE PRINTED
 *  DISP       - PRINT DISPERSION AND HYDROGEN BOND ENERGIES
 *******************************************************************************
PM7 1SCF GRADIENTS EPS=37.5 DISP RELSCF=0.0001 CHARGE=1
 Title: ASE calculation

   ATOM   CHEMICAL          X               Y               Z
  NUMBER   SYMBOL      (ANGSTROMS)     (ANGSTROMS)     (ANGSTROMS)

     1       C          2.34100091  *  -0.06471308  *  -0.18301706  *
     2       C          0.92901052  *  -0.18830674  *   0.38155787  *
     3       C          0.08272956  *   1.09402779  *   0.11186044  *
     4       O         -0.02342951  *   1.65426361  *   1.40704296  *
     5       C         -1.26701946  *   0.75392402  *  -0.39705203  *
     6       O         -1.73423596  *   1.62405668  *  -1.27998976  *
     7       C         -1.99593342  *  -0.42261441  *   0.09815830  *
     8       C         -1.11512646  *  -1.66581103  *  -0.09660288  *
     9       C          0.30394413  *  -1.44991032  *   0.06889672  *
    10       H          2.34016152  *   0.07225530  *  -1.27506858  *
    11       H          2.86036789  *   0.81815827  *   0.23634440  *
    12       H          2.98351495  *  -0.92615189  *   0.04509469  *
    13       H          1.04336520  *  -0.19438674  *   1.55122192  *
    14       H          0.62587025  *   1.81056766  *  -0.55439921  *
    15       H         -0.49457870  *   2.51987107  *   1.38978113  *
    16       H         -2.67825708  *   1.43558563  *  -1.55122192  *
    17       H         -2.98351495  *  -0.55784256  *  -0.39604154  *
    18       H         -2.24726466  *  -0.28527398  *   1.18161326  *
    19       H         -1.30592078  *  -2.10596261  *  -1.12863549  *
    20       H         -1.49326752  *  -2.51987107  *   0.53963239  *
    21       H          0.96842001  *  -2.33399954  *  -0.04877238  *



          CARTESIAN COORDINATES 

    NO.       ATOM           X           Y           Z

     1         C          2.3410     -0.0647     -0.1830
     2         C          0.9290     -0.1883      0.3816
     3         C          0.0827      1.0940      0.1119
     4         O         -0.0234      1.6543      1.4070
     5         C         -1.2670      0.7539     -0.3971
     6         O         -1.7342      1.6241     -1.2800
     7         C         -1.9959     -0.4226      0.0982
     8         C         -1.1151     -1.6658     -0.0966
     9         C          0.3039     -1.4499      0.0689
    10         H          2.3402      0.0723     -1.2751
    11         H          2.8604      0.8182      0.2363
    12         H          2.9835     -0.9262      0.0451
    13         H          1.0434     -0.1944      1.5512
    14         H          0.6259      1.8106     -0.5544
    15         H         -0.4946      2.5199      1.3898
    16         H         -2.6783      1.4356     -1.5512
    17         H         -2.9835     -0.5578     -0.3960
    18         H         -2.2473     -0.2853      1.1816
    19         H         -1.3059     -2.1060     -1.1286
    20         H         -1.4933     -2.5199      0.5396
    21         H          0.9684     -2.3340     -0.0488

 General Reference for PM7:
 "Optimization of Parameters for Semiempirical Methods VI: More Modifications to the 
 NDDO Approximations and Re-optimization of Parameters", J. J. P. Stewart, J. Mol. Mod., 1:32, 19 (2013)
 https://link.springer.com/article/10.1007/s00894-012-1667-x

           Empirical Formula: C7 H12 O2  =    21 atoms



      MOLECULAR POINT GROUP   :   C1  


          UHF CALCULATION, NO. OF ALPHA ELECTRONS =   26
                           NO. OF BETA  ELECTRONS =   25
  SCF CRITERION =    0.1000E-07

 -------------------------------------------------------------------------------
 PM7 1SCF GRADIENTS EPS=37.5 DISP RELSCF=0.0001 CHARGE=1
 Title: ASE calculation



     1SCF WAS SPECIFIED, SO BFGS WAS NOT USED                 
     SCF FIELD WAS ACHIEVED                                   


                              PM7 CALCULATION
                                                       MOPAC v23.2 Linux
                                                       Fri Sep 19 21:35:44 2025




          FINAL HEAT OF FORMATION =         53.09694 KCAL/MOL =     222.15759 KJ/MOL

          TOTAL ENERGY            =     -37041.91681 KCAL/MOL = ELECTRONIC ENERGY + CORE-CORE REPULSION + SOLVATION ENERGY
          ENERGY OF ATOMS         =      37097.27293 KCAL/MOL
                              SUM =         55.35612 KCAL/MOL
          DISPERSION ENERGY       =         -2.25918 KCAL/MOL
                              SUM =         53.09694 KCAL/MOL = FINAL HEAT OF FORMATION

          VAN DER WAALS AREA      =        165.34 SQUARE ANGSTROMS


          TOTAL ENERGY            =      -1606.28954 EV
          ELECTRONIC ENERGY       =      -2429.18488 EV 
          CORE-CORE REPULSION     =        822.89534 EV

          DIELECTRIC ENERGY       =         -2.72632 EV
          COSMO AREA              =        165.34 SQUARE ANGSTROMS
          COSMO VOLUME            =        165.68 CUBIC ANGSTROMS

          GRADIENT NORM           =         24.79876          =       5.41153 PER ATOM
          IONIZATION POTENTIAL    =          8.814213 EV
          ALPHA SOMO LUMO (EV)    =         -8.814 -2.118
          BETA  SOMO LUMO (EV)    =        -11.290 -2.121
          NO. OF ALPHA ELECTRONS  =         26
          NO. OF BETA  ELECTRONS  =         25
          MOLECULAR WEIGHT        =        128.1706         POINT GROUP:  C1  

          MOLECULAR DIMENSIONS (Angstroms)

            Atom       Atom       Distance
            H    16    H    12     6.33890
            H    19    H    15     5.31659
            H    10    H    20     4.02702


          SCF CALCULATIONS        =          2

          WALL-CLOCK TIME         =      1.602 SECONDS
          COMPUTATION TIME        =      0.813 SECONDS

          LARGEST ATOMIC GRADIENTS

          Atom     Label                     Cartesian Gradients           Cartesian Coordinates       |Gradient|
                                           X          Y          Z        X          Y          Z

             9       C                   7.155      7.468      2.024    0.30394   -1.44991    0.06890     10.538
             8       C                  -2.183     -9.612     -1.046   -1.11513   -1.66581   -0.09660      9.912
             2       C                  -1.733     -8.800     -3.411    0.92901   -0.18831    0.38156      9.596
             3       C                  -4.386      7.085      4.691    0.08273    1.09403    0.11186      9.563
             5       C                  -3.183      1.988     -6.374   -1.26702    0.75392   -0.39705      7.397
             4       O                   0.460     -5.654     -3.815   -0.02343    1.65426    1.40704      6.836
             1       C                  -1.416     -5.511      0.540    2.34100   -0.06471   -0.18302      5.716
            13       H                  -0.141      4.363      2.216    1.04337   -0.19439    1.55122      4.896
             6       O                   1.865     -2.852      2.652   -1.73424    1.62406   -1.27999      4.317
            16       H                   2.300      1.325      1.154   -2.67826    1.43559   -1.55122      2.895



       FINAL  POINT  AND  DERIVATIVES

   PARAMETER     ATOM    TYPE            VALUE        GRADIENT
      1          1  C    CARTESIAN X     2.341001     -1.415716  KCAL/ANGSTROM
      2          1  C    CARTESIAN Y    -0.064713     -5.511106  KCAL/ANGSTROM
      3          1  C    CARTESIAN Z    -0.183017      0.540129  KCAL/ANGSTROM
      4          2  C    CARTESIAN X     0.929011     -1.733142  KCAL/ANGSTROM
      5          2  C    CARTESIAN Y    -0.188307     -8.800130  KCAL/ANGSTROM
      6          2  C    CARTESIAN Z     0.381558     -3.411252  KCAL/ANGSTROM
      7          3  C    CARTESIAN X     0.082730     -4.386489  KCAL/ANGSTROM
      8          3  C    CARTESIAN Y     1.094028      7.085161  KCAL/ANGSTROM
      9          3  C    CARTESIAN Z     0.111860      4.691291  KCAL/ANGSTROM
     10          4  O    CARTESIAN X    -0.023430      0.460094  KCAL/ANGSTROM
     11          4  O    CARTESIAN Y     1.654264     -5.653778  KCAL/ANGSTROM
     12          4  O    CARTESIAN Z     1.407043     -3.814699  KCAL/ANGSTROM
     13          5  C    CARTESIAN X    -1.267019     -3.183060  KCAL/ANGSTROM
     14          5  C    CARTESIAN Y     0.753924      1.987592  KCAL/ANGSTROM
     15          5  C    CARTESIAN Z    -0.397052     -6.374356  KCAL/ANGSTROM
     16          6  O    CARTESIAN X    -1.734236      1.864829  KCAL/ANGSTROM
     17          6  O    CARTESIAN Y     1.624057     -2.851597  KCAL/ANGSTROM
     18          6  O    CARTESIAN Z    -1.279990      2.651607  KCAL/ANGSTROM
     19          7  C    CARTESIAN X    -1.995933     -1.080073  KCAL/ANGSTROM
     20          7  C    CARTESIAN Y    -0.422614     -1.221404  KCAL/ANGSTROM
     21          7  C    CARTESIAN Z     0.098158      0.814648  KCAL/ANGSTROM
     22          8  C    CARTESIAN X    -1.115126     -2.182593  KCAL/ANGSTROM
     23          8  C    CARTESIAN Y    -1.665811     -9.612231  KCAL/ANGSTROM
     24          8  C    CARTESIAN Z    -0.096603     -1.045530  KCAL/ANGSTROM
     25          9  C    CARTESIAN X     0.303944      7.154519  KCAL/ANGSTROM
     26          9  C    CARTESIAN Y    -1.449910      7.467660  KCAL/ANGSTROM
     27          9  C    CARTESIAN Z     0.068897      2.024347  KCAL/ANGSTROM
     28         10  H    CARTESIAN X     2.340162      0.854453  KCAL/ANGSTROM
     29         10  H    CARTESIAN Y     0.072255      1.559449  KCAL/ANGSTROM
     30         10  H    CARTESIAN Z    -1.275069     -0.349416  KCAL/ANGSTROM
     31         11  H    CARTESIAN X     2.860368      1.326332  KCAL/ANGSTROM
     32         11  H    CARTESIAN Y     0.818158      1.626692  KCAL/ANGSTROM
     33         11  H    CARTESIAN Z     0.236344      0.477012  KCAL/ANGSTROM
     34         12  H    CARTESIAN X     2.983515      1.937096  KCAL/ANGSTROM
     35         12  H    CARTESIAN Y    -0.926152      1.305001  KCAL/ANGSTROM
     36         12  H    CARTESIAN Z     0.045095     -0.199494  KCAL/ANGSTROM
     37         13  H    CARTESIAN X     1.043365     -0.141065  KCAL/ANGSTROM
     38         13  H    CARTESIAN Y    -0.194387      4.363350  KCAL/ANGSTROM
     39         13  H    CARTESIAN Z     1.551222      2.215993  KCAL/ANGSTROM
     40         14  H    CARTESIAN X     0.625870      0.404441  KCAL/ANGSTROM
     41         14  H    CARTESIAN Y     1.810568      0.149993  KCAL/ANGSTROM
     42         14  H    CARTESIAN Z    -0.554399     -1.498773  KCAL/ANGSTROM
     43         15  H    CARTESIAN X    -0.494579      1.119937  KCAL/ANGSTROM
     44         15  H    CARTESIAN Y     2.519871      0.138685  KCAL/ANGSTROM
     45         15  H    CARTESIAN Z     1.389781      0.697034  KCAL/ANGSTROM
     46         16  H    CARTESIAN X    -2.678257      2.300075  KCAL/ANGSTROM
     47         16  H    CARTESIAN Y     1.435586      1.325190  KCAL/ANGSTROM
     48         16  H    CARTESIAN Z    -1.551222      1.154240  KCAL/ANGSTROM
     49         17  H    CARTESIAN X    -2.983515     -0.311921  KCAL/ANGSTROM
     50         17  H    CARTESIAN Y    -0.557843      0.227119  KCAL/ANGSTROM
     51         17  H    CARTESIAN Z    -0.396042      0.637667  KCAL/ANGSTROM
     52         18  H    CARTESIAN X    -2.247265     -0.526858  KCAL/ANGSTROM
     53         18  H    CARTESIAN Y    -0.285274      1.193504  KCAL/ANGSTROM
     54         18  H    CARTESIAN Z     1.181613      1.014448  KCAL/ANGSTROM
     55         19  H    CARTESIAN X    -1.305921     -0.949075  KCAL/ANGSTROM
     56         19  H    CARTESIAN Y    -2.105963      2.365764  KCAL/ANGSTROM
     57         19  H    CARTESIAN Z    -1.128635     -0.042844  KCAL/ANGSTROM
     58         20  H    CARTESIAN X    -1.493268     -1.402063  KCAL/ANGSTROM
     59         20  H    CARTESIAN Y    -2.519871      1.611912  KCAL/ANGSTROM
     60         20  H    CARTESIAN Z     0.539632      0.220304  KCAL/ANGSTROM
     61         21  H    CARTESIAN X     0.968420     -0.109723  KCAL/ANGSTROM
     62         21  H    CARTESIAN Y    -2.334000      1.243172  KCAL/ANGSTROM
     63         21  H    CARTESIAN Z    -0.048772     -0.402361  KCAL/ANGSTROM




   ATOM   CHEMICAL          X               Y               Z
  NUMBER   SYMBOL      (ANGSTROMS)     (ANGSTROMS)     (ANGSTROMS)

     1       C          2.34100091  *  -0.06471308  *  -0.18301706  *
     2       C          0.92901052  *  -0.18830674  *   0.38155787  *
     3       C          0.08272956  *   1.09402779  *   0.11186044  *
     4       O         -0.02342951  *   1.65426361  *   1.40704296  *
     5       C         -1.26701946  *   0.75392402  *  -0.39705203  *
     6       O         -1.73423596  *   1.62405668  *  -1.27998976  *
     7       C         -1.99593342  *  -0.42261441  *   0.09815830  *
     8       C         -1.11512646  *  -1.66581103  *  -0.09660288  *
     9       C          0.30394413  *  -1.44991032  *   0.06889672  *
    10       H          2.34016152  *   0.07225530  *  -1.27506858  *
    11       H          2.86036789  *   0.81815827  *   0.23634440  *
    12       H          2.98351495  *  -0.92615189  *   0.04509469  *
    13       H          1.04336520  *  -0.19438674  *   1.55122192  *
    14       H          0.62587025  *   1.81056766  *  -0.55439921  *
    15       H         -0.49457870  *   2.51987107  *   1.38978113  *
    16       H         -2.67825708  *   1.43558563  *  -1.55122192  *
    17       H         -2.98351495  *  -0.55784256  *  -0.39604154  *
    18       H         -2.24726466  *  -0.28527398  *   1.18161326  *
    19       H         -1.30592078  *  -2.10596261  *  -1.12863549  *
    20       H         -1.49326752  *  -2.51987107  *   0.53963239  *
    21       H          0.96842001  *  -2.33399954  *  -0.04877238  *

                             CARTESIAN COORDINATES

   1    C        2.341000912    -0.064713079    -0.183017055
   2    C        0.929010523    -0.188306736     0.381557869
   3    C        0.082729560     1.094027791     0.111860444
   4    O       -0.023429508     1.654263605     1.407042963
   5    C       -1.267019463     0.753924017    -0.397052034
   6    O       -1.734235957     1.624056677    -1.279989765
   7    C       -1.995933420    -0.422614409     0.098158299
   8    C       -1.115126458    -1.665811028    -0.096602883
   9    C        0.303944135    -1.449910319     0.068896718
  10    H        2.340161520     0.072255297    -1.275068583
  11    H        2.860367894     0.818158267     0.236344404
  12    H        2.983514946    -0.926151887     0.045094689
  13    H        1.043365201    -0.194386735     1.551221923
  14    H        0.625870251     1.810567657    -0.554399208
  15    H       -0.494578702     2.519871068     1.389781134
  16    H       -2.678257082     1.435585627    -1.551221923
  17    H       -2.983514946    -0.557842560    -0.396041545
  18    H       -2.247264659    -0.285273980     1.181613264
  19    H       -1.305920779    -2.105962607    -1.128635490
  20    H       -1.493267521    -2.519871068     0.539632392
  21    H        0.968420011    -2.333999536    -0.048772382


           Empirical Formula: C7 H12 O2  =    21 atoms



      MOLECULAR POINT GROUP   :   C1  


          ALPHA EIGENVALUES  
 -31.91687 -30.97789 -29.63335 -28.12356 -26.11600 -24.44038 -22.40772 -21.63274
 -18.59280 -18.16989 -18.00077 -17.28981 -16.23939 -16.11834 -15.35397 -15.06827
 -14.72523 -14.32297 -13.69956 -13.57590 -13.14522 -12.85511 -12.57772 -12.43004
 -11.38597  -8.81421  -2.11795   1.94588   2.15166   2.46800   2.54432   2.85026
   2.93754   3.32592   3.54016   3.71660   4.14274   4.26481   4.46073   4.99157
   5.10786   5.22258   5.23543   5.29281   5.55744   5.71714   5.88232   6.39869


           BETA EIGENVALUES 
 -31.81022 -30.48221 -29.46621 -28.06772 -25.95072 -24.39922 -22.37278 -21.48010
 -18.50971 -18.07132 -17.94747 -17.15315 -16.13081 -16.07290 -15.30038 -14.89782
 -14.37211 -14.30305 -13.66150 -13.14858 -13.06983 -12.71891 -12.52047 -12.33593
 -11.28958  -2.12060   0.18196   2.11776   2.37522   2.54315   2.63895   2.97946
   3.06715   3.38887   3.72585   3.90509   4.15895   4.29906   4.46918   5.02300
   5.13910   5.23201   5.24125   5.29386   5.68269   5.76044   5.92404   6.39889


              NET ATOMIC CHARGES AND DIPOLE CONTRIBUTIONS

  ATOM NO.   TYPE          CHARGE      No. of ELECS.   s-Pop       p-Pop       
    1          C          -0.441823        4.4418     1.05485     3.38698
    2          C          -0.261220        4.2612     1.07333     3.18789
    3          C           0.185635        3.8144     1.08380     2.73056
    4          O          -0.624045        6.6240     1.84809     4.77595
    5          C           0.001570        3.9984     1.09092     2.90751
    6          O          -0.453499        6.4535     1.82673     4.62677
    7          C          -0.286681        4.2867     1.05455     3.23213
    8          C          -0.387059        4.3871     1.06686     3.32020
    9          C           0.410099        3.5899     1.20014     2.38976
   10          H           0.173110        0.8269     0.82689
   11          H           0.182295        0.8177     0.81771
   12          H           0.175100        0.8249     0.82490
   13          H           0.296163        0.7038     0.70384
   14          H           0.169391        0.8306     0.83061
   15          H           0.369424        0.6306     0.63058
   16          H           0.378396        0.6216     0.62160
   17          H           0.186876        0.8131     0.81312
   18          H           0.191297        0.8087     0.80870
   19          H           0.269215        0.7308     0.73078
   20          H           0.261225        0.7388     0.73877
   21          H           0.204532        0.7955     0.79547
 DIPOLE           X         Y         Z       TOTAL
 POINT-CHG.     0.445    -7.990    -0.824     8.045
 HYBRID        -0.678     0.244     0.061     0.723
 SUM           -0.232    -7.745    -0.764     7.786


          ATOMIC ORBITAL ELECTRON POPULATIONS

     Atom    s        px        py        pz   
    1  C   1.05485   0.99672   1.21460   1.17566
    2  C   1.07333   1.03772   0.99186   1.15831
    3  C   1.08380   0.95860   0.94323   0.82873
    4  O   1.84809   1.85157   1.53202   1.39237
    5  C   1.09092   0.98301   0.94748   0.97702
    6  O   1.82673   1.46194   1.56367   1.60116
    7  C   1.05455   1.08286   0.96371   1.18557
    8  C   1.06686   0.99612   1.11829   1.20580
    9  C   1.20014   1.01713   1.03570   0.33692
   10  H   0.82689
   11  H   0.81771
   12  H   0.82490
   13  H   0.70384
   14  H   0.83061
   15  H   0.63058
   16  H   0.62160
   17  H   0.81312
   18  H   0.80870
   19  H   0.73078
   20  H   0.73877
   21  H   0.79547


                    (SZ)    =    0.500000
                    (S**2)  =    0.752955


          ATOMIC ORBITAL SPIN POPULATIONS

    Atom   Total    s     px     py     pz   
         Atomic
    1  C -0.0008 -0.000 -0.001 -0.000 -0.000
    2  C  0.0111  0.001  0.003  0.005  0.002
    3  C -0.0446 -0.004 -0.019 -0.007 -0.014
    4  O  0.0474  0.002  0.005  0.002  0.038
    5  C  0.8385  0.022  0.145  0.244  0.428
    6  O  0.1485  0.007  0.023  0.038  0.081
    7  C -0.0417 -0.005 -0.008 -0.021 -0.008
    8  C  0.0267  0.005  0.007  0.014  0.001
    9  C -0.0016  0.000 -0.001 -0.001 -0.000
   10  H  0.0001  0.000
   11  H  0.0000  0.000
   12  H  0.0002  0.000
   13  H -0.0005 -0.001
   14  H  0.0021  0.002
   15  H -0.0028 -0.003
   16  H -0.0061 -0.006
   17  H  0.0019  0.002
   18  H  0.0227  0.023
   19  H -0.0006 -0.001
   20  H -0.0007 -0.001
   21  H  0.0004  0.000

 **********************
 *                    *
 * JOB ENDED NORMALLY *
 *                    *
 **********************



 TOTAL JOB TIME:             2.05 SECONDS

 == MOPAC DONE ==
