 *******************************************************************************
 **                                                                           **
 **                              MOPAC v23.2                                  **
 **                                                                           **
 *******************************************************************************
 **          Digital Object Identifier (DOI): 10.5281/zenodo.6511958          **
 **    Visit the DOI location for information on how to cite this program.    **
 *******************************************************************************

                              PM7 CALCULATION RESULTS

 *******************************************************************************
 *  CALCULATION DONE: (MAX THREADS = 40)             Fri Sep 19 21:34:24 2025  *
 *  PM7        - The PM7 Hamiltonian to be used
 *
 *
 *
 *                 CHARGE ON SYSTEM = +1
 *
 *
 *
 *  EPS=37.5   - USE ANDREAS KLAMT'S COSMO IMPLICIT SOLVATION MODEL
 *  1SCF       - DO 1 SCF AND THEN STOP 
 *  T=         - A TIME OF 172800.0 SECONDS REQUESTED
 *  DUMP=N     - RESTART FILE WRITTEN EVERY 7200.0 SECONDS REQUESTED
 *  RELSCF     - DEFAULT SCF CRITERION MULTIPLIED BY 0.0001
 *              (DEFAULT SCF CRITERION = 0.00010)
 *  GRADIENTS  - ALL GRADIENTS TO BE PRINTED
 *  DISP       - PRINT DISPERSION AND HYDROGEN BOND ENERGIES
 *******************************************************************************
PM7 1SCF GRADIENTS EPS=37.5 DISP RELSCF=0.0001 CHARGE=1
 Title: ASE calculation

   ATOM   CHEMICAL          X               Y               Z
  NUMBER   SYMBOL      (ANGSTROMS)     (ANGSTROMS)     (ANGSTROMS)

     1       C         -1.57035065  *  -0.51745476  *   1.92256235  *
     2       C         -1.45862596  *  -0.40362203  *   0.72108570  *
     3       C         -1.34418085  *  -0.27920201  *  -0.70483597  *
     4       C         -1.97838768  *   1.02710396  *  -1.22038369  *
     5       N          0.05206249  *  -0.26342653  *  -1.07654504  *
     6       C          1.03963473  *  -0.71128177  *  -2.00197450  *
     7       C          1.40603684  *  -0.05997683  *  -0.64980044  *
     8       C          1.93713356  *  -0.88818352  *   0.52327918  *
     9       O          1.44424536  *  -0.30682053  *   1.69630914  *
    10       H         -1.67086520  *  -0.62117707  *   2.95275539  *
    11       H         -1.83205408  *  -1.16728089  *  -1.23360677  *
    12       H         -1.94547058  *   1.11334321  *  -2.31417149  *
    13       H         -3.04571509  *   1.06173380  *  -0.92627331  *
    14       H         -1.51487877  *   1.92368548  *  -0.78393578  *
    15       H          1.16460192  *  -1.79507684  *  -2.17880325  *
    16       H          1.18826713  *  -0.16598603  *  -2.95275539  *
    17       H          1.77370124  *   0.98943563  *  -0.63038127  *
    18       H          1.53344480  *  -1.92368548  *   0.53775060  *
    19       H          3.04571509  *  -0.93102716  *   0.49759947  *
    20       H          2.09610807  *   0.31724193  *   2.09846637  *



          CARTESIAN COORDINATES 

    NO.       ATOM           X           Y           Z

     1         C         -1.5704     -0.5175      1.9226
     2         C         -1.4586     -0.4036      0.7211
     3         C         -1.3442     -0.2792     -0.7048
     4         C         -1.9784      1.0271     -1.2204
     5         N          0.0521     -0.2634     -1.0765
     6         C          1.0396     -0.7113     -2.0020
     7         C          1.4060     -0.0600     -0.6498
     8         C          1.9371     -0.8882      0.5233
     9         O          1.4442     -0.3068      1.6963
    10         H         -1.6709     -0.6212      2.9528
    11         H         -1.8321     -1.1673     -1.2336
    12         H         -1.9455      1.1133     -2.3142
    13         H         -3.0457      1.0617     -0.9263
    14         H         -1.5149      1.9237     -0.7839
    15         H          1.1646     -1.7951     -2.1788
    16         H          1.1883     -0.1660     -2.9528
    17         H          1.7737      0.9894     -0.6304
    18         H          1.5334     -1.9237      0.5378
    19         H          3.0457     -0.9310      0.4976
    20         H          2.0961      0.3172      2.0985

 General Reference for PM7:
 "Optimization of Parameters for Semiempirical Methods VI: More Modifications to the 
 NDDO Approximations and Re-optimization of Parameters", J. J. P. Stewart, J. Mol. Mod., 1:32, 19 (2013)
 https://link.springer.com/article/10.1007/s00894-012-1667-x

           Empirical Formula: C7 H11 N O  =    20 atoms



      MOLECULAR POINT GROUP   :   C1  


          UHF CALCULATION, NO. OF ALPHA ELECTRONS =   25
                           NO. OF BETA  ELECTRONS =   24
  SCF CRITERION =    0.1000E-07

 -------------------------------------------------------------------------------
 PM7 1SCF GRADIENTS EPS=37.5 DISP RELSCF=0.0001 CHARGE=1
 Title: ASE calculation



     1SCF WAS SPECIFIED, SO BFGS WAS NOT USED                 
     SCF FIELD WAS ACHIEVED                                   


                              PM7 CALCULATION
                                                       MOPAC v23.2 Linux
                                                       Fri Sep 19 21:34:26 2025




          FINAL HEAT OF FORMATION =        177.79352 KCAL/MOL =     743.88809 KJ/MOL

          TOTAL ENERGY            =     -34155.84188 KCAL/MOL = ELECTRONIC ENERGY + CORE-CORE REPULSION + SOLVATION ENERGY
          ENERGY OF ATOMS         =      34323.93363 KCAL/MOL
                              SUM =        168.09175 KCAL/MOL
          DISPERSION ENERGY       =         -2.29742 KCAL/MOL
                              SUM =        165.79432 KCAL/MOL = FINAL HEAT OF FORMATION

     *    WARNING - An energy term is incorrect or missing!

     *    FINAL HEAT OF FORMATION     =    177.79352 KCAL/MOL
     *    SUM OF CONTRIBUTIONS TO HoF =    165.79432 KCAL/MOL
     *                     DIFFERENCE =     11.99920 KCAL/MOL

          VAN DER WAALS AREA      =        174.08 SQUARE ANGSTROMS


          TOTAL ENERGY            =      -1481.13749 EV
          ELECTRONIC ENERGY       =      -2211.92934 EV 
          CORE-CORE REPULSION     =        730.79185 EV

          DIELECTRIC ENERGY       =         -2.33003 EV
          COSMO AREA              =        174.08 SQUARE ANGSTROMS
          COSMO VOLUME            =        175.61 CUBIC ANGSTROMS

          GRADIENT NORM           =         17.39558          =       3.88977 PER ATOM
          IONIZATION POTENTIAL    =         11.291750 EV
          ALPHA SOMO LUMO (EV)    =        -11.292 -0.773
          BETA  SOMO LUMO (EV)    =        -11.465 -2.284
          NO. OF ALPHA ELECTRONS  =         25
          NO. OF BETA  ELECTRONS  =         24
          MOLECULAR WEIGHT        =        125.1700         POINT GROUP:  C1  

          MOLECULAR DIMENSIONS (Angstroms)

            Atom       Atom       Distance
            H    16    H    10     6.57700
            H    19    H    13     6.44881
            H    17    H    11     3.10205


          SCF CALCULATIONS        =          2

          WALL-CLOCK TIME         =      1.250 SECONDS
          COMPUTATION TIME        =      0.638 SECONDS

          LARGEST ATOMIC GRADIENTS

          Atom     Label                     Cartesian Gradients           Cartesian Coordinates       |Gradient|
                                           X          Y          Z        X          Y          Z

             3       C                  -6.283     -2.356      4.794   -1.34418   -0.27920   -0.70484      8.247
             2       C                   2.155     -0.163     -7.081   -1.45863   -0.40362    0.72109      7.404
             8       C                   2.322      0.839      6.278    1.93713   -0.88818    0.52328      6.746
             4       C                   3.944     -0.472     -3.444   -1.97839    1.02710   -1.22038      5.257
             9       O                   0.288      0.590     -4.791    1.44425   -0.30682    1.69631      4.836
             7       C                  -1.150      2.638     -3.649    1.40604   -0.05998   -0.64980      4.647
             6       C                   1.336     -1.833     -3.937    1.03963   -0.71128   -2.00197      4.544
             5       N                   1.508      1.833      2.574    0.05206   -0.26343   -1.07655      3.502
            20       H                  -0.761     -1.823      1.374    2.09611    0.31724    2.09847      2.406
            13       H                  -1.559      0.777      1.004   -3.04572    1.06173   -0.92627      2.010



       FINAL  POINT  AND  DERIVATIVES

   PARAMETER     ATOM    TYPE            VALUE        GRADIENT
      1          1  C    CARTESIAN X    -1.570351      0.061772  KCAL/ANGSTROM
      2          1  C    CARTESIAN Y    -0.517455      0.181425  KCAL/ANGSTROM
      3          1  C    CARTESIAN Z     1.922562      1.279839  KCAL/ANGSTROM
      4          2  C    CARTESIAN X    -1.458626      2.155184  KCAL/ANGSTROM
      5          2  C    CARTESIAN Y    -0.403622     -0.162819  KCAL/ANGSTROM
      6          2  C    CARTESIAN Z     0.721086     -7.081452  KCAL/ANGSTROM
      7          3  C    CARTESIAN X    -1.344181     -6.282860  KCAL/ANGSTROM
      8          3  C    CARTESIAN Y    -0.279202     -2.356202  KCAL/ANGSTROM
      9          3  C    CARTESIAN Z    -0.704836      4.794048  KCAL/ANGSTROM
     10          4  C    CARTESIAN X    -1.978388      3.944139  KCAL/ANGSTROM
     11          4  C    CARTESIAN Y     1.027104     -0.472079  KCAL/ANGSTROM
     12          4  C    CARTESIAN Z    -1.220384     -3.444104  KCAL/ANGSTROM
     13          5  N    CARTESIAN X     0.052062      1.508044  KCAL/ANGSTROM
     14          5  N    CARTESIAN Y    -0.263427      1.833373  KCAL/ANGSTROM
     15          5  N    CARTESIAN Z    -1.076545      2.574136  KCAL/ANGSTROM
     16          6  C    CARTESIAN X     1.039635      1.335537  KCAL/ANGSTROM
     17          6  C    CARTESIAN Y    -0.711282     -1.832914  KCAL/ANGSTROM
     18          6  C    CARTESIAN Z    -2.001975     -3.937068  KCAL/ANGSTROM
     19          7  C    CARTESIAN X     1.406037     -1.149750  KCAL/ANGSTROM
     20          7  C    CARTESIAN Y    -0.059977      2.638141  KCAL/ANGSTROM
     21          7  C    CARTESIAN Z    -0.649800     -3.648794  KCAL/ANGSTROM
     22          8  C    CARTESIAN X     1.937134      2.321826  KCAL/ANGSTROM
     23          8  C    CARTESIAN Y    -0.888184      0.839075  KCAL/ANGSTROM
     24          8  C    CARTESIAN Z     0.523279      6.278330  KCAL/ANGSTROM
     25          9  O    CARTESIAN X     1.444245      0.287995  KCAL/ANGSTROM
     26          9  O    CARTESIAN Y    -0.306821      0.589509  KCAL/ANGSTROM
     27          9  O    CARTESIAN Z     1.696309     -4.791131  KCAL/ANGSTROM
     28         10  H    CARTESIAN X    -1.670865     -0.291994  KCAL/ANGSTROM
     29         10  H    CARTESIAN Y    -0.621177     -0.490603  KCAL/ANGSTROM
     30         10  H    CARTESIAN Z     2.952755      1.911085  KCAL/ANGSTROM
     31         11  H    CARTESIAN X    -1.832054      0.393664  KCAL/ANGSTROM
     32         11  H    CARTESIAN Y    -1.167281      1.223817  KCAL/ANGSTROM
     33         11  H    CARTESIAN Z    -1.233607      0.722146  KCAL/ANGSTROM
     34         12  H    CARTESIAN X    -1.945471     -1.385959  KCAL/ANGSTROM
     35         12  H    CARTESIAN Y     1.113343      0.514909  KCAL/ANGSTROM
     36         12  H    CARTESIAN Z    -2.314171      0.119762  KCAL/ANGSTROM
     37         13  H    CARTESIAN X    -3.045715     -1.558606  KCAL/ANGSTROM
     38         13  H    CARTESIAN Y     1.061734      0.777230  KCAL/ANGSTROM
     39         13  H    CARTESIAN Z    -0.926273      1.003879  KCAL/ANGSTROM
     40         14  H    CARTESIAN X    -1.514879     -1.234113  KCAL/ANGSTROM
     41         14  H    CARTESIAN Y     1.923685      0.693477  KCAL/ANGSTROM
     42         14  H    CARTESIAN Z    -0.783936      1.008285  KCAL/ANGSTROM
     43         15  H    CARTESIAN X     1.164602      0.604760  KCAL/ANGSTROM
     44         15  H    CARTESIAN Y    -1.795077      0.883164  KCAL/ANGSTROM
     45         15  H    CARTESIAN Z    -2.178803      0.390424  KCAL/ANGSTROM
     46         16  H    CARTESIAN X     1.188267      0.189640  KCAL/ANGSTROM
     47         16  H    CARTESIAN Y    -0.165986     -0.639793  KCAL/ANGSTROM
     48         16  H    CARTESIAN Z    -2.952755      0.145968  KCAL/ANGSTROM
     49         17  H    CARTESIAN X     1.773701     -0.509083  KCAL/ANGSTROM
     50         17  H    CARTESIAN Y     0.989436     -1.179233  KCAL/ANGSTROM
     51         17  H    CARTESIAN Z    -0.630381      0.366062  KCAL/ANGSTROM
     52         18  H    CARTESIAN X     1.533445     -0.170680  KCAL/ANGSTROM
     53         18  H    CARTESIAN Y    -1.923685     -0.462270  KCAL/ANGSTROM
     54         18  H    CARTESIAN Z     0.537751      1.087124  KCAL/ANGSTROM
     55         19  H    CARTESIAN X     3.045715      0.541053  KCAL/ANGSTROM
     56         19  H    CARTESIAN Y    -0.931027     -0.755339  KCAL/ANGSTROM
     57         19  H    CARTESIAN Z     0.497599     -0.152966  KCAL/ANGSTROM
     58         20  H    CARTESIAN X     2.096108     -0.760573  KCAL/ANGSTROM
     59         20  H    CARTESIAN Y     0.317242     -1.822873  KCAL/ANGSTROM
     60         20  H    CARTESIAN Z     2.098466      1.374422  KCAL/ANGSTROM




   ATOM   CHEMICAL          X               Y               Z
  NUMBER   SYMBOL      (ANGSTROMS)     (ANGSTROMS)     (ANGSTROMS)

     1       C         -1.57035065  *  -0.51745476  *   1.92256235  *
     2       C         -1.45862596  *  -0.40362203  *   0.72108570  *
     3       C         -1.34418085  *  -0.27920201  *  -0.70483597  *
     4       C         -1.97838768  *   1.02710396  *  -1.22038369  *
     5       N          0.05206249  *  -0.26342653  *  -1.07654504  *
     6       C          1.03963473  *  -0.71128177  *  -2.00197450  *
     7       C          1.40603684  *  -0.05997683  *  -0.64980044  *
     8       C          1.93713356  *  -0.88818352  *   0.52327918  *
     9       O          1.44424536  *  -0.30682053  *   1.69630914  *
    10       H         -1.67086520  *  -0.62117707  *   2.95275539  *
    11       H         -1.83205408  *  -1.16728089  *  -1.23360677  *
    12       H         -1.94547058  *   1.11334321  *  -2.31417149  *
    13       H         -3.04571509  *   1.06173380  *  -0.92627331  *
    14       H         -1.51487877  *   1.92368548  *  -0.78393578  *
    15       H          1.16460192  *  -1.79507684  *  -2.17880325  *
    16       H          1.18826713  *  -0.16598603  *  -2.95275539  *
    17       H          1.77370124  *   0.98943563  *  -0.63038127  *
    18       H          1.53344480  *  -1.92368548  *   0.53775060  *
    19       H          3.04571509  *  -0.93102716  *   0.49759947  *
    20       H          2.09610807  *   0.31724193  *   2.09846637  *

                             CARTESIAN COORDINATES

   1    C       -1.570350650    -0.517454761     1.922562349
   2    C       -1.458625961    -0.403622031     0.721085698
   3    C       -1.344180848    -0.279202014    -0.704835967
   4    C       -1.978387683     1.027103959    -1.220383690
   5    N        0.052062493    -0.263426530    -1.076545042
   6    C        1.039634725    -0.711281765    -2.001974504
   7    C        1.406036839    -0.059976829    -0.649800442
   8    C        1.937133557    -0.888183522     0.523279183
   9    O        1.444245363    -0.306820531     1.696309138
  10    H       -1.670865195    -0.621177065     2.952755388
  11    H       -1.832054076    -1.167280888    -1.233606770
  12    H       -1.945470577     1.113343211    -2.314171491
  13    H       -3.045715094     1.061733795    -0.926273306
  14    H       -1.514878765     1.923685482    -0.783935784
  15    H        1.164601922    -1.795076839    -2.178803252
  16    H        1.188267130    -0.165986034    -2.952755388
  17    H        1.773701241     0.989435634    -0.630381270
  18    H        1.533444804    -1.923685482     0.537750598
  19    H        3.045715094    -0.931027164     0.497599468
  20    H        2.096108070     0.317241934     2.098466368


           Empirical Formula: C7 H11 N O  =    20 atoms



      MOLECULAR POINT GROUP   :   C1  


          ALPHA EIGENVALUES  
 -39.50000 -30.39151 -29.85090 -26.72677 -25.75236 -24.70614 -22.59952 -21.61925
 -19.52100 -18.50953 -18.02502 -17.91151 -16.97812 -15.71420 -15.30909 -14.87319
 -14.40568 -14.07689 -13.35547 -13.33418 -12.63269 -12.36180 -11.87767 -11.54051
 -11.29175  -0.77293   0.69412   0.89528   1.16026   2.04135   2.50788   2.74336
   2.90908   3.25371   3.61859   4.28773   4.37253   4.58693   4.82903   4.87520
   5.12693   5.23628   5.24443   5.45903   5.76920   6.27274   6.42541


           BETA EIGENVALUES 
 -37.92698 -30.25367 -29.76717 -26.62503 -25.56254 -24.49068 -22.33849 -21.42042
 -19.25041 -18.13330 -17.92399 -17.41640 -16.84078 -15.58994 -15.05747 -14.61655
 -14.23692 -13.98317 -13.30762 -13.23349 -12.50297 -11.83468 -11.56359 -11.46472
  -2.28440  -0.19381   0.82595   0.91611   1.25632   2.21400   2.54625   2.77393
   3.03851   3.41724   4.04271   4.35423   4.50157   4.63165   4.87514   4.90471
   5.14233   5.24215   5.25054   5.45842   5.77446   6.27739   6.42432


              NET ATOMIC CHARGES AND DIPOLE CONTRIBUTIONS

  ATOM NO.   TYPE          CHARGE      No. of ELECS.   s-Pop       p-Pop       
    1          C          -0.054915        4.0549     1.15577     2.89914
    2          C          -0.200723        4.2007     1.09151     3.10921
    3          C           0.129643        3.8704     1.05968     2.81068
    4          C          -0.453721        4.4537     1.06324     3.39048
    5          N          -0.046030        5.0460     1.57508     3.47095
    6          C          -0.167551        4.1676     1.09908     3.06847
    7          C          -0.063207        4.0632     1.10942     2.95378
    8          C           0.010032        3.9900     1.08981     2.90016
    9          O          -0.575273        6.5753     1.84544     4.72983
   10          H           0.215383        0.7846     0.78462
   11          H           0.229444        0.7706     0.77056
   12          H           0.183035        0.8170     0.81697
   13          H           0.197124        0.8029     0.80288
   14          H           0.180212        0.8198     0.81979
   15          H           0.235884        0.7641     0.76412
   16          H           0.239248        0.7608     0.76075
   17          H           0.234897        0.7651     0.76510
   18          H           0.169735        0.8303     0.83027
   19          H           0.172425        0.8276     0.82758
   20          H           0.364357        0.6356     0.63564
 DIPOLE           X         Y         Z       TOTAL
 POINT-CHG.     2.559    -0.384    -5.164     5.776
 HYBRID        -0.138     0.389     0.239     0.477
 SUM            2.421     0.005    -4.925     5.487


          ATOMIC ORBITAL ELECTRON POPULATIONS

     Atom    s        px        py        pz   
    1  C   1.15577   0.90374   0.96428   1.03112
    2  C   1.09151   1.08134   1.04991   0.97797
    3  C   1.05968   0.74026   1.09219   0.97822
    4  C   1.06324   1.17222   1.03313   1.18513
    5  N   1.57508   1.09459   1.15218   1.22418
    6  C   1.09908   0.87519   1.17555   1.01773
    7  C   1.10942   0.81309   1.13991   1.00079
    8  C   1.08981   1.10203   1.01369   0.78444
    9  O   1.84544   1.55803   1.70049   1.47131
   10  H   0.78462
   11  H   0.77056
   12  H   0.81697
   13  H   0.80288
   14  H   0.81979
   15  H   0.76412
   16  H   0.76075
   17  H   0.76510
   18  H   0.83027
   19  H   0.82758
   20  H   0.63564


                    (SZ)    =    0.500000
                    (S**2)  =    0.763849


          ATOMIC ORBITAL SPIN POPULATIONS

    Atom   Total    s     px     py     pz   
         Atomic
    1  C -0.0119 -0.000 -0.008 -0.003  0.000
    2  C  0.0195  0.004  0.006  0.003  0.006
    3  C -0.0512 -0.004 -0.038 -0.003 -0.006
    4  C  0.0558  0.008  0.013  0.030  0.004
    5  N  0.9801  0.049  0.048  0.691  0.192
    6  C -0.0534 -0.005 -0.049  0.004 -0.003
    7  C -0.0665 -0.005 -0.056  0.001 -0.006
    8  C  0.0318  0.003  0.006  0.008  0.015
    9  O  0.0028  0.000  0.001  0.002 -0.000
   10  H  0.0005  0.001
   11  H  0.0170  0.017
   12  H -0.0017 -0.002
   13  H -0.0011 -0.001
   14  H -0.0018 -0.002
   15  H  0.0290  0.029
   16  H  0.0285  0.028
   17  H  0.0242  0.024
   18  H -0.0008 -0.001
   19  H -0.0007 -0.001
   20  H -0.0000 -0.000

 **********************
 *                    *
 * JOB ENDED NORMALLY *
 *                    *
 **********************



 TOTAL JOB TIME:             1.72 SECONDS

 == MOPAC DONE ==
