 *******************************************************************************
 **                                                                           **
 **                              MOPAC v23.2                                  **
 **                                                                           **
 *******************************************************************************
 **          Digital Object Identifier (DOI): 10.5281/zenodo.6511958          **
 **    Visit the DOI location for information on how to cite this program.    **
 *******************************************************************************

                              PM7 CALCULATION RESULTS

 *******************************************************************************
 *  CALCULATION DONE: (MAX THREADS = 40)             Fri Sep 19 21:39:11 2025  *
 *  PM7        - The PM7 Hamiltonian to be used
 *  EPS=37.5   - USE ANDREAS KLAMT'S COSMO IMPLICIT SOLVATION MODEL
 *  1SCF       - DO 1 SCF AND THEN STOP 
 *  T=         - A TIME OF 172800.0 SECONDS REQUESTED
 *  DUMP=N     - RESTART FILE WRITTEN EVERY 7200.0 SECONDS REQUESTED
 *  RELSCF     - DEFAULT SCF CRITERION MULTIPLIED BY 0.0001
 *              (DEFAULT SCF CRITERION = 0.00010)
 *  GRADIENTS  - ALL GRADIENTS TO BE PRINTED
 *  DISP       - PRINT DISPERSION AND HYDROGEN BOND ENERGIES
 *******************************************************************************
PM7 1SCF GRADIENTS EPS=37.5 DISP RELSCF=0.0001
 Title: ASE calculation

   ATOM   CHEMICAL          X               Y               Z
  NUMBER   SYMBOL      (ANGSTROMS)     (ANGSTROMS)     (ANGSTROMS)

     1       C         -1.85329902  *   0.51681914  *   0.95012733  *
     2       C         -1.30739920  *  -0.21839381  *  -0.25380309  *
     3       C         -0.71962482  *  -1.64121376  *   0.03603816  *
     4       C          0.63522557  *  -1.22141616  *  -0.57184071  *
     5       C          1.67063025  *  -0.64411419  *   0.41698742  *
     6       C          1.10470437  *   0.80080731  *   0.18827784  *
     7       C          2.04644079  *   1.71009565  *  -0.40723981  *
     8       N          2.80109222  *   2.44631127  *  -0.88363824  *
     9       C          0.06797570  *   0.23121804  *  -0.82159099  *
    10       H         -2.80109222  *   0.07426607  *   1.28495850  *
    11       H         -2.04752147  *   1.57176324  *   0.71935383  *
    12       H         -1.17232619  *   0.48520200  *   1.80872105  *
    13       H         -2.06876755  *  -0.24756401  *  -1.05790340  *
    14       H         -1.22270171  *  -2.44631127  *  -0.50344376  *
    15       H         -0.68914760  *  -1.91621919  *   1.09186742  *
    16       H          1.01876452  *  -1.82766020  *  -1.38379094  *
    17       H          2.71003751  *  -0.77500316  *   0.10085654  *
    18       H          1.58270344  *  -1.00320495  *   1.44500059  *
    19       H          0.64604414  *   1.24422678  *   1.09739865  *
    20       H          0.05902371  *   0.67740000  *  -1.80872105  *



          CARTESIAN COORDINATES 

    NO.       ATOM           X           Y           Z

     1         C         -1.8533      0.5168      0.9501
     2         C         -1.3074     -0.2184     -0.2538
     3         C         -0.7196     -1.6412      0.0360
     4         C          0.6352     -1.2214     -0.5718
     5         C          1.6706     -0.6441      0.4170
     6         C          1.1047      0.8008      0.1883
     7         C          2.0464      1.7101     -0.4072
     8         N          2.8011      2.4463     -0.8836
     9         C          0.0680      0.2312     -0.8216
    10         H         -2.8011      0.0743      1.2850
    11         H         -2.0475      1.5718      0.7194
    12         H         -1.1723      0.4852      1.8087
    13         H         -2.0688     -0.2476     -1.0579
    14         H         -1.2227     -2.4463     -0.5034
    15         H         -0.6891     -1.9162      1.0919
    16         H          1.0188     -1.8277     -1.3838
    17         H          2.7100     -0.7750      0.1009
    18         H          1.5827     -1.0032      1.4450
    19         H          0.6460      1.2442      1.0974
    20         H          0.0590      0.6774     -1.8087

 General Reference for PM7:
 "Optimization of Parameters for Semiempirical Methods VI: More Modifications to the 
 NDDO Approximations and Re-optimization of Parameters", J. J. P. Stewart, J. Mol. Mod., 1:32, 19 (2013)
 https://link.springer.com/article/10.1007/s00894-012-1667-x

           Empirical Formula: C8 H11 N  =    20 atoms



      MOLECULAR POINT GROUP   :   C1  


      RHF CALCULATION, NO. OF DOUBLY OCCUPIED LEVELS = 24

  SCF CRITERION =    0.1000E-07

 -------------------------------------------------------------------------------
 PM7 1SCF GRADIENTS EPS=37.5 DISP RELSCF=0.0001
 Title: ASE calculation



     1SCF WAS SPECIFIED, SO BFGS WAS NOT USED                 
     SCF FIELD WAS ACHIEVED                                   


                              PM7 CALCULATION
                                                       MOPAC v23.2 Linux
                                                       Fri Sep 19 21:39:12 2025




          FINAL HEAT OF FORMATION =         34.72767 KCAL/MOL =     145.30058 KJ/MOL

          TOTAL ENERGY            =     -30357.48631 KCAL/MOL = ELECTRONIC ENERGY + CORE-CORE REPULSION + SOLVATION ENERGY
          ENERGY OF ATOMS         =      30394.11925 KCAL/MOL
                              SUM =         36.63294 KCAL/MOL
          DISPERSION ENERGY       =         -1.90527 KCAL/MOL
                              SUM =         34.72767 KCAL/MOL = FINAL HEAT OF FORMATION

          VAN DER WAALS AREA      =        167.74 SQUARE ANGSTROMS


          TOTAL ENERGY            =      -1316.42520 EV
          ELECTRONIC ENERGY       =      -2098.33794 EV 
          CORE-CORE REPULSION     =        781.91274 EV

          DIELECTRIC ENERGY       =         -0.34111 EV
          COSMO AREA              =        167.74 SQUARE ANGSTROMS
          COSMO VOLUME            =        168.58 CUBIC ANGSTROMS

          GRADIENT NORM           =         12.95258          =       2.89628 PER ATOM
          IONIZATION POTENTIAL    =         10.725537 EV
          HOMO LUMO ENERGIES (EV) =        -10.726  0.770
          NO. OF FILLED LEVELS    =         24
          MOLECULAR WEIGHT        =        121.1816         POINT GROUP:  C1  

          MOLECULAR DIMENSIONS (Angstroms)

            Atom       Atom       Distance
            H    10    N     8     6.45863
            H    11    H    16     4.57146
            H    18    H    13     3.89102


          SCF CALCULATIONS        =          2

          WALL-CLOCK TIME         =      0.656 SECONDS
          COMPUTATION TIME        =      0.651 SECONDS

          LARGEST ATOMIC GRADIENTS

          Atom     Label                     Cartesian Gradients           Cartesian Coordinates       |Gradient|
                                           X          Y          Z        X          Y          Z

             7       C                   6.056      6.081     -3.863    2.04644    1.71010   -0.40724      9.412
             8       N                  -4.819     -4.513      3.153    2.80109    2.44631   -0.88364      7.316
            19       H                   0.992     -0.528     -2.292    0.64604    1.24423    1.09740      2.552
             6       C                  -1.560     -0.139      1.892    1.10470    0.80081    0.18828      2.456
             5       C                   0.001     -0.710      1.715    1.67063   -0.64411    0.41699      1.856
             1       C                  -0.178      0.204      1.466   -1.85330    0.51682    0.95013      1.490
            18       H                   0.273     -0.208     -1.257    1.58270   -1.00320    1.44500      1.303
             2       C                  -0.067      0.263     -1.132   -1.30740   -0.21839   -0.25380      1.164
             3       C                  -0.189     -0.160      0.745   -0.71962   -1.64121    0.03604      0.785
            17       H                  -0.665      0.208     -0.313    2.71004   -0.77500    0.10086      0.764



       FINAL  POINT  AND  DERIVATIVES

   PARAMETER     ATOM    TYPE            VALUE        GRADIENT
      1          1  C    CARTESIAN X    -1.853299     -0.177811  KCAL/ANGSTROM
      2          1  C    CARTESIAN Y     0.516819      0.203837  KCAL/ANGSTROM
      3          1  C    CARTESIAN Z     0.950127      1.465567  KCAL/ANGSTROM
      4          2  C    CARTESIAN X    -1.307399     -0.067152  KCAL/ANGSTROM
      5          2  C    CARTESIAN Y    -0.218394      0.263144  KCAL/ANGSTROM
      6          2  C    CARTESIAN Z    -0.253803     -1.131728  KCAL/ANGSTROM
      7          3  C    CARTESIAN X    -0.719625     -0.189254  KCAL/ANGSTROM
      8          3  C    CARTESIAN Y    -1.641214     -0.159580  KCAL/ANGSTROM
      9          3  C    CARTESIAN Z     0.036038      0.744807  KCAL/ANGSTROM
     10          4  C    CARTESIAN X     0.635226      0.435203  KCAL/ANGSTROM
     11          4  C    CARTESIAN Y    -1.221416     -0.567087  KCAL/ANGSTROM
     12          4  C    CARTESIAN Z    -0.571841     -0.198779  KCAL/ANGSTROM
     13          5  C    CARTESIAN X     1.670630      0.000897  KCAL/ANGSTROM
     14          5  C    CARTESIAN Y    -0.644114     -0.709695  KCAL/ANGSTROM
     15          5  C    CARTESIAN Z     0.416987      1.714939  KCAL/ANGSTROM
     16          6  C    CARTESIAN X     1.104704     -1.559523  KCAL/ANGSTROM
     17          6  C    CARTESIAN Y     0.800807     -0.138937  KCAL/ANGSTROM
     18          6  C    CARTESIAN Z     0.188278      1.892388  KCAL/ANGSTROM
     19          7  C    CARTESIAN X     2.046441      6.056392  KCAL/ANGSTROM
     20          7  C    CARTESIAN Y     1.710096      6.080915  KCAL/ANGSTROM
     21          7  C    CARTESIAN Z    -0.407240     -3.863339  KCAL/ANGSTROM
     22          8  N    CARTESIAN X     2.801092     -4.818621  KCAL/ANGSTROM
     23          8  N    CARTESIAN Y     2.446311     -4.513279  KCAL/ANGSTROM
     24          8  N    CARTESIAN Z    -0.883638      3.152844  KCAL/ANGSTROM
     25          9  C    CARTESIAN X     0.067976     -0.209688  KCAL/ANGSTROM
     26          9  C    CARTESIAN Y     0.231218      0.377830  KCAL/ANGSTROM
     27          9  C    CARTESIAN Z    -0.821591      0.432893  KCAL/ANGSTROM
     28         10  H    CARTESIAN X    -2.801092      0.077540  KCAL/ANGSTROM
     29         10  H    CARTESIAN Y     0.074266     -0.097738  KCAL/ANGSTROM
     30         10  H    CARTESIAN Z     1.284958      0.009921  KCAL/ANGSTROM
     31         11  H    CARTESIAN X    -2.047521     -0.041542  KCAL/ANGSTROM
     32         11  H    CARTESIAN Y     1.571763     -0.453994  KCAL/ANGSTROM
     33         11  H    CARTESIAN Z     0.719354     -0.239508  KCAL/ANGSTROM
     34         12  H    CARTESIAN X    -1.172326     -0.573530  KCAL/ANGSTROM
     35         12  H    CARTESIAN Y     0.485202      0.104321  KCAL/ANGSTROM
     36         12  H    CARTESIAN Z     1.808721     -0.447222  KCAL/ANGSTROM
     37         13  H    CARTESIAN X    -2.068768      0.149173  KCAL/ANGSTROM
     38         13  H    CARTESIAN Y    -0.247564      0.052020  KCAL/ANGSTROM
     39         13  H    CARTESIAN Z    -1.057903      0.193596  KCAL/ANGSTROM
     40         14  H    CARTESIAN X    -1.222702      0.290944  KCAL/ANGSTROM
     41         14  H    CARTESIAN Y    -2.446311      0.575268  KCAL/ANGSTROM
     42         14  H    CARTESIAN Z    -0.503444      0.172543  KCAL/ANGSTROM
     43         15  H    CARTESIAN X    -0.689148     -0.184015  KCAL/ANGSTROM
     44         15  H    CARTESIAN Y    -1.916219     -0.249354  KCAL/ANGSTROM
     45         15  H    CARTESIAN Z     1.091867     -0.684756  KCAL/ANGSTROM
     46         16  H    CARTESIAN X     1.018765     -0.021391  KCAL/ANGSTROM
     47         16  H    CARTESIAN Y    -1.827660      0.075437  KCAL/ANGSTROM
     48         16  H    CARTESIAN Z    -1.383791      0.282214  KCAL/ANGSTROM
     49         17  H    CARTESIAN X     2.710038     -0.665044  KCAL/ANGSTROM
     50         17  H    CARTESIAN Y    -0.775003      0.208090  KCAL/ANGSTROM
     51         17  H    CARTESIAN Z     0.100857     -0.312745  KCAL/ANGSTROM
     52         18  H    CARTESIAN X     1.582703      0.272731  KCAL/ANGSTROM
     53         18  H    CARTESIAN Y    -1.003205     -0.207606  KCAL/ANGSTROM
     54         18  H    CARTESIAN Z     1.445001     -1.257468  KCAL/ANGSTROM
     55         19  H    CARTESIAN X     0.646044      0.991971  KCAL/ANGSTROM
     56         19  H    CARTESIAN Y     1.244227     -0.527716  KCAL/ANGSTROM
     57         19  H    CARTESIAN Z     1.097399     -2.291788  KCAL/ANGSTROM
     58         20  H    CARTESIAN X     0.059024      0.232719  KCAL/ANGSTROM
     59         20  H    CARTESIAN Y     0.677400     -0.315881  KCAL/ANGSTROM
     60         20  H    CARTESIAN Z    -1.808721      0.365618  KCAL/ANGSTROM




   ATOM   CHEMICAL          X               Y               Z
  NUMBER   SYMBOL      (ANGSTROMS)     (ANGSTROMS)     (ANGSTROMS)

     1       C         -1.85329902  *   0.51681914  *   0.95012733  *
     2       C         -1.30739920  *  -0.21839381  *  -0.25380309  *
     3       C         -0.71962482  *  -1.64121376  *   0.03603816  *
     4       C          0.63522557  *  -1.22141616  *  -0.57184071  *
     5       C          1.67063025  *  -0.64411419  *   0.41698742  *
     6       C          1.10470437  *   0.80080731  *   0.18827784  *
     7       C          2.04644079  *   1.71009565  *  -0.40723981  *
     8       N          2.80109222  *   2.44631127  *  -0.88363824  *
     9       C          0.06797570  *   0.23121804  *  -0.82159099  *
    10       H         -2.80109222  *   0.07426607  *   1.28495850  *
    11       H         -2.04752147  *   1.57176324  *   0.71935383  *
    12       H         -1.17232619  *   0.48520200  *   1.80872105  *
    13       H         -2.06876755  *  -0.24756401  *  -1.05790340  *
    14       H         -1.22270171  *  -2.44631127  *  -0.50344376  *
    15       H         -0.68914760  *  -1.91621919  *   1.09186742  *
    16       H          1.01876452  *  -1.82766020  *  -1.38379094  *
    17       H          2.71003751  *  -0.77500316  *   0.10085654  *
    18       H          1.58270344  *  -1.00320495  *   1.44500059  *
    19       H          0.64604414  *   1.24422678  *   1.09739865  *
    20       H          0.05902371  *   0.67740000  *  -1.80872105  *

                             CARTESIAN COORDINATES

   1    C       -1.853299024     0.516819143     0.950127325
   2    C       -1.307399198    -0.218393814    -0.253803092
   3    C       -0.719624818    -1.641213765     0.036038164
   4    C        0.635225565    -1.221416158    -0.571840712
   5    C        1.670630252    -0.644114190     0.416987419
   6    C        1.104704371     0.800807309     0.188277840
   7    C        2.046440786     1.710095648    -0.407239815
   8    N        2.801092218     2.446311274    -0.883638244
   9    C        0.067975704     0.231218038    -0.821590989
  10    H       -2.801092218     0.074266075     1.284958499
  11    H       -2.047521469     1.571763236     0.719353833
  12    H       -1.172326186     0.485202005     1.808721053
  13    H       -2.068767548    -0.247564012    -1.057903398
  14    H       -1.222701711    -2.446311274    -0.503443755
  15    H       -0.689147599    -1.916219186     1.091867425
  16    H        1.018764519    -1.827660203    -1.383790939
  17    H        2.710037505    -0.775003162     0.100856539
  18    H        1.582703436    -1.003204948     1.445000593
  19    H        0.646044137     1.244226779     1.097398652
  20    H        0.059023715     0.677400003    -1.808721053


           Empirical Formula: C8 H11 N  =    20 atoms



      MOLECULAR POINT GROUP   :   C1  


                  EIGENVALUES  
 -35.57281 -32.14765 -27.55552 -25.50921 -23.42967 -22.09874 -20.05640 -18.99435
 -17.46842 -16.57802 -16.00429 -15.43154 -14.63152 -14.40208 -14.15964 -13.80848
 -13.70921 -12.68047 -12.56083 -12.45668 -11.80182 -11.31634 -11.10770 -10.72554
   0.77044   0.89573   2.69252   2.85914   3.03286   3.28864   3.49479   3.58650
   4.46757   4.52357   5.11104   5.23247   5.54843   5.64976   5.71726   5.82290
   5.88864   5.95766   6.14143   6.24885   6.29175   6.60766   7.03561


              NET ATOMIC CHARGES AND DIPOLE CONTRIBUTIONS

  ATOM NO.   TYPE          CHARGE      No. of ELECS.   s-Pop       p-Pop       
    1          C          -0.461461        4.4615     1.05233     3.40913
    2          C          -0.086669        4.0867     1.06841     3.01826
    3          C          -0.308846        4.3088     1.07326     3.23559
    4          C          -0.130258        4.1303     1.07954     3.05072
    5          C          -0.270271        4.2703     1.07311     3.19716
    6          C          -0.152683        4.1527     1.05988     3.09280
    7          C           0.218663        3.7813     1.12736     2.65398
    8          N          -0.400838        5.4008     1.83141     3.56943
    9          C          -0.147700        4.1477     1.08765     3.06005
   10          H           0.154088        0.8459     0.84591
   11          H           0.155201        0.8448     0.84480
   12          H           0.155798        0.8442     0.84420
   13          H           0.144970        0.8550     0.85503
   14          H           0.146782        0.8532     0.85322
   15          H           0.153671        0.8463     0.84633
   16          H           0.151121        0.8489     0.84888
   17          H           0.159185        0.8408     0.84081
   18          H           0.163786        0.8362     0.83621
   19          H           0.200420        0.7996     0.79958
   20          H           0.155042        0.8450     0.84496
 DIPOLE           X         Y         Z       TOTAL
 POINT-CHG.    -3.514    -3.413     1.955     5.274
 HYBRID        -0.033     0.018     0.259     0.262
 SUM           -3.547    -3.395     2.214     5.386


          ATOMIC ORBITAL ELECTRON POPULATIONS

     Atom    s        px        py        pz   
    1  C   1.05233   1.16660   1.14884   1.09369
    2  C   1.06841   0.99930   0.97825   1.04071
    3  C   1.07326   1.02896   1.05336   1.15327
    4  C   1.07954   0.98059   1.01310   1.05704
    5  C   1.07311   1.09667   0.96958   1.13091
    6  C   1.05988   1.01024   0.98662   1.09594
    7  C   1.12736   0.89201   0.88694   0.87502
    8  N   1.83141   1.19542   1.19631   1.17770
    9  C   1.08765   0.99248   1.00959   1.05798
   10  H   0.84591
   11  H   0.84480
   12  H   0.84420
   13  H   0.85503
   14  H   0.85322
   15  H   0.84633
   16  H   0.84888
   17  H   0.84081
   18  H   0.83621
   19  H   0.79958
   20  H   0.84496

 **********************
 *                    *
 * JOB ENDED NORMALLY *
 *                    *
 **********************



 TOTAL JOB TIME:             1.08 SECONDS

 == MOPAC DONE ==
