 *******************************************************************************
 **                                                                           **
 **                              MOPAC v23.2                                  **
 **                                                                           **
 *******************************************************************************
 **          Digital Object Identifier (DOI): 10.5281/zenodo.6511958          **
 **    Visit the DOI location for information on how to cite this program.    **
 *******************************************************************************

                              PM7 CALCULATION RESULTS

 *******************************************************************************
 *  CALCULATION DONE: (MAX THREADS = 40)             Fri Sep 19 21:39:29 2025  *
 *  PM7        - The PM7 Hamiltonian to be used
 *  EPS=37.5   - USE ANDREAS KLAMT'S COSMO IMPLICIT SOLVATION MODEL
 *  1SCF       - DO 1 SCF AND THEN STOP 
 *  T=         - A TIME OF 172800.0 SECONDS REQUESTED
 *  DUMP=N     - RESTART FILE WRITTEN EVERY 7200.0 SECONDS REQUESTED
 *  RELSCF     - DEFAULT SCF CRITERION MULTIPLIED BY 0.0001
 *              (DEFAULT SCF CRITERION = 0.00010)
 *  GRADIENTS  - ALL GRADIENTS TO BE PRINTED
 *  DISP       - PRINT DISPERSION AND HYDROGEN BOND ENERGIES
 *******************************************************************************
PM7 1SCF GRADIENTS EPS=37.5 DISP RELSCF=0.0001
 Title: ASE calculation

   ATOM   CHEMICAL          X               Y               Z
  NUMBER   SYMBOL      (ANGSTROMS)     (ANGSTROMS)     (ANGSTROMS)

     1       C         -2.92232298  *   1.12705196  *   0.21613975  *
     2       C         -2.02812966  *  -0.03727385  *   0.56568246  *
     3       C         -1.22525887  *  -0.66970992  *  -0.60969357  *
     4       C          0.00689571  *  -0.09207847  *   0.09543556  *
     5       C          1.22635001  *  -0.92196693  *   0.55001763  *
     6       N          2.15489860  *   0.04773703  *  -0.14731299  *
     7       C          3.11499034  *   0.70643617  *   0.74419649  *
     8       C          0.98386247  *   0.91819183  *  -0.54505611  *
     9       O         -0.78381592  *   0.44524207  *   1.16619757  *
    10       H         -3.83918817  *   0.79653738  *  -0.28401849  *
    11       H         -3.20890728  *   1.68275059  *   1.12042975  *
    12       H         -2.41673532  *   1.84424661  *  -0.44419566  *
    13       H         -2.48638879  *  -0.75570157  *   1.26222943  *
    14       H         -1.43392967  *  -0.26454824  *  -1.60177358  *
    15       H         -1.26258281  *  -1.75937987  *  -0.67033716  *
    16       H          1.31832886  *  -1.91907530  *   0.09763580  *
    17       H          1.33376648  *  -1.00125956  *   1.63858979  *
    18       H          3.67647574  *   1.45736751  *   0.16149487  *
    19       H          3.83918817  *  -0.04553877  *   1.10179102  *
    20       H          2.67429839  *   1.20661871  *   1.62016813  *
    21       H          0.93171401  *   1.00332428  *  -1.63858979  *
    22       H          0.94997862  *   1.91907530  *  -0.09755748  *



          CARTESIAN COORDINATES 

    NO.       ATOM           X           Y           Z

     1         C         -2.9223      1.1271      0.2161
     2         C         -2.0281     -0.0373      0.5657
     3         C         -1.2253     -0.6697     -0.6097
     4         C          0.0069     -0.0921      0.0954
     5         C          1.2264     -0.9220      0.5500
     6         N          2.1549      0.0477     -0.1473
     7         C          3.1150      0.7064      0.7442
     8         C          0.9839      0.9182     -0.5451
     9         O         -0.7838      0.4452      1.1662
    10         H         -3.8392      0.7965     -0.2840
    11         H         -3.2089      1.6828      1.1204
    12         H         -2.4167      1.8442     -0.4442
    13         H         -2.4864     -0.7557      1.2622
    14         H         -1.4339     -0.2645     -1.6018
    15         H         -1.2626     -1.7594     -0.6703
    16         H          1.3183     -1.9191      0.0976
    17         H          1.3338     -1.0013      1.6386
    18         H          3.6765      1.4574      0.1615
    19         H          3.8392     -0.0455      1.1018
    20         H          2.6743      1.2066      1.6202
    21         H          0.9317      1.0033     -1.6386
    22         H          0.9500      1.9191     -0.0976

 General Reference for PM7:
 "Optimization of Parameters for Semiempirical Methods VI: More Modifications to the 
 NDDO Approximations and Re-optimization of Parameters", J. J. P. Stewart, J. Mol. Mod., 1:32, 19 (2013)
 https://link.springer.com/article/10.1007/s00894-012-1667-x

           Empirical Formula: C7 H13 N O  =    22 atoms



      MOLECULAR POINT GROUP   :   C1  


      RHF CALCULATION, NO. OF DOUBLY OCCUPIED LEVELS = 26

  SCF CRITERION =    0.1000E-07

 -------------------------------------------------------------------------------
 PM7 1SCF GRADIENTS EPS=37.5 DISP RELSCF=0.0001
 Title: ASE calculation



     1SCF WAS SPECIFIED, SO BFGS WAS NOT USED                 
     SCF FIELD WAS ACHIEVED                                   


                              PM7 CALCULATION
                                                       MOPAC v23.2 Linux
                                                       Fri Sep 19 21:39:30 2025




          FINAL HEAT OF FORMATION =        -22.42730 KCAL/MOL =     -93.83584 KJ/MOL

          TOTAL ENERGY            =     -34959.09400 KCAL/MOL = ELECTRONIC ENERGY + CORE-CORE REPULSION + SOLVATION ENERGY
          ENERGY OF ATOMS         =      34938.70333 KCAL/MOL
                              SUM =        -20.39068 KCAL/MOL
          DISPERSION ENERGY       =         -2.03663 KCAL/MOL
                              SUM =        -22.42730 KCAL/MOL = FINAL HEAT OF FORMATION

          VAN DER WAALS AREA      =        172.88 SQUARE ANGSTROMS


          TOTAL ENERGY            =      -1515.96980 EV
          ELECTRONIC ENERGY       =      -2453.10887 EV 
          CORE-CORE REPULSION     =        937.13907 EV

          DIELECTRIC ENERGY       =         -0.40148 EV
          COSMO AREA              =        172.88 SQUARE ANGSTROMS
          COSMO VOLUME            =        174.02 CUBIC ANGSTROMS

          GRADIENT NORM           =         10.52615          =       2.24418 PER ATOM
          IONIZATION POTENTIAL    =          9.647785 EV
          HOMO LUMO ENERGIES (EV) =         -9.648  1.937
          NO. OF FILLED LEVELS    =         26
          MOLECULAR WEIGHT        =        127.1858         POINT GROUP:  C1  

          MOLECULAR DIMENSIONS (Angstroms)

            Atom       Atom       Distance
            H    19    H    10     7.84774
            H    13    H    21     4.02555
            H    11    H    15     3.87145


          SCF CALCULATIONS        =          2

          WALL-CLOCK TIME         =      1.031 SECONDS
          COMPUTATION TIME        =      0.761 SECONDS

          LARGEST ATOMIC GRADIENTS

          Atom     Label                     Cartesian Gradients           Cartesian Coordinates       |Gradient|
                                           X          Y          Z        X          Y          Z

             2       C                   4.798      0.479      3.348   -2.02813   -0.03727    0.56568      5.870
             1       C                  -3.582      0.320     -2.362   -2.92232    1.12705    0.21614      4.303
             3       C                  -1.959     -1.869     -2.666   -1.22526   -0.66971   -0.60969      3.800
             9       O                  -2.562     -0.584     -1.164   -0.78382    0.44524    1.16620      2.874
             7       C                  -0.917      1.259      2.133    3.11499    0.70644    0.74420      2.641
             4       C                  -0.227      0.638      1.874    0.00690   -0.09208    0.09544      1.992
            16       H                   0.833      1.328     -0.938    1.31833   -1.91908    0.09764      1.827
            21       H                   1.103     -1.127      0.776    0.93171    1.00332   -1.63859      1.758
            19       H                  -0.541     -0.102     -1.587    3.83919   -0.04554    1.10179      1.680
            18       H                  -0.258     -1.431     -0.757    3.67648    1.45737    0.16149      1.640



       FINAL  POINT  AND  DERIVATIVES

   PARAMETER     ATOM    TYPE            VALUE        GRADIENT
      1          1  C    CARTESIAN X    -2.922323     -3.581908  KCAL/ANGSTROM
      2          1  C    CARTESIAN Y     1.127052      0.319808  KCAL/ANGSTROM
      3          1  C    CARTESIAN Z     0.216140     -2.362314  KCAL/ANGSTROM
      4          2  C    CARTESIAN X    -2.028130      4.797949  KCAL/ANGSTROM
      5          2  C    CARTESIAN Y    -0.037274      0.478569  KCAL/ANGSTROM
      6          2  C    CARTESIAN Z     0.565682      3.347942  KCAL/ANGSTROM
      7          3  C    CARTESIAN X    -1.225259     -1.959467  KCAL/ANGSTROM
      8          3  C    CARTESIAN Y    -0.669710     -1.869478  KCAL/ANGSTROM
      9          3  C    CARTESIAN Z    -0.609694     -2.665500  KCAL/ANGSTROM
     10          4  C    CARTESIAN X     0.006896     -0.226636  KCAL/ANGSTROM
     11          4  C    CARTESIAN Y    -0.092078      0.637889  KCAL/ANGSTROM
     12          4  C    CARTESIAN Z     0.095436      1.873782  KCAL/ANGSTROM
     13          5  C    CARTESIAN X     1.226350      0.512919  KCAL/ANGSTROM
     14          5  C    CARTESIAN Y    -0.921967     -0.597401  KCAL/ANGSTROM
     15          5  C    CARTESIAN Z     0.550018      0.799606  KCAL/ANGSTROM
     16          6  N    CARTESIAN X     2.154899     -0.117971  KCAL/ANGSTROM
     17          6  N    CARTESIAN Y     0.047737     -0.410578  KCAL/ANGSTROM
     18          6  N    CARTESIAN Z    -0.147313     -1.110529  KCAL/ANGSTROM
     19          7  C    CARTESIAN X     3.114990     -0.916644  KCAL/ANGSTROM
     20          7  C    CARTESIAN Y     0.706436      1.259456  KCAL/ANGSTROM
     21          7  C    CARTESIAN Z     0.744196      2.132661  KCAL/ANGSTROM
     22          8  C    CARTESIAN X     0.983862      0.206879  KCAL/ANGSTROM
     23          8  C    CARTESIAN Y     0.918192      1.237495  KCAL/ANGSTROM
     24          8  C    CARTESIAN Z    -0.545056      0.073932  KCAL/ANGSTROM
     25          9  O    CARTESIAN X    -0.783816     -2.562006  KCAL/ANGSTROM
     26          9  O    CARTESIAN Y     0.445242     -0.584492  KCAL/ANGSTROM
     27          9  O    CARTESIAN Z     1.166198     -1.164281  KCAL/ANGSTROM
     28         10  H    CARTESIAN X    -3.839188      0.812358  KCAL/ANGSTROM
     29         10  H    CARTESIAN Y     0.796537      0.287958  KCAL/ANGSTROM
     30         10  H    CARTESIAN Z    -0.284018      0.452130  KCAL/ANGSTROM
     31         11  H    CARTESIAN X    -3.208907      1.292253  KCAL/ANGSTROM
     32         11  H    CARTESIAN Y     1.682751     -0.156424  KCAL/ANGSTROM
     33         11  H    CARTESIAN Z     1.120430      0.162774  KCAL/ANGSTROM
     34         12  H    CARTESIAN X    -2.416735      0.512583  KCAL/ANGSTROM
     35         12  H    CARTESIAN Y     1.844247     -0.103119  KCAL/ANGSTROM
     36         12  H    CARTESIAN Z    -0.444196      0.804545  KCAL/ANGSTROM
     37         13  H    CARTESIAN X    -2.486389      0.166219  KCAL/ANGSTROM
     38         13  H    CARTESIAN Y    -0.755702      0.532935  KCAL/ANGSTROM
     39         13  H    CARTESIAN Z     1.262229     -0.478537  KCAL/ANGSTROM
     40         14  H    CARTESIAN X    -1.433930      0.516961  KCAL/ANGSTROM
     41         14  H    CARTESIAN Y    -0.264548     -0.156708  KCAL/ANGSTROM
     42         14  H    CARTESIAN Z    -1.601774      0.636040  KCAL/ANGSTROM
     43         15  H    CARTESIAN X    -1.262583      0.540364  KCAL/ANGSTROM
     44         15  H    CARTESIAN Y    -1.759380      0.795572  KCAL/ANGSTROM
     45         15  H    CARTESIAN Z    -0.670337      0.336669  KCAL/ANGSTROM
     46         16  H    CARTESIAN X     1.318329      0.833461  KCAL/ANGSTROM
     47         16  H    CARTESIAN Y    -1.919075      1.327891  KCAL/ANGSTROM
     48         16  H    CARTESIAN Z     0.097636     -0.937675  KCAL/ANGSTROM
     49         17  H    CARTESIAN X     1.333766     -0.792564  KCAL/ANGSTROM
     50         17  H    CARTESIAN Y    -1.001260      0.522390  KCAL/ANGSTROM
     51         17  H    CARTESIAN Z     1.638590     -0.547669  KCAL/ANGSTROM
     52         18  H    CARTESIAN X     3.676476     -0.258237  KCAL/ANGSTROM
     53         18  H    CARTESIAN Y     1.457368     -1.431334  KCAL/ANGSTROM
     54         18  H    CARTESIAN Z     0.161495     -0.757257  KCAL/ANGSTROM
     55         19  H    CARTESIAN X     3.839188     -0.541415  KCAL/ANGSTROM
     56         19  H    CARTESIAN Y    -0.045539     -0.101538  KCAL/ANGSTROM
     57         19  H    CARTESIAN Z     1.101791     -1.587285  KCAL/ANGSTROM
     58         20  H    CARTESIAN X     2.674298     -0.149186  KCAL/ANGSTROM
     59         20  H    CARTESIAN Y     1.206619      0.029380  KCAL/ANGSTROM
     60         20  H    CARTESIAN Z     1.620168     -0.051314  KCAL/ANGSTROM
     61         21  H    CARTESIAN X     0.931714      1.103027  KCAL/ANGSTROM
     62         21  H    CARTESIAN Y     1.003324     -1.127268  KCAL/ANGSTROM
     63         21  H    CARTESIAN Z    -1.638590      0.775770  KCAL/ANGSTROM
     64         22  H    CARTESIAN X     0.949979     -0.188939  KCAL/ANGSTROM
     65         22  H    CARTESIAN Y     1.919075     -0.891008  KCAL/ANGSTROM
     66         22  H    CARTESIAN Z    -0.097557      0.266505  KCAL/ANGSTROM




   ATOM   CHEMICAL          X               Y               Z
  NUMBER   SYMBOL      (ANGSTROMS)     (ANGSTROMS)     (ANGSTROMS)

     1       C         -2.92232298  *   1.12705196  *   0.21613975  *
     2       C         -2.02812966  *  -0.03727385  *   0.56568246  *
     3       C         -1.22525887  *  -0.66970992  *  -0.60969357  *
     4       C          0.00689571  *  -0.09207847  *   0.09543556  *
     5       C          1.22635001  *  -0.92196693  *   0.55001763  *
     6       N          2.15489860  *   0.04773703  *  -0.14731299  *
     7       C          3.11499034  *   0.70643617  *   0.74419649  *
     8       C          0.98386247  *   0.91819183  *  -0.54505611  *
     9       O         -0.78381592  *   0.44524207  *   1.16619757  *
    10       H         -3.83918817  *   0.79653738  *  -0.28401849  *
    11       H         -3.20890728  *   1.68275059  *   1.12042975  *
    12       H         -2.41673532  *   1.84424661  *  -0.44419566  *
    13       H         -2.48638879  *  -0.75570157  *   1.26222943  *
    14       H         -1.43392967  *  -0.26454824  *  -1.60177358  *
    15       H         -1.26258281  *  -1.75937987  *  -0.67033716  *
    16       H          1.31832886  *  -1.91907530  *   0.09763580  *
    17       H          1.33376648  *  -1.00125956  *   1.63858979  *
    18       H          3.67647574  *   1.45736751  *   0.16149487  *
    19       H          3.83918817  *  -0.04553877  *   1.10179102  *
    20       H          2.67429839  *   1.20661871  *   1.62016813  *
    21       H          0.93171401  *   1.00332428  *  -1.63858979  *
    22       H          0.94997862  *   1.91907530  *  -0.09755748  *

                             CARTESIAN COORDINATES

   1    C       -2.922322977     1.127051956     0.216139749
   2    C       -2.028129660    -0.037273848     0.565682457
   3    C       -1.225258868    -0.669709920    -0.609693569
   4    C        0.006895714    -0.092078470     0.095435558
   5    C        1.226350013    -0.921966929     0.550017629
   6    N        2.154898603     0.047737027    -0.147312987
   7    C        3.114990339     0.706436169     0.744196490
   8    C        0.983862468     0.918191827    -0.545056108
   9    O       -0.783815923     0.445242067     1.166197575
  10    H       -3.839188165     0.796537384    -0.284018486
  11    H       -3.208907282     1.682750593     1.120429746
  12    H       -2.416735319     1.844246614    -0.444195658
  13    H       -2.486388793    -0.755701566     1.262229434
  14    H       -1.433929671    -0.264548236    -1.601773576
  15    H       -1.262582807    -1.759379867    -0.670337157
  16    H        1.318328859    -1.919075296     0.097635802
  17    H        1.333766483    -1.001259556     1.638589793
  18    H        3.676475738     1.457367510     0.161494873
  19    H        3.839188165    -0.045538773     1.101791017
  20    H        2.674298385     1.206618714     1.620168130
  21    H        0.931714010     1.003324281    -1.638589793
  22    H        0.949978620     1.919075296    -0.097557481


           Empirical Formula: C7 H13 N O  =    22 atoms



      MOLECULAR POINT GROUP   :   C1  


                  EIGENVALUES  
 -35.76354 -31.16458 -26.73886 -26.38471 -24.29548 -23.73738 -22.37460 -20.02733
 -18.52800 -17.21653 -17.07493 -16.54118 -15.49548 -15.21015 -14.73291 -13.91075
 -13.77061 -13.50589 -13.13264 -12.72764 -12.62138 -12.09844 -11.72967 -11.45830
 -10.31880  -9.64778   1.93673   2.25241   2.99927   3.16346   3.70742   3.76605
   3.80246   4.18247   4.37095   4.96090   5.38083   5.53417   5.66493   5.67519
   5.70606   5.75031   5.85083   5.93462   6.01711   6.10376   6.33931   6.53533
   6.92072


              NET ATOMIC CHARGES AND DIPOLE CONTRIBUTIONS

  ATOM NO.   TYPE          CHARGE      No. of ELECS.   s-Pop       p-Pop       
    1          C          -0.494074        4.4941     1.05716     3.43692
    2          C           0.163269        3.8367     1.09569     2.74104
    3          C          -0.386026        4.3860     1.08374     3.30229
    4          C           0.236343        3.7637     1.09851     2.66515
    5          C          -0.191330        4.1913     1.09293     3.09840
    6          N          -0.436641        5.4366     1.72527     3.71137
    7          C          -0.297090        4.2971     1.06300     3.23409
    8          C          -0.189222        4.1892     1.09283     3.09639
    9          O          -0.498702        6.4987     1.90114     4.59756
   10          H           0.167770        0.8322     0.83223
   11          H           0.166884        0.8331     0.83312
   12          H           0.165964        0.8340     0.83404
   13          H           0.141747        0.8583     0.85825
   14          H           0.172511        0.8275     0.82749
   15          H           0.170775        0.8292     0.82922
   16          H           0.165163        0.8348     0.83484
   17          H           0.160701        0.8393     0.83930
   18          H           0.158502        0.8415     0.84150
   19          H           0.157769        0.8422     0.84223
   20          H           0.141642        0.8584     0.85836
   21          H           0.163237        0.8368     0.83676
   22          H           0.160807        0.8392     0.83919
 DIPOLE           X         Y         Z       TOTAL
 POINT-CHG.    -1.926    -0.575    -1.047     2.266
 HYBRID        -0.095     0.595     0.820     1.018
 SUM           -2.020     0.020    -0.227     2.033


          ATOMIC ORBITAL ELECTRON POPULATIONS

     Atom    s        px        py        pz   
    1  C   1.05716   1.13832   1.10799   1.19061
    2  C   1.09569   0.83038   0.96772   0.94293
    3  C   1.08374   1.03907   1.15827   1.10495
    4  C   1.09851   0.88430   0.93625   0.84459
    5  C   1.09293   0.93690   1.04510   1.11640
    6  N   1.72527   1.15357   1.18219   1.37561
    7  C   1.06300   1.04049   1.12155   1.07205
    8  C   1.09283   0.90539   1.05590   1.13510
    9  O   1.90114   1.30130   1.80444   1.49182
   10  H   0.83223
   11  H   0.83312
   12  H   0.83404
   13  H   0.85825
   14  H   0.82749
   15  H   0.82922
   16  H   0.83484
   17  H   0.83930
   18  H   0.84150
   19  H   0.84223
   20  H   0.85836
   21  H   0.83676
   22  H   0.83919

 **********************
 *                    *
 * JOB ENDED NORMALLY *
 *                    *
 **********************



 TOTAL JOB TIME:             1.39 SECONDS

 == MOPAC DONE ==
