 *******************************************************************************
 **                                                                           **
 **                              MOPAC v23.2                                  **
 **                                                                           **
 *******************************************************************************
 **          Digital Object Identifier (DOI): 10.5281/zenodo.6511958          **
 **    Visit the DOI location for information on how to cite this program.    **
 *******************************************************************************

                              PM7 CALCULATION RESULTS

 *******************************************************************************
 *  CALCULATION DONE: (MAX THREADS = 40)             Fri Sep 19 21:34:58 2025  *
 *  PM7        - The PM7 Hamiltonian to be used
 *
 *
 *
 *                 CHARGE ON SYSTEM = +1
 *
 *
 *
 *  1SCF       - DO 1 SCF AND THEN STOP 
 *  T=         - A TIME OF 172800.0 SECONDS REQUESTED
 *  DUMP=N     - RESTART FILE WRITTEN EVERY 7200.0 SECONDS REQUESTED
 *  RELSCF     - DEFAULT SCF CRITERION MULTIPLIED BY 0.0001
 *              (DEFAULT SCF CRITERION = 0.00010)
 *  GRADIENTS  - ALL GRADIENTS TO BE PRINTED
 *  DISP       - PRINT DISPERSION AND HYDROGEN BOND ENERGIES
 *******************************************************************************
PM7 1SCF GRADIENTS DISP RELSCF=0.0001 CHARGE=1
 Title: ASE calculation

   ATOM   CHEMICAL          X               Y               Z
  NUMBER   SYMBOL      (ANGSTROMS)     (ANGSTROMS)     (ANGSTROMS)

     1       C         -2.52688646  *   2.20224080  *   0.84794748  *
     2       C         -2.26736820  *   1.72410434  *  -0.58436831  *
     3       C         -1.12578695  *   0.87865672  *  -0.65518383  *
     4       C         -0.08422611  *   0.12043164  *  -0.71288894  *
     5       C          1.03312062  *  -0.75112183  *  -0.79139688  *
     6       C          1.08490237  *  -1.80973490  *   0.36464938  *
     7       C          2.29466270  *  -1.45352647  *   1.09953219  *
     8       O          2.92944848  *  -0.36238465  *   0.52532790  *
     9       C          2.27716102  *   0.04052392  *  -0.53102599  *
    10       H         -2.74212107  *   1.36688918  *   1.52537308  *
    11       H         -3.39427108  *   2.87989151  *   0.88345618  *
    12       H         -1.67320549  *   2.75270472  *   1.25999715  *
    13       H         -3.17651152  *   1.19186162  *  -0.97447752  *
    14       H         -2.15339743  *   2.61013479  *  -1.26407877  *
    15       H          1.06461118  *  -1.26629643  *  -1.80254241  *
    16       H          1.08976400  *  -2.85611287  *  -0.02317426  *
    17       H          0.16042151  *  -1.76911305  *   0.99505612  *
    18       H          2.78271909  *  -1.82619465  *   1.97719433  *
    19       H          2.69283536  *   0.90294704  *  -1.05203269  *



          CARTESIAN COORDINATES 

    NO.       ATOM           X           Y           Z

     1         C         -2.5269      2.2022      0.8479
     2         C         -2.2674      1.7241     -0.5844
     3         C         -1.1258      0.8787     -0.6552
     4         C         -0.0842      0.1204     -0.7129
     5         C          1.0331     -0.7511     -0.7914
     6         C          1.0849     -1.8097      0.3646
     7         C          2.2947     -1.4535      1.0995
     8         O          2.9294     -0.3624      0.5253
     9         C          2.2772      0.0405     -0.5310
    10         H         -2.7421      1.3669      1.5254
    11         H         -3.3943      2.8799      0.8835
    12         H         -1.6732      2.7527      1.2600
    13         H         -3.1765      1.1919     -0.9745
    14         H         -2.1534      2.6101     -1.2641
    15         H          1.0646     -1.2663     -1.8025
    16         H          1.0898     -2.8561     -0.0232
    17         H          0.1604     -1.7691      0.9951
    18         H          2.7827     -1.8262      1.9772
    19         H          2.6928      0.9029     -1.0520

 General Reference for PM7:
 "Optimization of Parameters for Semiempirical Methods VI: More Modifications to the 
 NDDO Approximations and Re-optimization of Parameters", J. J. P. Stewart, J. Mol. Mod., 1:32, 19 (2013)
 https://link.springer.com/article/10.1007/s00894-012-1667-x

           Empirical Formula: C8 H10 O  =    19 atoms



      MOLECULAR POINT GROUP   :   C1  


          UHF CALCULATION, NO. OF ALPHA ELECTRONS =   24
                           NO. OF BETA  ELECTRONS =   23
  SCF CRITERION =    0.1000E-07

 -------------------------------------------------------------------------------
 PM7 1SCF GRADIENTS DISP RELSCF=0.0001 CHARGE=1
 Title: ASE calculation



     1SCF WAS SPECIFIED, SO BFGS WAS NOT USED                 
     SCF FIELD WAS ACHIEVED                                   


                              PM7 CALCULATION
                                                       MOPAC v23.2 Linux
                                                       Fri Sep 19 21:34:59 2025




          FINAL HEAT OF FORMATION =        214.84521 KCAL/MOL =     898.91237 KJ/MOL

          TOTAL ENERGY            =     -32340.39167 KCAL/MOL = ELECTRONIC ENERGY + CORE-CORE REPULSION
          ENERGY OF ATOMS         =      32552.68886 KCAL/MOL
                              SUM =        212.29718 KCAL/MOL
          DISPERSION ENERGY       =         -1.57708 KCAL/MOL
                              SUM =        210.72010 KCAL/MOL = FINAL HEAT OF FORMATION

     *    WARNING - An energy term is incorrect or missing!

     *    FINAL HEAT OF FORMATION     =    214.84521 KCAL/MOL
     *    SUM OF CONTRIBUTIONS TO HoF =    210.72010 KCAL/MOL
     *                     DIFFERENCE =      4.12511 KCAL/MOL



          TOTAL ENERGY            =      -1402.41212 EV
          ELECTRONIC ENERGY       =      -6511.83813 EV 
          CORE-CORE REPULSION     =       5109.42601 EV
          COSMO AREA              =        176.23 SQUARE ANGSTROMS
          COSMO VOLUME            =        165.80 CUBIC ANGSTROMS

          GRADIENT NORM           =          1.19685          =       0.27458 PER ATOM
          IONIZATION POTENTIAL    =         14.010925 EV
          ALPHA SOMO LUMO (EV)    =        -14.011 -6.349
          BETA  SOMO LUMO (EV)    =        -14.029 -6.253
          NO. OF ALPHA ELECTRONS  =         24
          NO. OF BETA  ELECTRONS  =         23
          MOLECULAR WEIGHT        =        122.1664         POINT GROUP:  C1  

          MOLECULAR DIMENSIONS (Angstroms)

            Atom       Atom       Distance
            H    18    H    11     7.84211
            H    19    H    10     4.33104
            H    15    H    12     3.61652


          SCF CALCULATIONS        =          1

          WALL-CLOCK TIME         =      1.031 SECONDS
          COMPUTATION TIME        =      0.369 SECONDS

          LARGEST ATOMIC GRADIENTS

          Atom     Label                     Cartesian Gradients           Cartesian Coordinates       |Gradient|
                                           X          Y          Z        X          Y          Z

            13       H                   0.349     -0.014      0.204   -3.17651    1.19186   -0.97448      0.404
            12       H                  -0.315     -0.178      0.009   -1.67321    2.75270    1.26000      0.362
            15       H                   0.021     -0.198     -0.286    1.06461   -1.26630   -1.80254      0.349
             6       C                   0.135     -0.241      0.198    1.08490   -1.80973    0.36465      0.339
            18       H                  -0.251      0.146     -0.167    2.78272   -1.82619    1.97719      0.336
            19       H                  -0.092      0.199      0.227    2.69284    0.90295   -1.05203      0.316
            10       H                   0.074      0.208     -0.193   -2.74212    1.36689    1.52537      0.294
            16       H                  -0.009     -0.269     -0.069    1.08976   -2.85611   -0.02317      0.278
            14       H                  -0.162     -0.005      0.215   -2.15340    2.61013   -1.26408      0.269
             7       C                   0.172      0.194     -0.067    2.29466   -1.45353    1.09953      0.268



       FINAL  POINT  AND  DERIVATIVES

   PARAMETER     ATOM    TYPE            VALUE        GRADIENT
      1          1  C    CARTESIAN X    -2.526886     -0.155428  KCAL/ANGSTROM
      2          1  C    CARTESIAN Y     2.202241      0.103080  KCAL/ANGSTROM
      3          1  C    CARTESIAN Z     0.847947     -0.049956  KCAL/ANGSTROM
      4          2  C    CARTESIAN X    -2.267368      0.168460  KCAL/ANGSTROM
      5          2  C    CARTESIAN Y     1.724104      0.041384  KCAL/ANGSTROM
      6          2  C    CARTESIAN Z    -0.584368      0.177841  KCAL/ANGSTROM
      7          3  C    CARTESIAN X    -1.125787      0.069809  KCAL/ANGSTROM
      8          3  C    CARTESIAN Y     0.878657     -0.001726  KCAL/ANGSTROM
      9          3  C    CARTESIAN Z    -0.655184     -0.088557  KCAL/ANGSTROM
     10          4  C    CARTESIAN X    -0.084226      0.024054  KCAL/ANGSTROM
     11          4  C    CARTESIAN Y     0.120432     -0.213244  KCAL/ANGSTROM
     12          4  C    CARTESIAN Z    -0.712889      0.034482  KCAL/ANGSTROM
     13          5  C    CARTESIAN X     1.033121      0.023307  KCAL/ANGSTROM
     14          5  C    CARTESIAN Y    -0.751122     -0.228446  KCAL/ANGSTROM
     15          5  C    CARTESIAN Z    -0.791397     -0.048619  KCAL/ANGSTROM
     16          6  C    CARTESIAN X     1.084902      0.134748  KCAL/ANGSTROM
     17          6  C    CARTESIAN Y    -1.809735     -0.240885  KCAL/ANGSTROM
     18          6  C    CARTESIAN Z     0.364649      0.197560  KCAL/ANGSTROM
     19          7  C    CARTESIAN X     2.294663      0.171992  KCAL/ANGSTROM
     20          7  C    CARTESIAN Y    -1.453526      0.193583  KCAL/ANGSTROM
     21          7  C    CARTESIAN Z     1.099532     -0.067188  KCAL/ANGSTROM
     22          8  O    CARTESIAN X     2.929448      0.042158  KCAL/ANGSTROM
     23          8  O    CARTESIAN Y    -0.362385      0.227590  KCAL/ANGSTROM
     24          8  O    CARTESIAN Z     0.525328      0.054852  KCAL/ANGSTROM
     25          9  C    CARTESIAN X     2.277161      0.014859  KCAL/ANGSTROM
     26          9  C    CARTESIAN Y     0.040524     -0.099258  KCAL/ANGSTROM
     27          9  C    CARTESIAN Z    -0.531026     -0.086840  KCAL/ANGSTROM
     28         10  H    CARTESIAN X    -2.742121      0.074326  KCAL/ANGSTROM
     29         10  H    CARTESIAN Y     1.366889      0.208464  KCAL/ANGSTROM
     30         10  H    CARTESIAN Z     1.525373     -0.193031  KCAL/ANGSTROM
     31         11  H    CARTESIAN X    -3.394271      0.069197  KCAL/ANGSTROM
     32         11  H    CARTESIAN Y     2.879892      0.166617  KCAL/ANGSTROM
     33         11  H    CARTESIAN Z     0.883456     -0.005841  KCAL/ANGSTROM
     34         12  H    CARTESIAN X    -1.673205     -0.314755  KCAL/ANGSTROM
     35         12  H    CARTESIAN Y     2.752705     -0.177695  KCAL/ANGSTROM
     36         12  H    CARTESIAN Z     1.259997      0.009151  KCAL/ANGSTROM
     37         13  H    CARTESIAN X    -3.176512      0.348728  KCAL/ANGSTROM
     38         13  H    CARTESIAN Y     1.191862     -0.013613  KCAL/ANGSTROM
     39         13  H    CARTESIAN Z    -0.974478      0.204315  KCAL/ANGSTROM
     40         14  H    CARTESIAN X    -2.153397     -0.162166  KCAL/ANGSTROM
     41         14  H    CARTESIAN Y     2.610135     -0.004896  KCAL/ANGSTROM
     42         14  H    CARTESIAN Z    -1.264079      0.214754  KCAL/ANGSTROM
     43         15  H    CARTESIAN X     1.064611      0.021128  KCAL/ANGSTROM
     44         15  H    CARTESIAN Y    -1.266296     -0.198495  KCAL/ANGSTROM
     45         15  H    CARTESIAN Z    -1.802542     -0.285800  KCAL/ANGSTROM
     46         16  H    CARTESIAN X     1.089764     -0.009254  KCAL/ANGSTROM
     47         16  H    CARTESIAN Y    -2.856113     -0.269029  KCAL/ANGSTROM
     48         16  H    CARTESIAN Z    -0.023174     -0.068613  KCAL/ANGSTROM
     49         17  H    CARTESIAN X     0.160422     -0.177533  KCAL/ANGSTROM
     50         17  H    CARTESIAN Y    -1.769113      0.160807  KCAL/ANGSTROM
     51         17  H    CARTESIAN Z     0.995056     -0.058122  KCAL/ANGSTROM
     52         18  H    CARTESIAN X     2.782719     -0.251338  KCAL/ANGSTROM
     53         18  H    CARTESIAN Y    -1.826195      0.146433  KCAL/ANGSTROM
     54         18  H    CARTESIAN Z     1.977194     -0.167421  KCAL/ANGSTROM
     55         19  H    CARTESIAN X     2.692835     -0.092302  KCAL/ANGSTROM
     56         19  H    CARTESIAN Y     0.902947      0.199323  KCAL/ANGSTROM
     57         19  H    CARTESIAN Z    -1.052033      0.227029  KCAL/ANGSTROM




   ATOM   CHEMICAL          X               Y               Z
  NUMBER   SYMBOL      (ANGSTROMS)     (ANGSTROMS)     (ANGSTROMS)

     1       C         -2.52688646  *   2.20224080  *   0.84794748  *
     2       C         -2.26736820  *   1.72410434  *  -0.58436831  *
     3       C         -1.12578695  *   0.87865672  *  -0.65518383  *
     4       C         -0.08422611  *   0.12043164  *  -0.71288894  *
     5       C          1.03312062  *  -0.75112183  *  -0.79139688  *
     6       C          1.08490237  *  -1.80973490  *   0.36464938  *
     7       C          2.29466270  *  -1.45352647  *   1.09953219  *
     8       O          2.92944848  *  -0.36238465  *   0.52532790  *
     9       C          2.27716102  *   0.04052392  *  -0.53102599  *
    10       H         -2.74212107  *   1.36688918  *   1.52537308  *
    11       H         -3.39427108  *   2.87989151  *   0.88345618  *
    12       H         -1.67320549  *   2.75270472  *   1.25999715  *
    13       H         -3.17651152  *   1.19186162  *  -0.97447752  *
    14       H         -2.15339743  *   2.61013479  *  -1.26407877  *
    15       H          1.06461118  *  -1.26629643  *  -1.80254241  *
    16       H          1.08976400  *  -2.85611287  *  -0.02317426  *
    17       H          0.16042151  *  -1.76911305  *   0.99505612  *
    18       H          2.78271909  *  -1.82619465  *   1.97719433  *
    19       H          2.69283536  *   0.90294704  *  -1.05203269  *

                             CARTESIAN COORDINATES

   1    C       -2.526886455     2.202240799     0.847947479
   2    C       -2.267368195     1.724104338    -0.584368310
   3    C       -1.125786947     0.878656720    -0.655183828
   4    C       -0.084226110     0.120431641    -0.712888937
   5    C        1.033120616    -0.751121832    -0.791396884
   6    C        1.084902373    -1.809734903     0.364649376
   7    C        2.294662696    -1.453526473     1.099532194
   8    O        2.929448484    -0.362384647     0.525327904
   9    C        2.277161016     0.040523920    -0.531025990
  10    H       -2.742121066     1.366889180     1.525373085
  11    H       -3.394271082     2.879891510     0.883456184
  12    H       -1.673205492     2.752704722     1.259997154
  13    H       -3.176511522     1.191861620    -0.974477524
  14    H       -2.153397431     2.610134789    -1.264078767
  15    H        1.064611182    -1.266296431    -1.802542408
  16    H        1.089763996    -2.856112874    -0.023174263
  17    H        0.160421510    -1.769113051     0.995056119
  18    H        2.782719089    -1.826194652     1.977194333
  19    H        2.692835355     0.902947036    -1.052032686


           Empirical Formula: C8 H10 O  =    19 atoms



      MOLECULAR POINT GROUP   :   C1  


          ALPHA EIGENVALUES  
 -39.03902 -33.94401 -31.73031 -31.15877 -28.68923 -26.92424 -26.13824 -25.09016
 -23.40330 -22.41251 -21.09699 -20.19336 -19.51304 -19.24297 -18.91989 -18.81851
 -18.61290 -18.31399 -17.37048 -15.95698 -15.85453 -14.12818 -14.09956 -14.01092
  -6.34900  -4.21464  -3.25675  -2.94294  -2.13677  -1.98981  -1.19184  -1.15918
  -0.45026  -0.30259   0.31051   0.63117   0.64853   0.71714   1.01538   1.42165
   1.81000   2.12844   2.69928   2.71612   2.89729   3.79538


           BETA EIGENVALUES 
 -39.39376 -34.01564 -31.73095 -30.97467 -28.68295 -26.88709 -26.01485 -25.06318
 -23.35988 -22.22044 -20.99860 -20.16932 -19.55106 -19.23017 -18.83827 -18.77675
 -18.59061 -17.96474 -17.34470 -15.95531 -15.85319 -14.09148 -14.02925  -6.25302
  -4.63733  -4.15699  -3.21964  -2.93051  -2.05438  -1.92099  -1.10728  -0.90617
  -0.39885  -0.27549   0.33809   0.70947   0.71582   0.81771   1.02098   1.48001
   1.80950   2.12778   2.69918   2.71606   2.89678   3.79535


              NET ATOMIC CHARGES AND DIPOLE CONTRIBUTIONS

  ATOM NO.   TYPE          CHARGE      No. of ELECS.   s-Pop       p-Pop       
    1          C          -0.418717        4.4187     1.05163     3.36708
    2          C          -0.271319        4.2713     1.04258     3.22874
    3          C           0.171056        3.8289     1.14863     2.68031
    4          C          -0.353697        4.3537     1.06082     3.29288
    5          C          -0.077105        4.0771     1.05381     3.02329
    6          C          -0.329094        4.3291     1.07053     3.25857
    7          C           0.026269        3.9737     1.17611     2.79762
    8          O          -0.030661        6.0307     1.85570     4.17496
    9          C           0.279627        3.7204     1.22567     2.49470
   10          H           0.156972        0.8430     0.84303
   11          H           0.177111        0.8229     0.82289
   12          H           0.153578        0.8464     0.84642
   13          H           0.198976        0.8010     0.80102
   14          H           0.196265        0.8037     0.80374
   15          H           0.227889        0.7721     0.77211
   16          H           0.219152        0.7808     0.78085
   17          H           0.226431        0.7736     0.77357
   18          H           0.222219        0.7778     0.77778
   19          H           0.225050        0.7750     0.77495
 DIPOLE           X         Y         Z       TOTAL
 POINT-CHG.     3.232    -1.654    -0.376     3.650
 HYBRID         0.600     0.074     0.094     0.611
 SUM            3.832    -1.580    -0.282     4.154


          ATOMIC ORBITAL ELECTRON POPULATIONS

     Atom    s        px        py        pz   
    1  C   1.05163   1.19036   1.17249   1.00424
    2  C   1.04258   1.04068   1.10436   1.08370
    3  C   1.14863   0.91119   0.88158   0.88755
    4  C   1.06082   1.03703   1.10411   1.15174
    5  C   1.05381   0.94159   0.98363   1.09807
    6  C   1.07053   1.08356   1.11800   1.05701
    7  C   1.17611   0.95162   0.83992   1.00608
    8  O   1.85570   1.44431   1.39176   1.33888
    9  C   1.22567   0.84421   0.88731   0.76318
   10  H   0.84303
   11  H   0.82289
   12  H   0.84642
   13  H   0.80102
   14  H   0.80374
   15  H   0.77211
   16  H   0.78085
   17  H   0.77357
   18  H   0.77778
   19  H   0.77495


                    (SZ)    =    0.500000
                    (S**2)  =    0.769473


          ATOMIC ORBITAL SPIN POPULATIONS

    Atom   Total    s     px     py     pz   
         Atomic
    1  C -0.0002 -0.000 -0.000 -0.000 -0.000
    2  C  0.0005  0.000  0.000  0.000  0.000
    3  C -0.0076 -0.000 -0.002 -0.002 -0.004
    4  C  0.0167  0.004  0.006  0.003  0.004
    5  C -0.0086 -0.001 -0.006 -0.002  0.000
    6  C -0.0261 -0.005 -0.015 -0.003 -0.003
    7  C  0.8508  0.022  0.242  0.314  0.273
    8  O -0.1448 -0.004 -0.042 -0.055 -0.044
    9  C  0.2850  0.008  0.084  0.103  0.091
   10  H  0.0000  0.000
   11  H  0.0000  0.000
   12  H  0.0000  0.000
   13  H -0.0002 -0.000
   14  H -0.0001 -0.000
   15  H  0.0096  0.010
   16  H  0.0270  0.027
   17  H  0.0282  0.028
   18  H -0.0218 -0.022
   19  H -0.0082 -0.008

 **********************
 *                    *
 * JOB ENDED NORMALLY *
 *                    *
 **********************



 TOTAL JOB TIME:             1.12 SECONDS

 == MOPAC DONE ==
