 *******************************************************************************
 **                                                                           **
 **                              MOPAC v23.2                                  **
 **                                                                           **
 *******************************************************************************
 **          Digital Object Identifier (DOI): 10.5281/zenodo.6511958          **
 **    Visit the DOI location for information on how to cite this program.    **
 *******************************************************************************

                              PM7 CALCULATION RESULTS

 *******************************************************************************
 *  CALCULATION DONE: (MAX THREADS = 40)             Fri Sep 19 21:29:29 2025  *
 *  PM7        - The PM7 Hamiltonian to be used
 *
 *
 *
 *                 CHARGE ON SYSTEM = +1
 *
 *
 *
 *  1SCF       - DO 1 SCF AND THEN STOP 
 *  T=         - A TIME OF 172800.0 SECONDS REQUESTED
 *  DUMP=N     - RESTART FILE WRITTEN EVERY 7200.0 SECONDS REQUESTED
 *  RELSCF     - DEFAULT SCF CRITERION MULTIPLIED BY 0.0001
 *              (DEFAULT SCF CRITERION = 0.00010)
 *  GRADIENTS  - ALL GRADIENTS TO BE PRINTED
 *  DISP       - PRINT DISPERSION AND HYDROGEN BOND ENERGIES
 *******************************************************************************
PM7 1SCF GRADIENTS DISP RELSCF=0.0001 CHARGE=1
 Title: ASE calculation

   ATOM   CHEMICAL          X               Y               Z
  NUMBER   SYMBOL      (ANGSTROMS)     (ANGSTROMS)     (ANGSTROMS)

     1       C         -2.65233800  *  -0.75418668  *   0.43464606  *
     2       C         -1.35218878  *  -1.44785627  *   0.06319930  *
     3       N         -0.42442912  *  -0.57799813  *  -0.54580166  *
     4       C         -0.07361371  *   0.80909884  *  -0.72857601  *
     5       C         -0.28957370  *   1.77474758  *   0.38959092  *
     6       C          0.98843464  *  -0.33937948  *  -0.65815157  *
     7       C          1.85109615  *  -0.53057293  *   0.55188094  *
     8       C          2.34512888  *  -1.87703373  *   0.94789416  *
     9       O          1.23625839  *  -1.25610102  *   1.61241982  *
    10       H         -2.51513906  *   0.02234601  *   1.20130554  *
    11       H         -3.15695032  *  -0.28983814  *  -0.42579554  *
    12       H         -3.37304690  *  -1.47792329  *   0.85897874  *
    13       H         -1.54564074  *  -2.31460869  *  -0.64537235  *
    14       H         -0.87202669  *  -1.94367998  *   0.96947840  *
    15       H         -0.27453674  *   1.23811019  *  -1.73897519  *
    16       H         -0.19405961  *   1.33243546  *   1.39494551  *
    17       H         -1.28384511  *   2.25591276  *   0.34140891  *
    18       H          0.44721652  *   2.60104669  *   0.34552181  *
    19       H          1.49261582  *  -0.63437132  *  -1.60671676  *
    20       H          2.39783823  *   0.37856092  *   0.85276698  *
    21       H          2.10907608  *  -2.77045784  *   0.37262726  *
    22       H          3.25136686  *  -1.97680928  *   1.55573388  *



          CARTESIAN COORDINATES 

    NO.       ATOM           X           Y           Z

     1         C         -2.6523     -0.7542      0.4346
     2         C         -1.3522     -1.4479      0.0632
     3         N         -0.4244     -0.5780     -0.5458
     4         C         -0.0736      0.8091     -0.7286
     5         C         -0.2896      1.7747      0.3896
     6         C          0.9884     -0.3394     -0.6582
     7         C          1.8511     -0.5306      0.5519
     8         C          2.3451     -1.8770      0.9479
     9         O          1.2363     -1.2561      1.6124
    10         H         -2.5151      0.0223      1.2013
    11         H         -3.1570     -0.2898     -0.4258
    12         H         -3.3730     -1.4779      0.8590
    13         H         -1.5456     -2.3146     -0.6454
    14         H         -0.8720     -1.9437      0.9695
    15         H         -0.2745      1.2381     -1.7390
    16         H         -0.1941      1.3324      1.3949
    17         H         -1.2838      2.2559      0.3414
    18         H          0.4472      2.6010      0.3455
    19         H          1.4926     -0.6344     -1.6067
    20         H          2.3978      0.3786      0.8528
    21         H          2.1091     -2.7705      0.3726
    22         H          3.2514     -1.9768      1.5557

 General Reference for PM7:
 "Optimization of Parameters for Semiempirical Methods VI: More Modifications to the 
 NDDO Approximations and Re-optimization of Parameters", J. J. P. Stewart, J. Mol. Mod., 1:32, 19 (2013)
 https://link.springer.com/article/10.1007/s00894-012-1667-x

           Empirical Formula: C7 H13 N O  =    22 atoms



      MOLECULAR POINT GROUP   :   C1  


          UHF CALCULATION, NO. OF ALPHA ELECTRONS =   26
                           NO. OF BETA  ELECTRONS =   25
  SCF CRITERION =    0.1000E-07

 -------------------------------------------------------------------------------
 PM7 1SCF GRADIENTS DISP RELSCF=0.0001 CHARGE=1
 Title: ASE calculation



     1SCF WAS SPECIFIED, SO BFGS WAS NOT USED                 
     SCF FIELD WAS ACHIEVED                                   


                              PM7 CALCULATION
                                                       MOPAC v23.2 Linux
                                                       Fri Sep 19 21:29:30 2025




          FINAL HEAT OF FORMATION =        192.92335 KCAL/MOL =     807.19128 KJ/MOL

          TOTAL ENERGY            =     -34743.42800 KCAL/MOL = ELECTRONIC ENERGY + CORE-CORE REPULSION
          ENERGY OF ATOMS         =      34938.70333 KCAL/MOL
                              SUM =        195.27533 KCAL/MOL
          DISPERSION ENERGY       =         -2.35198 KCAL/MOL
                              SUM =        192.92335 KCAL/MOL = FINAL HEAT OF FORMATION



          TOTAL ENERGY            =      -1506.61763 EV
          ELECTRONIC ENERGY       =      -7865.19480 EV 
          CORE-CORE REPULSION     =       6358.57717 EV
          COSMO AREA              =        172.52 SQUARE ANGSTROMS
          COSMO VOLUME            =        176.51 CUBIC ANGSTROMS

          GRADIENT NORM           =          1.22298          =       0.26074 PER ATOM
          IONIZATION POTENTIAL    =         14.835026 EV
          ALPHA SOMO LUMO (EV)    =        -14.835 -4.431
          BETA  SOMO LUMO (EV)    =        -14.899 -6.515
          NO. OF ALPHA ELECTRONS  =         26
          NO. OF BETA  ELECTRONS  =         25
          MOLECULAR WEIGHT        =        127.1858         POINT GROUP:  C1  

          MOLECULAR DIMENSIONS (Angstroms)

            Atom       Atom       Distance
            H    22    H    11     6.91656
            H    18    H    13     5.31503
            H    19    H    12     3.90390


          SCF CALCULATIONS        =          1

          WALL-CLOCK TIME         =      0.922 SECONDS
          COMPUTATION TIME        =      0.741 SECONDS

          LARGEST ATOMIC GRADIENTS

          Atom     Label                     Cartesian Gradients           Cartesian Coordinates       |Gradient|
                                           X          Y          Z        X          Y          Z

            18       H                  -0.259     -0.319      0.145    0.44722    2.60105    0.34552      0.435
            12       H                   0.366      0.195     -0.051   -3.37305   -1.47792    0.85898      0.418
            13       H                  -0.365      0.017     -0.129   -1.54564   -2.31461   -0.64537      0.387
            20       H                  -0.024     -0.377     -0.065    2.39784    0.37856    0.85277      0.383
             9       O                   0.237      0.095     -0.237    1.23626   -1.25610    1.61242      0.348
             8       C                  -0.112      0.228      0.166    2.34513   -1.87703    0.94789      0.303
             1       C                  -0.086      0.267      0.070   -2.65234   -0.75419    0.43465      0.289
            21       H                   0.039      0.247     -0.109    2.10908   -2.77046    0.37263      0.273
            14       H                  -0.013     -0.236      0.122   -0.87203   -1.94368    0.96948      0.266
            22       H                   0.112      0.208      0.105    3.25137   -1.97681    1.55573      0.258



       FINAL  POINT  AND  DERIVATIVES

   PARAMETER     ATOM    TYPE            VALUE        GRADIENT
      1          1  C    CARTESIAN X    -2.652338     -0.085569  KCAL/ANGSTROM
      2          1  C    CARTESIAN Y    -0.754187      0.266891  KCAL/ANGSTROM
      3          1  C    CARTESIAN Z     0.434646      0.069721  KCAL/ANGSTROM
      4          2  C    CARTESIAN X    -1.352189     -0.058097  KCAL/ANGSTROM
      5          2  C    CARTESIAN Y    -1.447856     -0.027964  KCAL/ANGSTROM
      6          2  C    CARTESIAN Z     0.063199      0.003932  KCAL/ANGSTROM
      7          3  N    CARTESIAN X    -0.424429      0.171893  KCAL/ANGSTROM
      8          3  N    CARTESIAN Y    -0.577998      0.043950  KCAL/ANGSTROM
      9          3  N    CARTESIAN Z    -0.545802     -0.083055  KCAL/ANGSTROM
     10          4  C    CARTESIAN X    -0.073614      0.112182  KCAL/ANGSTROM
     11          4  C    CARTESIAN Y     0.809099      0.003510  KCAL/ANGSTROM
     12          4  C    CARTESIAN Z    -0.728576      0.037816  KCAL/ANGSTROM
     13          5  C    CARTESIAN X    -0.289574     -0.103768  KCAL/ANGSTROM
     14          5  C    CARTESIAN Y     1.774748     -0.110849  KCAL/ANGSTROM
     15          5  C    CARTESIAN Z     0.389591      0.035502  KCAL/ANGSTROM
     16          6  C    CARTESIAN X     0.988435     -0.025706  KCAL/ANGSTROM
     17          6  C    CARTESIAN Y    -0.339379     -0.004146  KCAL/ANGSTROM
     18          6  C    CARTESIAN Z    -0.658152     -0.112886  KCAL/ANGSTROM
     19          7  C    CARTESIAN X     1.851096     -0.069243  KCAL/ANGSTROM
     20          7  C    CARTESIAN Y    -0.530573     -0.135662  KCAL/ANGSTROM
     21          7  C    CARTESIAN Z     0.551881      0.114160  KCAL/ANGSTROM
     22          8  C    CARTESIAN X     2.345129     -0.111587  KCAL/ANGSTROM
     23          8  C    CARTESIAN Y    -1.877034      0.227635  KCAL/ANGSTROM
     24          8  C    CARTESIAN Z     0.947894      0.166124  KCAL/ANGSTROM
     25          9  O    CARTESIAN X     1.236258      0.236934  KCAL/ANGSTROM
     26          9  O    CARTESIAN Y    -1.256101      0.095019  KCAL/ANGSTROM
     27          9  O    CARTESIAN Z     1.612420     -0.236818  KCAL/ANGSTROM
     28         10  H    CARTESIAN X    -2.515139      0.100528  KCAL/ANGSTROM
     29         10  H    CARTESIAN Y     0.022346     -0.173978  KCAL/ANGSTROM
     30         10  H    CARTESIAN Z     1.201306     -0.049102  KCAL/ANGSTROM
     31         11  H    CARTESIAN X    -3.156950     -0.073922  KCAL/ANGSTROM
     32         11  H    CARTESIAN Y    -0.289838      0.116126  KCAL/ANGSTROM
     33         11  H    CARTESIAN Z    -0.425796      0.144173  KCAL/ANGSTROM
     34         12  H    CARTESIAN X    -3.373047      0.365906  KCAL/ANGSTROM
     35         12  H    CARTESIAN Y    -1.477923      0.195070  KCAL/ANGSTROM
     36         12  H    CARTESIAN Z     0.858979     -0.051325  KCAL/ANGSTROM
     37         13  H    CARTESIAN X    -1.545641     -0.364744  KCAL/ANGSTROM
     38         13  H    CARTESIAN Y    -2.314609      0.016581  KCAL/ANGSTROM
     39         13  H    CARTESIAN Z    -0.645372     -0.128902  KCAL/ANGSTROM
     40         14  H    CARTESIAN X    -0.872027     -0.013263  KCAL/ANGSTROM
     41         14  H    CARTESIAN Y    -1.943680     -0.236131  KCAL/ANGSTROM
     42         14  H    CARTESIAN Z     0.969478      0.121877  KCAL/ANGSTROM
     43         15  H    CARTESIAN X    -0.274537      0.147411  KCAL/ANGSTROM
     44         15  H    CARTESIAN Y     1.238110     -0.079451  KCAL/ANGSTROM
     45         15  H    CARTESIAN Z    -1.738975      0.017889  KCAL/ANGSTROM
     46         16  H    CARTESIAN X    -0.194060     -0.167528  KCAL/ANGSTROM
     47         16  H    CARTESIAN Y     1.332435      0.023385  KCAL/ANGSTROM
     48         16  H    CARTESIAN Z     1.394946      0.068024  KCAL/ANGSTROM
     49         17  H    CARTESIAN X    -1.283845      0.049181  KCAL/ANGSTROM
     50         17  H    CARTESIAN Y     2.255913      0.064662  KCAL/ANGSTROM
     51         17  H    CARTESIAN Z     0.341409     -0.207006  KCAL/ANGSTROM
     52         18  H    CARTESIAN X     0.447217     -0.258647  KCAL/ANGSTROM
     53         18  H    CARTESIAN Y     2.601047     -0.318784  KCAL/ANGSTROM
     54         18  H    CARTESIAN Z     0.345522      0.144628  KCAL/ANGSTROM
     55         19  H    CARTESIAN X     1.492616      0.019830  KCAL/ANGSTROM
     56         19  H    CARTESIAN Y    -0.634371     -0.043567  KCAL/ANGSTROM
     57         19  H    CARTESIAN Z    -1.606717      0.014385  KCAL/ANGSTROM
     58         20  H    CARTESIAN X     2.397838     -0.023501  KCAL/ANGSTROM
     59         20  H    CARTESIAN Y     0.378561     -0.376628  KCAL/ANGSTROM
     60         20  H    CARTESIAN Z     0.852767     -0.064909  KCAL/ANGSTROM
     61         21  H    CARTESIAN X     2.109076      0.039466  KCAL/ANGSTROM
     62         21  H    CARTESIAN Y    -2.770458      0.246754  KCAL/ANGSTROM
     63         21  H    CARTESIAN Z     0.372627     -0.109476  KCAL/ANGSTROM
     64         22  H    CARTESIAN X     3.251367      0.112242  KCAL/ANGSTROM
     65         22  H    CARTESIAN Y    -1.976809      0.207573  KCAL/ANGSTROM
     66         22  H    CARTESIAN Z     1.555734      0.105245  KCAL/ANGSTROM




   ATOM   CHEMICAL          X               Y               Z
  NUMBER   SYMBOL      (ANGSTROMS)     (ANGSTROMS)     (ANGSTROMS)

     1       C         -2.65233800  *  -0.75418668  *   0.43464606  *
     2       C         -1.35218878  *  -1.44785627  *   0.06319930  *
     3       N         -0.42442912  *  -0.57799813  *  -0.54580166  *
     4       C         -0.07361371  *   0.80909884  *  -0.72857601  *
     5       C         -0.28957370  *   1.77474758  *   0.38959092  *
     6       C          0.98843464  *  -0.33937948  *  -0.65815157  *
     7       C          1.85109615  *  -0.53057293  *   0.55188094  *
     8       C          2.34512888  *  -1.87703373  *   0.94789416  *
     9       O          1.23625839  *  -1.25610102  *   1.61241982  *
    10       H         -2.51513906  *   0.02234601  *   1.20130554  *
    11       H         -3.15695032  *  -0.28983814  *  -0.42579554  *
    12       H         -3.37304690  *  -1.47792329  *   0.85897874  *
    13       H         -1.54564074  *  -2.31460869  *  -0.64537235  *
    14       H         -0.87202669  *  -1.94367998  *   0.96947840  *
    15       H         -0.27453674  *   1.23811019  *  -1.73897519  *
    16       H         -0.19405961  *   1.33243546  *   1.39494551  *
    17       H         -1.28384511  *   2.25591276  *   0.34140891  *
    18       H          0.44721652  *   2.60104669  *   0.34552181  *
    19       H          1.49261582  *  -0.63437132  *  -1.60671676  *
    20       H          2.39783823  *   0.37856092  *   0.85276698  *
    21       H          2.10907608  *  -2.77045784  *   0.37262726  *
    22       H          3.25136686  *  -1.97680928  *   1.55573388  *

                             CARTESIAN COORDINATES

   1    C       -2.652338004    -0.754186678     0.434646060
   2    C       -1.352188781    -1.447856265     0.063199303
   3    N       -0.424429118    -0.577998130    -0.545801659
   4    C       -0.073613710     0.809098844    -0.728576014
   5    C       -0.289573701     1.774747576     0.389590919
   6    C        0.988434644    -0.339379481    -0.658151574
   7    C        1.851096152    -0.530572929     0.551880941
   8    C        2.345128884    -1.877033728     0.947894159
   9    O        1.236258391    -1.256101023     1.612419815
  10    H       -2.515139056     0.022346009     1.201305541
  11    H       -3.156950320    -0.289838138    -0.425795538
  12    H       -3.373046902    -1.477923290     0.858978740
  13    H       -1.545640738    -2.314608690    -0.645372347
  14    H       -0.872026691    -1.943679984     0.969478404
  15    H       -0.274536737     1.238110194    -1.738975188
  16    H       -0.194059613     1.332435455     1.394945512
  17    H       -1.283845110     2.255912757     0.341408912
  18    H        0.447216522     2.601046694     0.345521811
  19    H        1.492615820    -0.634371323    -1.606716757
  20    H        2.397838227     0.378560922     0.852766983
  21    H        2.109076075    -2.770457844     0.372627260
  22    H        3.251366857    -1.976809283     1.555733876


           Empirical Formula: C7 H13 N O  =    22 atoms



      MOLECULAR POINT GROUP   :   C1  


          ALPHA EIGENVALUES  
 -43.57993 -36.22108 -33.65303 -30.98821 -29.60766 -28.09022 -26.98254 -24.95724
 -24.40581 -23.13406 -22.01044 -21.22309 -20.62213 -20.16880 -19.45370 -18.83238
 -18.48614 -18.26938 -17.86514 -17.34459 -17.27025 -17.04935 -16.82475 -16.03245
 -15.66066 -14.83503  -4.43150  -3.48030  -2.45290  -1.87789  -1.85249  -1.36453
  -0.89269  -0.74580  -0.49290  -0.24718   0.02476   0.13932   0.26500   0.68290
   1.05425   1.18643   1.23619   1.47792   1.50692   1.58255   1.82455   2.37366
   2.65661


           BETA EIGENVALUES 
 -42.15347 -36.18759 -33.40026 -30.82457 -29.46992 -27.96066 -26.87881 -24.71464
 -24.26278 -22.43707 -21.67739 -21.14061 -20.34530 -19.88917 -19.32515 -18.76884
 -18.42177 -18.12968 -17.73987 -17.20441 -16.93835 -16.79258 -16.74835 -15.87794
 -14.89869  -6.51478  -3.79864  -3.31940  -2.34294  -1.86190  -1.77959  -1.28199
  -0.85584  -0.57138  -0.25214  -0.08943   0.19490   0.27962   0.31263   0.81708
   1.06554   1.19566   1.24027   1.48003   1.51486   1.58408   1.82458   2.37527
   2.65734


              NET ATOMIC CHARGES AND DIPOLE CONTRIBUTIONS

  ATOM NO.   TYPE          CHARGE      No. of ELECS.   s-Pop       p-Pop       
    1          C          -0.461637        4.4616     1.05589     3.40575
    2          C          -0.104208        4.1042     1.07660     3.02761
    3          N          -0.052256        5.0523     1.57436     3.47789
    4          C           0.031597        3.9684     1.09700     2.87140
    5          C          -0.472503        4.4725     1.05353     3.41898
    6          C          -0.085666        4.0857     1.10089     2.98478
    7          C          -0.032628        4.0326     1.08124     2.95138
    8          C          -0.092390        4.0924     1.09904     2.99335
    9          O          -0.328440        6.3284     1.92230     4.40614
   10          H           0.175823        0.8242     0.82418
   11          H           0.180380        0.8196     0.81962
   12          H           0.200317        0.7997     0.79968
   13          H           0.219956        0.7800     0.78004
   14          H           0.228954        0.7710     0.77105
   15          H           0.217100        0.7829     0.78290
   16          H           0.186382        0.8136     0.81362
   17          H           0.197193        0.8028     0.80281
   18          H           0.205695        0.7943     0.79431
   19          H           0.227270        0.7727     0.77273
   20          H           0.202405        0.7976     0.79759
   21          H           0.165682        0.8343     0.83432
   22          H           0.190977        0.8090     0.80902
 DIPOLE           X         Y         Z       TOTAL
 POINT-CHG.    -0.446     0.559    -3.150     3.230
 HYBRID        -0.631    -0.325     0.232     0.747
 SUM           -1.077     0.233    -2.918     3.119


          ATOMIC ORBITAL ELECTRON POPULATIONS

     Atom    s        px        py        pz   
    1  C   1.05589   1.03254   1.17620   1.19701
    2  C   1.07660   0.94990   0.98155   1.09616
    3  N   1.57436   1.14254   1.18028   1.15507
    4  C   1.09700   0.93452   0.81991   1.11698
    5  C   1.05353   1.22375   1.11355   1.08168
    6  C   1.10089   0.84006   1.02052   1.12420
    7  C   1.08124   1.01751   1.05084   0.88304
    8  C   1.09904   0.98039   0.98862   1.02434
    9  O   1.92230   1.48446   1.44382   1.47787
   10  H   0.82418
   11  H   0.81962
   12  H   0.79968
   13  H   0.78004
   14  H   0.77105
   15  H   0.78290
   16  H   0.81362
   17  H   0.80281
   18  H   0.79431
   19  H   0.77273
   20  H   0.79759
   21  H   0.83432
   22  H   0.80902


                    (SZ)    =    0.500000
                    (S**2)  =    0.761479


          ATOMIC ORBITAL SPIN POPULATIONS

    Atom   Total    s     px     py     pz   
         Atomic
    1  C  0.0047  0.001  0.002  0.000  0.002
    2  C -0.0222 -0.006 -0.019 -0.028  0.031
    3  N  0.9031  0.051  0.074  0.093  0.685
    4  C -0.0445 -0.005 -0.008 -0.025 -0.007
    5  C  0.0256  0.003 -0.000  0.013  0.010
    6  C -0.0407 -0.005 -0.029  0.002 -0.008
    7  C  0.0280  0.002  0.012  0.000  0.014
    8  C -0.0015 -0.000 -0.000 -0.001 -0.000
    9  O  0.0017  0.000  0.002  0.000 -0.001
   10  H  0.0000  0.000
   11  H  0.0010  0.001
   12  H -0.0012 -0.001
   13  H  0.0506  0.051
   14  H  0.0502  0.050
   15  H  0.0220  0.022
   16  H -0.0014 -0.001
   17  H -0.0007 -0.001
   18  H -0.0001 -0.000
   19  H  0.0225  0.022
   20  H  0.0032  0.003
   21  H  0.0000  0.000
   22  H  0.0001  0.000

 **********************
 *                    *
 * JOB ENDED NORMALLY *
 *                    *
 **********************



 TOTAL JOB TIME:             1.38 SECONDS

 == MOPAC DONE ==
