 *******************************************************************************
 **                                                                           **
 **                              MOPAC v23.2                                  **
 **                                                                           **
 *******************************************************************************
 **          Digital Object Identifier (DOI): 10.5281/zenodo.6511958          **
 **    Visit the DOI location for information on how to cite this program.    **
 *******************************************************************************

                              PM7 CALCULATION RESULTS

 *******************************************************************************
 *  CALCULATION DONE: (MAX THREADS = 40)             Fri Sep 19 21:35:05 2025  *
 *  PM7        - The PM7 Hamiltonian to be used
 *  1SCF       - DO 1 SCF AND THEN STOP 
 *  T=         - A TIME OF 172800.0 SECONDS REQUESTED
 *  DUMP=N     - RESTART FILE WRITTEN EVERY 7200.0 SECONDS REQUESTED
 *  RELSCF     - DEFAULT SCF CRITERION MULTIPLIED BY 0.0001
 *              (DEFAULT SCF CRITERION = 0.00010)
 *  GRADIENTS  - ALL GRADIENTS TO BE PRINTED
 *  DISP       - PRINT DISPERSION AND HYDROGEN BOND ENERGIES
 *******************************************************************************
PM7 1SCF GRADIENTS DISP RELSCF=0.0001
 Title: ASE calculation

   ATOM   CHEMICAL          X               Y               Z
  NUMBER   SYMBOL      (ANGSTROMS)     (ANGSTROMS)     (ANGSTROMS)

     1       C         -1.72921300  *   0.40394505  *   0.99891469  *
     2       C         -1.18331317  *  -0.33126790  *  -0.20501573  *
     3       C         -0.59553879  *  -1.75408785  *   0.08482553  *
     4       C          0.75931159  *  -1.33429025  *  -0.52305335  *
     5       C          1.79471628  *  -0.75698828  *   0.46577478  *
     6       C          1.22879040  *   0.68793322  *   0.23706521  *
     7       C          2.17052681  *   1.59722156  *  -0.35845245  *
     8       N          2.92517825  *   2.33343719  *  -0.83485088  *
     9       C          0.19206173  *   0.11834395  *  -0.77280362  *
    10       H         -2.67700619  *  -0.03860801  *   1.33374586  *
    11       H         -1.92343544  *   1.45888915  *   0.76814120  *
    12       H         -1.04824016  *   0.37232792  *   1.85750842  *
    13       H         -1.94468152  *  -0.36043810  *  -1.00911603  *
    14       H         -1.09861568  *  -2.55918536  *  -0.45465639  *
    15       H         -0.56506157  *  -2.02909327  *   1.14065479  *
    16       H          1.14285055  *  -1.94053429  *  -1.33500357  *
    17       H          2.83412353  *  -0.88787725  *   0.14964390  *
    18       H          1.70678946  *  -1.11607904  *   1.49378796  *
    19       H          0.77013017  *   1.13135269  *   1.14618602  *
    20       H          0.18310974  *   0.56452592  *  -1.75993369  *



          CARTESIAN COORDINATES 

    NO.       ATOM           X           Y           Z

     1         C         -1.7292      0.4039      0.9989
     2         C         -1.1833     -0.3313     -0.2050
     3         C         -0.5955     -1.7541      0.0848
     4         C          0.7593     -1.3343     -0.5231
     5         C          1.7947     -0.7570      0.4658
     6         C          1.2288      0.6879      0.2371
     7         C          2.1705      1.5972     -0.3585
     8         N          2.9252      2.3334     -0.8349
     9         C          0.1921      0.1183     -0.7728
    10         H         -2.6770     -0.0386      1.3337
    11         H         -1.9234      1.4589      0.7681
    12         H         -1.0482      0.3723      1.8575
    13         H         -1.9447     -0.3604     -1.0091
    14         H         -1.0986     -2.5592     -0.4547
    15         H         -0.5651     -2.0291      1.1407
    16         H          1.1429     -1.9405     -1.3350
    17         H          2.8341     -0.8879      0.1496
    18         H          1.7068     -1.1161      1.4938
    19         H          0.7701      1.1314      1.1462
    20         H          0.1831      0.5645     -1.7599

 General Reference for PM7:
 "Optimization of Parameters for Semiempirical Methods VI: More Modifications to the 
 NDDO Approximations and Re-optimization of Parameters", J. J. P. Stewart, J. Mol. Mod., 1:32, 19 (2013)
 https://link.springer.com/article/10.1007/s00894-012-1667-x

           Empirical Formula: C8 H11 N  =    20 atoms



      MOLECULAR POINT GROUP   :   C1  


      RHF CALCULATION, NO. OF DOUBLY OCCUPIED LEVELS = 24

  SCF CRITERION =    0.1000E-07

 -------------------------------------------------------------------------------
 PM7 1SCF GRADIENTS DISP RELSCF=0.0001
 Title: ASE calculation



     1SCF WAS SPECIFIED, SO BFGS WAS NOT USED                 
     SCF FIELD WAS ACHIEVED                                   


                              PM7 CALCULATION
                                                       MOPAC v23.2 Linux
                                                       Fri Sep 19 21:35:06 2025




          FINAL HEAT OF FORMATION =         41.04259 KCAL/MOL =     171.72220 KJ/MOL

          TOTAL ENERGY            =     -30351.17139 KCAL/MOL = ELECTRONIC ENERGY + CORE-CORE REPULSION
          ENERGY OF ATOMS         =      30394.11925 KCAL/MOL
                              SUM =         42.94786 KCAL/MOL
          DISPERSION ENERGY       =         -1.90527 KCAL/MOL
                              SUM =         41.04259 KCAL/MOL = FINAL HEAT OF FORMATION



          TOTAL ENERGY            =      -1316.15136 EV
          ELECTRONIC ENERGY       =      -6808.42386 EV 
          CORE-CORE REPULSION     =       5492.27250 EV
          COSMO AREA              =        167.74 SQUARE ANGSTROMS
          COSMO VOLUME            =        168.60 CUBIC ANGSTROMS

          GRADIENT NORM           =          1.44054          =       0.32211 PER ATOM
          IONIZATION POTENTIAL    =         10.903475 EV
          HOMO LUMO ENERGIES (EV) =        -10.903  1.128
          NO. OF FILLED LEVELS    =         24
          MOLECULAR WEIGHT        =        121.1816         POINT GROUP:  C1  

          MOLECULAR DIMENSIONS (Angstroms)

            Atom       Atom       Distance
            H    10    N     8     6.45863
            H    11    H    16     4.57146
            H    18    H    13     3.89102


          SCF CALCULATIONS        =          1

          WALL-CLOCK TIME         =      0.633 SECONDS
          COMPUTATION TIME        =      0.567 SECONDS

          LARGEST ATOMIC GRADIENTS

          Atom     Label                     Cartesian Gradients           Cartesian Coordinates       |Gradient|
                                           X          Y          Z        X          Y          Z

             8       N                   0.155      0.411      0.033    2.92518    2.33344   -0.83485      0.441
             2       C                   0.114      0.293     -0.306   -1.18331   -0.33127   -0.20502      0.438
             4       C                   0.025     -0.318      0.294    0.75931   -1.33429   -0.52305      0.434
            19       H                   0.107      0.286     -0.306    0.77013    1.13135    1.14619      0.432
             9       C                   0.212      0.200      0.317    0.19206    0.11834   -0.77280      0.431
             3       C                   0.175      0.361      0.086   -0.59554   -1.75409    0.08483      0.410
            10       H                  -0.006     -0.098      0.349   -2.67701   -0.03861    1.33375      0.363
            12       H                  -0.205      0.222      0.116   -1.04824    0.37233    1.85751      0.324
            18       H                   0.131     -0.268     -0.090    1.70679   -1.11608    1.49379      0.312
            15       H                  -0.143     -0.246     -0.115   -0.56506   -2.02909    1.14065      0.307



       FINAL  POINT  AND  DERIVATIVES

   PARAMETER     ATOM    TYPE            VALUE        GRADIENT
      1          1  C    CARTESIAN X    -1.729213     -0.172773  KCAL/ANGSTROM
      2          1  C    CARTESIAN Y     0.403945     -0.039478  KCAL/ANGSTROM
      3          1  C    CARTESIAN Z     0.998915     -0.039476  KCAL/ANGSTROM
      4          2  C    CARTESIAN X    -1.183313      0.114187  KCAL/ANGSTROM
      5          2  C    CARTESIAN Y    -0.331268      0.292816  KCAL/ANGSTROM
      6          2  C    CARTESIAN Z    -0.205016     -0.305588  KCAL/ANGSTROM
      7          3  C    CARTESIAN X    -0.595539      0.174612  KCAL/ANGSTROM
      8          3  C    CARTESIAN Y    -1.754088      0.361461  KCAL/ANGSTROM
      9          3  C    CARTESIAN Z     0.084826      0.085673  KCAL/ANGSTROM
     10          4  C    CARTESIAN X     0.759312      0.025110  KCAL/ANGSTROM
     11          4  C    CARTESIAN Y    -1.334290     -0.318205  KCAL/ANGSTROM
     12          4  C    CARTESIAN Z    -0.523053      0.293605  KCAL/ANGSTROM
     13          5  C    CARTESIAN X     1.794716     -0.090873  KCAL/ANGSTROM
     14          5  C    CARTESIAN Y    -0.756988     -0.053114  KCAL/ANGSTROM
     15          5  C    CARTESIAN Z     0.465775     -0.123246  KCAL/ANGSTROM
     16          6  C    CARTESIAN X     1.228790     -0.116448  KCAL/ANGSTROM
     17          6  C    CARTESIAN Y     0.687933      0.040009  KCAL/ANGSTROM
     18          6  C    CARTESIAN Z     0.237065      0.035919  KCAL/ANGSTROM
     19          7  C    CARTESIAN X     2.170527     -0.125146  KCAL/ANGSTROM
     20          7  C    CARTESIAN Y     1.597222     -0.106028  KCAL/ANGSTROM
     21          7  C    CARTESIAN Z    -0.358452      0.002447  KCAL/ANGSTROM
     22          8  N    CARTESIAN X     2.925178      0.154898  KCAL/ANGSTROM
     23          8  N    CARTESIAN Y     2.333437      0.411090  KCAL/ANGSTROM
     24          8  N    CARTESIAN Z    -0.834851      0.032851  KCAL/ANGSTROM
     25          9  C    CARTESIAN X     0.192062      0.212323  KCAL/ANGSTROM
     26          9  C    CARTESIAN Y     0.118344      0.199969  KCAL/ANGSTROM
     27          9  C    CARTESIAN Z    -0.772804      0.317046  KCAL/ANGSTROM
     28         10  H    CARTESIAN X    -2.677006     -0.005649  KCAL/ANGSTROM
     29         10  H    CARTESIAN Y    -0.038608     -0.098441  KCAL/ANGSTROM
     30         10  H    CARTESIAN Z     1.333746      0.348921  KCAL/ANGSTROM
     31         11  H    CARTESIAN X    -1.923435     -0.007392  KCAL/ANGSTROM
     32         11  H    CARTESIAN Y     1.458889     -0.249851  KCAL/ANGSTROM
     33         11  H    CARTESIAN Z     0.768141      0.142423  KCAL/ANGSTROM
     34         12  H    CARTESIAN X    -1.048240     -0.205322  KCAL/ANGSTROM
     35         12  H    CARTESIAN Y     0.372328      0.221503  KCAL/ANGSTROM
     36         12  H    CARTESIAN Z     1.857508      0.116183  KCAL/ANGSTROM
     37         13  H    CARTESIAN X    -1.944682     -0.055417  KCAL/ANGSTROM
     38         13  H    CARTESIAN Y    -0.360438     -0.025466  KCAL/ANGSTROM
     39         13  H    CARTESIAN Z    -1.009116     -0.262473  KCAL/ANGSTROM
     40         14  H    CARTESIAN X    -1.098616      0.072317  KCAL/ANGSTROM
     41         14  H    CARTESIAN Y    -2.559185      0.238186  KCAL/ANGSTROM
     42         14  H    CARTESIAN Z    -0.454656      0.074874  KCAL/ANGSTROM
     43         15  H    CARTESIAN X    -0.565062     -0.143495  KCAL/ANGSTROM
     44         15  H    CARTESIAN Y    -2.029093     -0.246148  KCAL/ANGSTROM
     45         15  H    CARTESIAN Z     1.140655     -0.114637  KCAL/ANGSTROM
     46         16  H    CARTESIAN X     1.142851      0.124605  KCAL/ANGSTROM
     47         16  H    CARTESIAN Y    -1.940534     -0.213129  KCAL/ANGSTROM
     48         16  H    CARTESIAN Z    -1.335004     -0.107177  KCAL/ANGSTROM
     49         17  H    CARTESIAN X     2.834124     -0.154448  KCAL/ANGSTROM
     50         17  H    CARTESIAN Y    -0.887877     -0.186282  KCAL/ANGSTROM
     51         17  H    CARTESIAN Z     0.149644      0.012714  KCAL/ANGSTROM
     52         18  H    CARTESIAN X     1.706789      0.130620  KCAL/ANGSTROM
     53         18  H    CARTESIAN Y    -1.116079     -0.268027  KCAL/ANGSTROM
     54         18  H    CARTESIAN Z     1.493788     -0.090285  KCAL/ANGSTROM
     55         19  H    CARTESIAN X     0.770130      0.107456  KCAL/ANGSTROM
     56         19  H    CARTESIAN Y     1.131353      0.286206  KCAL/ANGSTROM
     57         19  H    CARTESIAN Z     1.146186     -0.305700  KCAL/ANGSTROM
     58         20  H    CARTESIAN X     0.183110     -0.039166  KCAL/ANGSTROM
     59         20  H    CARTESIAN Y     0.564526     -0.247073  KCAL/ANGSTROM
     60         20  H    CARTESIAN Z    -1.759934     -0.114079  KCAL/ANGSTROM




   ATOM   CHEMICAL          X               Y               Z
  NUMBER   SYMBOL      (ANGSTROMS)     (ANGSTROMS)     (ANGSTROMS)

     1       C         -1.72921300  *   0.40394505  *   0.99891469  *
     2       C         -1.18331317  *  -0.33126790  *  -0.20501573  *
     3       C         -0.59553879  *  -1.75408785  *   0.08482553  *
     4       C          0.75931159  *  -1.33429025  *  -0.52305335  *
     5       C          1.79471628  *  -0.75698828  *   0.46577478  *
     6       C          1.22879040  *   0.68793322  *   0.23706521  *
     7       C          2.17052681  *   1.59722156  *  -0.35845245  *
     8       N          2.92517825  *   2.33343719  *  -0.83485088  *
     9       C          0.19206173  *   0.11834395  *  -0.77280362  *
    10       H         -2.67700619  *  -0.03860801  *   1.33374586  *
    11       H         -1.92343544  *   1.45888915  *   0.76814120  *
    12       H         -1.04824016  *   0.37232792  *   1.85750842  *
    13       H         -1.94468152  *  -0.36043810  *  -1.00911603  *
    14       H         -1.09861568  *  -2.55918536  *  -0.45465639  *
    15       H         -0.56506157  *  -2.02909327  *   1.14065479  *
    16       H          1.14285055  *  -1.94053429  *  -1.33500357  *
    17       H          2.83412353  *  -0.88787725  *   0.14964390  *
    18       H          1.70678946  *  -1.11607904  *   1.49378796  *
    19       H          0.77013017  *   1.13135269  *   1.14618602  *
    20       H          0.18310974  *   0.56452592  *  -1.75993369  *

                             CARTESIAN COORDINATES

   1    C       -1.729212996     0.403945055     0.998914691
   2    C       -1.183313169    -0.331267901    -0.205015726
   3    C       -0.595538789    -1.754087852     0.084825529
   4    C        0.759311594    -1.334290246    -0.523053346
   5    C        1.794716280    -0.756988278     0.465774785
   6    C        1.228790399     0.687933221     0.237065206
   7    C        2.170526814     1.597221561    -0.358452449
   8    N        2.925178246     2.333437187    -0.834850878
   9    C        0.192061733     0.118343950    -0.772803623
  10    H       -2.677006189    -0.038608013     1.333745865
  11    H       -1.923435440     1.458889148     0.768141199
  12    H       -1.048240157     0.372327917     1.857508419
  13    H       -1.944681519    -0.360438100    -1.009116032
  14    H       -1.098615682    -2.559185362    -0.454656389
  15    H       -0.565061571    -2.029093274     1.140654790
  16    H        1.142850547    -1.940534291    -1.335003573
  17    H        2.834123534    -0.887877250     0.149643905
  18    H        1.706789465    -1.116079036     1.493787959
  19    H        0.770130165     1.131352691     1.146186018
  20    H        0.183109743     0.564525915    -1.759933687


           Empirical Formula: C8 H11 N  =    20 atoms



      MOLECULAR POINT GROUP   :   C1  


                  EIGENVALUES  
 -34.86538 -32.31630 -27.71577 -25.71202 -23.60944 -22.20465 -20.28456 -19.05941
 -17.63781 -16.71345 -16.00683 -15.54416 -14.81381 -14.55830 -14.04420 -13.60662
 -13.44723 -12.88850 -12.65686 -12.47082 -11.95711 -11.50838 -11.25272 -10.90347
   1.12804   1.27303   2.56446   2.90038   2.97145   3.19296   3.28866   3.53371
   4.21355   4.36526   4.98428   5.06721   5.35760   5.44141   5.50814   5.58615
   5.76458   5.88449   5.92245   5.99952   6.05398   6.31520   6.68456


              NET ATOMIC CHARGES AND DIPOLE CONTRIBUTIONS

  ATOM NO.   TYPE          CHARGE      No. of ELECS.   s-Pop       p-Pop       
    1          C          -0.450821        4.4508     1.05150     3.39932
    2          C          -0.086469        4.0865     1.06796     3.01851
    3          C          -0.301276        4.3013     1.07234     3.22893
    4          C          -0.125581        4.1256     1.07854     3.04704
    5          C          -0.271226        4.2712     1.07198     3.19925
    6          C          -0.130471        4.1305     1.05639     3.07408
    7          C           0.108452        3.8915     1.12025     2.77129
    8          N          -0.257648        5.2576     1.83142     3.42623
    9          C          -0.145377        4.1454     1.08728     3.05809
   10          H           0.150770        0.8492     0.84923
   11          H           0.152390        0.8476     0.84761
   12          H           0.146671        0.8533     0.85333
   13          H           0.140081        0.8599     0.85992
   14          H           0.142422        0.8576     0.85758
   15          H           0.147519        0.8525     0.85248
   16          H           0.146589        0.8534     0.85341
   17          H           0.154361        0.8456     0.84564
   18          H           0.151207        0.8488     0.84879
   19          H           0.177493        0.8225     0.82251
   20          H           0.150915        0.8491     0.84908
 DIPOLE           X         Y         Z       TOTAL
 POINT-CHG.    -2.702    -2.567     1.358     3.967
 HYBRID        -0.122    -0.094     0.313     0.349
 SUM           -2.825    -2.662     1.670     4.225


          ATOMIC ORBITAL ELECTRON POPULATIONS

     Atom    s        px        py        pz   
    1  C   1.05150   1.16104   1.14747   1.09082
    2  C   1.06796   1.00241   0.97855   1.03755
    3  C   1.07234   1.03079   1.05090   1.14724
    4  C   1.07854   0.97854   1.01333   1.05517
    5  C   1.07198   1.09571   0.98285   1.12070
    6  C   1.05639   1.00827   0.98191   1.08389
    7  C   1.12025   0.92588   0.92197   0.92344
    8  N   1.83142   1.15240   1.15225   1.12158
    9  C   1.08728   0.98835   1.00918   1.06057
   10  H   0.84923
   11  H   0.84761
   12  H   0.85333
   13  H   0.85992
   14  H   0.85758
   15  H   0.85248
   16  H   0.85341
   17  H   0.84564
   18  H   0.84879
   19  H   0.82251
   20  H   0.84908

 **********************
 *                    *
 * JOB ENDED NORMALLY *
 *                    *
 **********************



 TOTAL JOB TIME:             1.03 SECONDS

 == MOPAC DONE ==
