 *******************************************************************************
 **                                                                           **
 **                              MOPAC v23.2                                  **
 **                                                                           **
 *******************************************************************************
 **          Digital Object Identifier (DOI): 10.5281/zenodo.6511958          **
 **    Visit the DOI location for information on how to cite this program.    **
 *******************************************************************************

                              PM7 CALCULATION RESULTS

 *******************************************************************************
 *  CALCULATION DONE: (MAX THREADS = 40)             Fri Sep 19 21:29:27 2025  *
 *  PM7        - The PM7 Hamiltonian to be used
 *  1SCF       - DO 1 SCF AND THEN STOP 
 *  T=         - A TIME OF 172800.0 SECONDS REQUESTED
 *  DUMP=N     - RESTART FILE WRITTEN EVERY 7200.0 SECONDS REQUESTED
 *  RELSCF     - DEFAULT SCF CRITERION MULTIPLIED BY 0.0001
 *              (DEFAULT SCF CRITERION = 0.00010)
 *  GRADIENTS  - ALL GRADIENTS TO BE PRINTED
 *  DISP       - PRINT DISPERSION AND HYDROGEN BOND ENERGIES
 *******************************************************************************
PM7 1SCF GRADIENTS DISP RELSCF=0.0001
 Title: ASE calculation

   ATOM   CHEMICAL          X               Y               Z
  NUMBER   SYMBOL      (ANGSTROMS)     (ANGSTROMS)     (ANGSTROMS)

     1       C         -2.01137682  *  -1.12453105  *  -0.05927288  *
     2       C         -0.70139928  *  -0.39411038  *  -0.36304986  *
     3       C         -0.58096359  *   0.86273921  *   0.51063682  *
     4       C          0.82264187  *   1.40658787  *   0.52071606  *
     5       O          1.16584336  *   2.23866357  *   1.32271035  *
     6       C          1.77417783  *   0.87896014  *  -0.51900230  *
     7       C          1.82044633  *  -0.65646651  *  -0.54072153  *
     8       O          2.86791881  *  -1.11494193  *   0.28280910  *
     9       C          0.50006701  *  -1.31365592  *  -0.10500530  *
    10       H         -2.05936405  *  -1.46171662  *   0.98224559  *
    11       H         -2.87874647  *  -0.47842440  *  -0.23511910  *
    12       H         -2.13231097  *  -2.00972079  *  -0.69407845  *
    13       H         -0.70228686  *  -0.09321969  *  -1.43957310  *
    14       H         -1.27935692  *   1.65092919  *   0.16256793  *
    15       H         -0.89955229  *   0.65138143  *   1.55334644  *
    16       H          1.48295990  *   1.27127692  *  -1.51361902  *
    17       H          2.79957248  *   1.27392050  *  -0.33996859  *
    18       H          2.14813254  *  -1.02580888  *  -1.54119842  *
    19       H          2.78522066  *  -0.77937510  *   1.19702125  *
    20       H          0.37153299  *  -2.27509146  *  -0.63565760  *
    21       H          0.55352788  *  -1.58654230  *   0.96680252  *



          CARTESIAN COORDINATES 

    NO.       ATOM           X           Y           Z

     1         C         -2.0114     -1.1245     -0.0593
     2         C         -0.7014     -0.3941     -0.3630
     3         C         -0.5810      0.8627      0.5106
     4         C          0.8226      1.4066      0.5207
     5         O          1.1658      2.2387      1.3227
     6         C          1.7742      0.8790     -0.5190
     7         C          1.8204     -0.6565     -0.5407
     8         O          2.8679     -1.1149      0.2828
     9         C          0.5001     -1.3137     -0.1050
    10         H         -2.0594     -1.4617      0.9822
    11         H         -2.8787     -0.4784     -0.2351
    12         H         -2.1323     -2.0097     -0.6941
    13         H         -0.7023     -0.0932     -1.4396
    14         H         -1.2794      1.6509      0.1626
    15         H         -0.8996      0.6514      1.5533
    16         H          1.4830      1.2713     -1.5136
    17         H          2.7996      1.2739     -0.3400
    18         H          2.1481     -1.0258     -1.5412
    19         H          2.7852     -0.7794      1.1970
    20         H          0.3715     -2.2751     -0.6357
    21         H          0.5535     -1.5865      0.9668

 General Reference for PM7:
 "Optimization of Parameters for Semiempirical Methods VI: More Modifications to the 
 NDDO Approximations and Re-optimization of Parameters", J. J. P. Stewart, J. Mol. Mod., 1:32, 19 (2013)
 https://link.springer.com/article/10.1007/s00894-012-1667-x

           Empirical Formula: C7 H12 O2  =    21 atoms



      MOLECULAR POINT GROUP   :   C1  


      RHF CALCULATION, NO. OF DOUBLY OCCUPIED LEVELS = 26

  SCF CRITERION =    0.1000E-07

 -------------------------------------------------------------------------------
 PM7 1SCF GRADIENTS DISP RELSCF=0.0001
 Title: ASE calculation



     1SCF WAS SPECIFIED, SO BFGS WAS NOT USED                 
     SCF FIELD WAS ACHIEVED                                   


                              PM7 CALCULATION
                                                       MOPAC v23.2 Linux
                                                       Fri Sep 19 21:29:28 2025




          FINAL HEAT OF FORMATION =       -107.96951 KCAL/MOL =    -451.74444 KJ/MOL

          TOTAL ENERGY            =     -37203.15295 KCAL/MOL = ELECTRONIC ENERGY + CORE-CORE REPULSION
          ENERGY OF ATOMS         =      37097.27293 KCAL/MOL
                              SUM =       -105.88002 KCAL/MOL
          DISPERSION ENERGY       =         -2.08949 KCAL/MOL
                              SUM =       -107.96951 KCAL/MOL = FINAL HEAT OF FORMATION



          TOTAL ENERGY            =      -1613.28140 EV
          ELECTRONIC ENERGY       =      -8002.13195 EV 
          CORE-CORE REPULSION     =       6388.85054 EV
          COSMO AREA              =        164.77 SQUARE ANGSTROMS
          COSMO VOLUME            =        167.88 CUBIC ANGSTROMS

          GRADIENT NORM           =          0.86383          =       0.18850 PER ATOM
          IONIZATION POTENTIAL    =         10.182261 EV
          HOMO LUMO ENERGIES (EV) =        -10.182  0.724
          NO. OF FILLED LEVELS    =         26
          MOLECULAR WEIGHT        =        128.1706         POINT GROUP:  C1  

          MOLECULAR DIMENSIONS (Angstroms)

            Atom       Atom       Distance
            H    17    H    11     5.94348
            O     5    H    20     4.54054
            H    16    H    19     3.47439


          SCF CALCULATIONS        =          1

          WALL-CLOCK TIME         =      0.828 SECONDS
          COMPUTATION TIME        =      0.796 SECONDS

          LARGEST ATOMIC GRADIENTS

          Atom     Label                     Cartesian Gradients           Cartesian Coordinates       |Gradient|
                                           X          Y          Z        X          Y          Z

             4       C                   0.109     -0.244      0.210    0.82264    1.40659    0.52072      0.340
            15       H                  -0.221      0.107     -0.042   -0.89955    0.65138    1.55335      0.249
            20       H                   0.025      0.156     -0.188    0.37153   -2.27509   -0.63566      0.246
            21       H                   0.244     -0.017     -0.016    0.55353   -1.58654    0.96680      0.245
            16       H                  -0.122     -0.044     -0.166    1.48296    1.27128   -1.51362      0.210
             6       C                  -0.157     -0.101      0.093    1.77418    0.87896   -0.51900      0.209
            10       H                  -0.124      0.134     -0.083   -2.05936   -1.46172    0.98225      0.201
            19       H                   0.122      0.136     -0.079    2.78522   -0.77938    1.19702      0.199
            11       H                   0.155     -0.115     -0.032   -2.87875   -0.47842   -0.23512      0.196
             3       C                   0.175      0.055      0.047   -0.58096    0.86274    0.51064      0.190



       FINAL  POINT  AND  DERIVATIVES

   PARAMETER     ATOM    TYPE            VALUE        GRADIENT
      1          1  C    CARTESIAN X    -2.011377      0.122645  KCAL/ANGSTROM
      2          1  C    CARTESIAN Y    -1.124531      0.044336  KCAL/ANGSTROM
      3          1  C    CARTESIAN Z    -0.059273      0.011957  KCAL/ANGSTROM
      4          2  C    CARTESIAN X    -0.701399      0.065433  KCAL/ANGSTROM
      5          2  C    CARTESIAN Y    -0.394110      0.100621  KCAL/ANGSTROM
      6          2  C    CARTESIAN Z    -0.363050      0.095072  KCAL/ANGSTROM
      7          3  C    CARTESIAN X    -0.580964      0.175285  KCAL/ANGSTROM
      8          3  C    CARTESIAN Y     0.862739      0.055050  KCAL/ANGSTROM
      9          3  C    CARTESIAN Z     0.510637      0.047213  KCAL/ANGSTROM
     10          4  C    CARTESIAN X     0.822642      0.108824  KCAL/ANGSTROM
     11          4  C    CARTESIAN Y     1.406588     -0.243526  KCAL/ANGSTROM
     12          4  C    CARTESIAN Z     0.520716      0.210489  KCAL/ANGSTROM
     13          5  O    CARTESIAN X     1.165843      0.037289  KCAL/ANGSTROM
     14          5  O    CARTESIAN Y     2.238664     -0.153961  KCAL/ANGSTROM
     15          5  O    CARTESIAN Z     1.322710     -0.066116  KCAL/ANGSTROM
     16          6  C    CARTESIAN X     1.774178     -0.156798  KCAL/ANGSTROM
     17          6  C    CARTESIAN Y     0.878960     -0.101429  KCAL/ANGSTROM
     18          6  C    CARTESIAN Z    -0.519002      0.093129  KCAL/ANGSTROM
     19          7  C    CARTESIAN X     1.820446     -0.088611  KCAL/ANGSTROM
     20          7  C    CARTESIAN Y    -0.656467     -0.053058  KCAL/ANGSTROM
     21          7  C    CARTESIAN Z    -0.540722      0.098411  KCAL/ANGSTROM
     22          8  O    CARTESIAN X     2.867919      0.023488  KCAL/ANGSTROM
     23          8  O    CARTESIAN Y    -1.114942      0.039041  KCAL/ANGSTROM
     24          8  O    CARTESIAN Z     0.282809     -0.090138  KCAL/ANGSTROM
     25          9  C    CARTESIAN X     0.500067     -0.074811  KCAL/ANGSTROM
     26          9  C    CARTESIAN Y    -1.313656      0.018846  KCAL/ANGSTROM
     27          9  C    CARTESIAN Z    -0.105005      0.071833  KCAL/ANGSTROM
     28         10  H    CARTESIAN X    -2.059364     -0.124358  KCAL/ANGSTROM
     29         10  H    CARTESIAN Y    -1.461717      0.134165  KCAL/ANGSTROM
     30         10  H    CARTESIAN Z     0.982246     -0.083333  KCAL/ANGSTROM
     31         11  H    CARTESIAN X    -2.878746      0.154729  KCAL/ANGSTROM
     32         11  H    CARTESIAN Y    -0.478424     -0.115374  KCAL/ANGSTROM
     33         11  H    CARTESIAN Z    -0.235119     -0.032026  KCAL/ANGSTROM
     34         12  H    CARTESIAN X    -2.132311     -0.082568  KCAL/ANGSTROM
     35         12  H    CARTESIAN Y    -2.009721      0.042135  KCAL/ANGSTROM
     36         12  H    CARTESIAN Z    -0.694078      0.057758  KCAL/ANGSTROM
     37         13  H    CARTESIAN X    -0.702287     -0.057394  KCAL/ANGSTROM
     38         13  H    CARTESIAN Y    -0.093220      0.029956  KCAL/ANGSTROM
     39         13  H    CARTESIAN Z    -1.439573     -0.007596  KCAL/ANGSTROM
     40         14  H    CARTESIAN X    -1.279357     -0.077371  KCAL/ANGSTROM
     41         14  H    CARTESIAN Y     1.650929     -0.071450  KCAL/ANGSTROM
     42         14  H    CARTESIAN Z     0.162568     -0.156423  KCAL/ANGSTROM
     43         15  H    CARTESIAN X    -0.899552     -0.221208  KCAL/ANGSTROM
     44         15  H    CARTESIAN Y     0.651381      0.106731  KCAL/ANGSTROM
     45         15  H    CARTESIAN Z     1.553346     -0.041779  KCAL/ANGSTROM
     46         16  H    CARTESIAN X     1.482960     -0.121582  KCAL/ANGSTROM
     47         16  H    CARTESIAN Y     1.271277     -0.043549  KCAL/ANGSTROM
     48         16  H    CARTESIAN Z    -1.513619     -0.165949  KCAL/ANGSTROM
     49         17  H    CARTESIAN X     2.799572     -0.092756  KCAL/ANGSTROM
     50         17  H    CARTESIAN Y     1.273920     -0.017245  KCAL/ANGSTROM
     51         17  H    CARTESIAN Z    -0.339969      0.089175  KCAL/ANGSTROM
     52         18  H    CARTESIAN X     2.148133      0.019030  KCAL/ANGSTROM
     53         18  H    CARTESIAN Y    -1.025809     -0.046414  KCAL/ANGSTROM
     54         18  H    CARTESIAN Z    -1.541198      0.152122  KCAL/ANGSTROM
     55         19  H    CARTESIAN X     2.785221      0.122370  KCAL/ANGSTROM
     56         19  H    CARTESIAN Y    -0.779375      0.136121  KCAL/ANGSTROM
     57         19  H    CARTESIAN Z     1.197021     -0.078902  KCAL/ANGSTROM
     58         20  H    CARTESIAN X     0.371533      0.024664  KCAL/ANGSTROM
     59         20  H    CARTESIAN Y    -2.275091      0.156359  KCAL/ANGSTROM
     60         20  H    CARTESIAN Z    -0.635658     -0.188471  KCAL/ANGSTROM
     61         21  H    CARTESIAN X     0.553528      0.243700  KCAL/ANGSTROM
     62         21  H    CARTESIAN Y    -1.586542     -0.017353  KCAL/ANGSTROM
     63         21  H    CARTESIAN Z     0.966803     -0.016429  KCAL/ANGSTROM




   ATOM   CHEMICAL          X               Y               Z
  NUMBER   SYMBOL      (ANGSTROMS)     (ANGSTROMS)     (ANGSTROMS)

     1       C         -2.01137682  *  -1.12453105  *  -0.05927288  *
     2       C         -0.70139928  *  -0.39411038  *  -0.36304986  *
     3       C         -0.58096359  *   0.86273921  *   0.51063682  *
     4       C          0.82264187  *   1.40658787  *   0.52071606  *
     5       O          1.16584336  *   2.23866357  *   1.32271035  *
     6       C          1.77417783  *   0.87896014  *  -0.51900230  *
     7       C          1.82044633  *  -0.65646651  *  -0.54072153  *
     8       O          2.86791881  *  -1.11494193  *   0.28280910  *
     9       C          0.50006701  *  -1.31365592  *  -0.10500530  *
    10       H         -2.05936405  *  -1.46171662  *   0.98224559  *
    11       H         -2.87874647  *  -0.47842440  *  -0.23511910  *
    12       H         -2.13231097  *  -2.00972079  *  -0.69407845  *
    13       H         -0.70228686  *  -0.09321969  *  -1.43957310  *
    14       H         -1.27935692  *   1.65092919  *   0.16256793  *
    15       H         -0.89955229  *   0.65138143  *   1.55334644  *
    16       H          1.48295990  *   1.27127692  *  -1.51361902  *
    17       H          2.79957248  *   1.27392050  *  -0.33996859  *
    18       H          2.14813254  *  -1.02580888  *  -1.54119842  *
    19       H          2.78522066  *  -0.77937510  *   1.19702125  *
    20       H          0.37153299  *  -2.27509146  *  -0.63565760  *
    21       H          0.55352788  *  -1.58654230  *   0.96680252  *

                             CARTESIAN COORDINATES

   1    C       -2.011376817    -1.124531049    -0.059272885
   2    C       -0.701399277    -0.394110380    -0.363049863
   3    C       -0.580963590     0.862739210     0.510636818
   4    C        0.822641868     1.406587869     0.520716062
   5    O        1.165843361     2.238663566     1.322710348
   6    C        1.774177828     0.878960139    -0.519002298
   7    C        1.820446330    -0.656466513    -0.540721534
   8    O        2.867918805    -1.114941929     0.282809099
   9    C        0.500067009    -1.313655920    -0.105005304
  10    H       -2.059364050    -1.461716620     0.982245595
  11    H       -2.878746472    -0.478424398    -0.235119102
  12    H       -2.132310970    -2.009720787    -0.694078454
  13    H       -0.702286856    -0.093219693    -1.439573097
  14    H       -1.279356919     1.650929189     0.162567934
  15    H       -0.899552290     0.651381429     1.553346441
  16    H        1.482959901     1.271276916    -1.513619025
  17    H        2.799572482     1.273920496    -0.339968594
  18    H        2.148132535    -1.025808882    -1.541198424
  19    H        2.785220661    -0.779375100     1.197021252
  20    H        0.371532993    -2.275091457    -0.635657597
  21    H        0.553527880    -1.586542300     0.966802516


           Empirical Formula: C7 H12 O2  =    21 atoms



      MOLECULAR POINT GROUP   :   C1  


                  EIGENVALUES  
 -31.59703 -30.48017 -29.18575 -26.78160 -25.41507 -24.03316 -21.49297 -20.37919
 -18.38924 -17.38743 -17.18054 -16.29486 -15.67762 -15.16365 -14.44475 -14.23491
 -13.76159 -13.57582 -13.23184 -12.98029 -12.86928 -12.40481 -11.75846 -11.67308
 -10.87303 -10.18226   0.72358   2.63547   2.94292   3.30422   3.43350   3.60402
   3.92784   4.06282   4.20796   4.86269   4.96214   5.07470   5.31516   5.41488
   5.45000   5.50701   5.73444   5.91882   6.04949   6.12006   6.27687   6.62703


              NET ATOMIC CHARGES AND DIPOLE CONTRIBUTIONS

  ATOM NO.   TYPE          CHARGE      No. of ELECS.   s-Pop       p-Pop       
    1          C          -0.457442        4.4574     1.05572     3.40172
    2          C          -0.056984        4.0570     1.05594     3.00104
    3          C          -0.404799        4.4048     1.07441     3.33039
    4          C           0.492183        3.5078     1.12184     2.38598
    5          O          -0.465090        6.4651     1.87723     4.58786
    6          C          -0.456224        4.4562     1.08117     3.37505
    7          C           0.185369        3.8146     1.08479     2.72984
    8          O          -0.560281        6.5603     1.84720     4.71308
    9          C          -0.356288        4.3563     1.07273     3.28356
   10          H           0.149776        0.8502     0.85022
   11          H           0.147487        0.8525     0.85251
   12          H           0.147747        0.8523     0.85225
   13          H           0.134745        0.8653     0.86525
   14          H           0.174010        0.8260     0.82599
   15          H           0.179072        0.8209     0.82093
   16          H           0.176137        0.8239     0.82386
   17          H           0.193512        0.8065     0.80649
   18          H           0.142511        0.8575     0.85749
   19          H           0.320942        0.6791     0.67906
   20          H           0.154679        0.8453     0.84532
   21          H           0.158938        0.8411     0.84106
 DIPOLE           X         Y         Z       TOTAL
 POINT-CHG.    -2.772    -1.519    -2.365     3.948
 HYBRID         0.041     0.268     0.647     0.702
 SUM           -2.730    -1.251    -1.718     3.460


          ATOMIC ORBITAL ELECTRON POPULATIONS

     Atom    s        px        py        pz   
    1  C   1.05572   1.07654   1.14781   1.17737
    2  C   1.05594   0.96321   0.96168   1.07615
    3  C   1.07441   1.08092   1.09137   1.15810
    4  C   1.12184   0.87782   0.73649   0.77167
    5  O   1.87723   1.81427   1.34675   1.42685
    6  C   1.08117   1.16200   1.07743   1.13563
    7  C   1.08479   0.85512   0.90395   0.97077
    8  O   1.84720   1.55572   1.78822   1.36914
    9  C   1.07273   1.01304   1.09568   1.17484
   10  H   0.85022
   11  H   0.85251
   12  H   0.85225
   13  H   0.86525
   14  H   0.82599
   15  H   0.82093
   16  H   0.82386
   17  H   0.80649
   18  H   0.85749
   19  H   0.67906
   20  H   0.84532
   21  H   0.84106

 **********************
 *                    *
 * JOB ENDED NORMALLY *
 *                    *
 **********************



 TOTAL JOB TIME:             1.36 SECONDS

 == MOPAC DONE ==
