 *******************************************************************************
 **                                                                           **
 **                              MOPAC v23.2                                  **
 **                                                                           **
 *******************************************************************************
 **          Digital Object Identifier (DOI): 10.5281/zenodo.6511958          **
 **    Visit the DOI location for information on how to cite this program.    **
 *******************************************************************************

                              PM7 CALCULATION RESULTS

 *******************************************************************************
 *  CALCULATION DONE: (MAX THREADS = 40)             Fri Sep 19 21:29:07 2025  *
 *  PM7        - The PM7 Hamiltonian to be used
 *
 *
 *
 *                 CHARGE ON SYSTEM = +1
 *
 *
 *
 *  1SCF       - DO 1 SCF AND THEN STOP 
 *  T=         - A TIME OF 172800.0 SECONDS REQUESTED
 *  DUMP=N     - RESTART FILE WRITTEN EVERY 7200.0 SECONDS REQUESTED
 *  RELSCF     - DEFAULT SCF CRITERION MULTIPLIED BY 0.0001
 *              (DEFAULT SCF CRITERION = 0.00010)
 *  GRADIENTS  - ALL GRADIENTS TO BE PRINTED
 *  DISP       - PRINT DISPERSION AND HYDROGEN BOND ENERGIES
 *******************************************************************************
PM7 1SCF GRADIENTS DISP RELSCF=0.0001 CHARGE=1
 Title: ASE calculation

   ATOM   CHEMICAL          X               Y               Z
  NUMBER   SYMBOL      (ANGSTROMS)     (ANGSTROMS)     (ANGSTROMS)

     1       N          2.61807864  *  -0.38081967  *   0.18128295  *
     2       C          1.27651955  *  -0.21860786  *   0.09180932  *
     3       N          0.66633482  *   0.97814553  *  -0.02953700  *
     4       C         -0.81686561  *   0.77258025  *  -0.10092065  *
     5       N         -1.70767383  *   1.63257086  *  -0.21441247  *
     6       C         -0.94049711  *  -0.70844893  *  -0.00187507  *
     7       C         -1.90843209  *  -1.59032657  *  -0.75043757  *
     8       C         -1.99568506  *  -1.48298551  *   0.74758978  *
     9       O          0.39570972  *  -1.24310211  *   0.11419268  *
    10       H          3.00921200  *  -1.31416187  *   0.27094951  *
    11       H          1.14251442  *   1.87969776  *  -0.06660515  *
    12       H         -1.66375068  *   2.63102507  *  -0.28356342  *
    13       H         -1.55023690  *  -2.51410221  *  -1.21741367  *
    14       H         -2.67322957  *  -1.13018174  *  -1.38800185  *
    15       H         -2.82519487  *  -0.94321251  *   1.22062332  *
    16       H         -1.70141683  *  -2.32808523  *   1.37925883  *



          CARTESIAN COORDINATES 

    NO.       ATOM           X           Y           Z

     1         N          2.6181     -0.3808      0.1813
     2         C          1.2765     -0.2186      0.0918
     3         N          0.6663      0.9781     -0.0295
     4         C         -0.8169      0.7726     -0.1009
     5         N         -1.7077      1.6326     -0.2144
     6         C         -0.9405     -0.7084     -0.0019
     7         C         -1.9084     -1.5903     -0.7504
     8         C         -1.9957     -1.4830      0.7476
     9         O          0.3957     -1.2431      0.1142
    10         H          3.0092     -1.3142      0.2709
    11         H          1.1425      1.8797     -0.0666
    12         H         -1.6638      2.6310     -0.2836
    13         H         -1.5502     -2.5141     -1.2174
    14         H         -2.6732     -1.1302     -1.3880
    15         H         -2.8252     -0.9432      1.2206
    16         H         -1.7014     -2.3281      1.3793

 General Reference for PM7:
 "Optimization of Parameters for Semiempirical Methods VI: More Modifications to the 
 NDDO Approximations and Re-optimization of Parameters", J. J. P. Stewart, J. Mol. Mod., 1:32, 19 (2013)
 https://link.springer.com/article/10.1007/s00894-012-1667-x

           Empirical Formula: C5 H7 N3 O  =    16 atoms



      MOLECULAR POINT GROUP   :   Cs  


          UHF CALCULATION, NO. OF ALPHA ELECTRONS =   24
                           NO. OF BETA  ELECTRONS =   23
  SCF CRITERION =    0.1000E-07

 -------------------------------------------------------------------------------
 PM7 1SCF GRADIENTS DISP RELSCF=0.0001 CHARGE=1
 Title: ASE calculation



     1SCF WAS SPECIFIED, SO BFGS WAS NOT USED                 
     SCF FIELD WAS ACHIEVED                                   


                              PM7 CALCULATION
                                                       MOPAC v23.2 Linux
                                                       Fri Sep 19 21:29:08 2025




          FINAL HEAT OF FORMATION =        232.42524 KCAL/MOL =     972.46719 KJ/MOL

          TOTAL ENERGY            =     -35787.98439 KCAL/MOL = ELECTRONIC ENERGY + CORE-CORE REPULSION
          ENERGY OF ATOMS         =      36022.11410 KCAL/MOL
                              SUM =        234.12971 KCAL/MOL
          DISPERSION ENERGY       =         -1.70447 KCAL/MOL
                              SUM =        232.42524 KCAL/MOL = FINAL HEAT OF FORMATION



          TOTAL ENERGY            =      -1551.91389 EV
          ELECTRONIC ENERGY       =      -7120.91247 EV 
          CORE-CORE REPULSION     =       5568.99859 EV
          COSMO AREA              =        153.76 SQUARE ANGSTROMS
          COSMO VOLUME            =        146.96 CUBIC ANGSTROMS

          GRADIENT NORM           =          0.92424          =       0.23106 PER ATOM
          IONIZATION POTENTIAL    =         15.309972 EV
          ALPHA SOMO LUMO (EV)    =        -15.649 -5.511
          BETA  SOMO LUMO (EV)    =        -15.310 -8.007
          NO. OF ALPHA ELECTRONS  =         24
          NO. OF BETA  ELECTRONS  =         23
          MOLECULAR WEIGHT        =        125.1298         POINT GROUP:  Cs  

          MOLECULAR DIMENSIONS (Angstroms)

            Atom       Atom       Distance
            H    12    H    10     6.14073
            H    11    H    16     5.23788
            H    15    H    13     2.61426


          SCF CALCULATIONS        =          1

          WALL-CLOCK TIME         =      1.039 SECONDS
          COMPUTATION TIME        =      0.556 SECONDS

          LARGEST ATOMIC GRADIENTS

          Atom     Label                     Cartesian Gradients           Cartesian Coordinates       |Gradient|
                                           X          Y          Z        X          Y          Z

             9       O                   0.205     -0.339      0.034    0.39571   -1.24310    0.11419      0.398
            10       H                   0.364      0.027      0.019    3.00921   -1.31416    0.27095      0.366
             5       N                  -0.362      0.025     -0.024   -1.70767    1.63257   -0.21441      0.364
             6       C                   0.235     -0.156      0.024   -0.94050   -0.70845   -0.00188      0.283
             1       N                  -0.217     -0.164     -0.001    2.61808   -0.38082    0.18128      0.272
            12       H                  -0.201      0.147     -0.023   -1.66375    2.63103   -0.28356      0.250
             3       N                  -0.182     -0.119     -0.003    0.66633    0.97815   -0.02954      0.217
            15       H                   0.024      0.213     -0.015   -2.82519   -0.94321    1.22062      0.214
            14       H                   0.020      0.211     -0.009   -2.67323   -1.13018   -1.38800      0.212
             4       C                   0.105     -0.091      0.012   -0.81687    0.77258   -0.10092      0.140



       FINAL  POINT  AND  DERIVATIVES

   PARAMETER     ATOM    TYPE            VALUE        GRADIENT
      1          1  N    CARTESIAN X     2.618079     -0.216803  KCAL/ANGSTROM
      2          1  N    CARTESIAN Y    -0.380820     -0.164472  KCAL/ANGSTROM
      3          1  N    CARTESIAN Z     0.181283     -0.000649  KCAL/ANGSTROM
      4          2  C    CARTESIAN X     1.276520     -0.022303  KCAL/ANGSTROM
      5          2  C    CARTESIAN Y    -0.218608     -0.061312  KCAL/ANGSTROM
      6          2  C    CARTESIAN Z     0.091809      0.002045  KCAL/ANGSTROM
      7          3  N    CARTESIAN X     0.666335     -0.182003  KCAL/ANGSTROM
      8          3  N    CARTESIAN Y     0.978146     -0.118662  KCAL/ANGSTROM
      9          3  N    CARTESIAN Z    -0.029537     -0.002680  KCAL/ANGSTROM
     10          4  C    CARTESIAN X    -0.816866      0.105462  KCAL/ANGSTROM
     11          4  C    CARTESIAN Y     0.772580     -0.091455  KCAL/ANGSTROM
     12          4  C    CARTESIAN Z    -0.100921      0.011558  KCAL/ANGSTROM
     13          5  N    CARTESIAN X    -1.707674     -0.361948  KCAL/ANGSTROM
     14          5  N    CARTESIAN Y     1.632571      0.024568  KCAL/ANGSTROM
     15          5  N    CARTESIAN Z    -0.214412     -0.023930  KCAL/ANGSTROM
     16          6  C    CARTESIAN X    -0.940497      0.235439  KCAL/ANGSTROM
     17          6  C    CARTESIAN Y    -0.708449     -0.155739  KCAL/ANGSTROM
     18          6  C    CARTESIAN Z    -0.001875      0.023977  KCAL/ANGSTROM
     19          7  C    CARTESIAN X    -1.908432      0.028006  KCAL/ANGSTROM
     20          7  C    CARTESIAN Y    -1.590327      0.092541  KCAL/ANGSTROM
     21          7  C    CARTESIAN Z    -0.750438      0.003872  KCAL/ANGSTROM
     22          8  C    CARTESIAN X    -1.995685      0.030860  KCAL/ANGSTROM
     23          8  C    CARTESIAN Y    -1.482986      0.092363  KCAL/ANGSTROM
     24          8  C    CARTESIAN Z     0.747590     -0.012000  KCAL/ANGSTROM
     25          9  O    CARTESIAN X     0.395710      0.204934  KCAL/ANGSTROM
     26          9  O    CARTESIAN Y    -1.243102     -0.339206  KCAL/ANGSTROM
     27          9  O    CARTESIAN Z     0.114193      0.033990  KCAL/ANGSTROM
     28         10  H    CARTESIAN X     3.009212      0.364366  KCAL/ANGSTROM
     29         10  H    CARTESIAN Y    -1.314162      0.027160  KCAL/ANGSTROM
     30         10  H    CARTESIAN Z     0.270950      0.019330  KCAL/ANGSTROM
     31         11  H    CARTESIAN X     1.142514     -0.092157  KCAL/ANGSTROM
     32         11  H    CARTESIAN Y     1.879698     -0.059256  KCAL/ANGSTROM
     33         11  H    CARTESIAN Z    -0.066605     -0.000713  KCAL/ANGSTROM
     34         12  H    CARTESIAN X    -1.663751     -0.200995  KCAL/ANGSTROM
     35         12  H    CARTESIAN Y     2.631025      0.147288  KCAL/ANGSTROM
     36         12  H    CARTESIAN Z    -0.283563     -0.022801  KCAL/ANGSTROM
     37         13  H    CARTESIAN X    -1.550237      0.028532  KCAL/ANGSTROM
     38         13  H    CARTESIAN Y    -2.514102      0.091984  KCAL/ANGSTROM
     39         13  H    CARTESIAN Z    -1.217414      0.020391  KCAL/ANGSTROM
     40         14  H    CARTESIAN X    -2.673230      0.019752  KCAL/ANGSTROM
     41         14  H    CARTESIAN Y    -1.130182      0.211144  KCAL/ANGSTROM
     42         14  H    CARTESIAN Z    -1.388002     -0.009330  KCAL/ANGSTROM
     43         15  H    CARTESIAN X    -2.825195      0.023797  KCAL/ANGSTROM
     44         15  H    CARTESIAN Y    -0.943213      0.212610  KCAL/ANGSTROM
     45         15  H    CARTESIAN Z     1.220623     -0.015293  KCAL/ANGSTROM
     46         16  H    CARTESIAN X    -1.701417      0.035054  KCAL/ANGSTROM
     47         16  H    CARTESIAN Y    -2.328085      0.090439  KCAL/ANGSTROM
     48         16  H    CARTESIAN Z     1.379259     -0.027771  KCAL/ANGSTROM




   ATOM   CHEMICAL          X               Y               Z
  NUMBER   SYMBOL      (ANGSTROMS)     (ANGSTROMS)     (ANGSTROMS)

     1       N          2.61807864  *  -0.38081967  *   0.18128295  *
     2       C          1.27651955  *  -0.21860786  *   0.09180932  *
     3       N          0.66633482  *   0.97814553  *  -0.02953700  *
     4       C         -0.81686561  *   0.77258025  *  -0.10092065  *
     5       N         -1.70767383  *   1.63257086  *  -0.21441247  *
     6       C         -0.94049711  *  -0.70844893  *  -0.00187507  *
     7       C         -1.90843209  *  -1.59032657  *  -0.75043757  *
     8       C         -1.99568506  *  -1.48298551  *   0.74758978  *
     9       O          0.39570972  *  -1.24310211  *   0.11419268  *
    10       H          3.00921200  *  -1.31416187  *   0.27094951  *
    11       H          1.14251442  *   1.87969776  *  -0.06660515  *
    12       H         -1.66375068  *   2.63102507  *  -0.28356342  *
    13       H         -1.55023690  *  -2.51410221  *  -1.21741367  *
    14       H         -2.67322957  *  -1.13018174  *  -1.38800185  *
    15       H         -2.82519487  *  -0.94321251  *   1.22062332  *
    16       H         -1.70141683  *  -2.32808523  *   1.37925883  *

                             CARTESIAN COORDINATES

   1    N        2.618078642    -0.380819670     0.181282952
   2    C        1.276519550    -0.218607860     0.091809324
   3    N        0.666334822     0.978145535    -0.029537001
   4    C       -0.816865611     0.772580252    -0.100920654
   5    N       -1.707673833     1.632570860    -0.214412475
   6    C       -0.940497110    -0.708448929    -0.001875072
   7    C       -1.908432094    -1.590326569    -0.750437573
   8    C       -1.995685055    -1.482985506     0.747589777
   9    O        0.395709720    -1.243102105     0.114192678
  10    H        3.009212001    -1.314161873     0.270949512
  11    H        1.142514421     1.879697760    -0.066605151
  12    H       -1.663750682     2.631025073    -0.283563418
  13    H       -1.550236904    -2.514102213    -1.217413674
  14    H       -2.673229573    -1.130181741    -1.388001847
  15    H       -2.825194874    -0.943212509     1.220623316
  16    H       -1.701416833    -2.328085231     1.379258825


           Empirical Formula: C5 H7 N3 O  =    16 atoms



      MOLECULAR POINT GROUP   :   Cs  


          ALPHA EIGENVALUES  
 -43.94912 -41.11756 -40.18058 -36.80389 -34.85655 -29.24958 -28.18207 -25.68955
 -25.55194 -24.70084 -22.59310 -22.50827 -21.99495 -20.78935 -20.50118 -19.03787
 -18.73784 -18.44710 -17.61220 -17.06581 -16.73138 -16.63751 -15.97855 -15.64944
  -5.51062  -4.84161  -4.48053  -4.25764  -2.82887  -2.58136  -2.42593  -2.35918
  -1.46438  -1.15234  -0.97714  -0.44548   0.09515   0.64418   1.17886   1.69626
   1.85344   1.95675   2.03232


           BETA EIGENVALUES 
 -43.28148 -40.73618 -38.62700 -36.82605 -34.85236 -29.16482 -27.89403 -25.64103
 -25.54882 -24.52316 -22.46203 -22.26097 -21.43947 -20.76157 -20.45529 -18.73531
 -18.53634 -17.54072 -16.91902 -16.75440 -16.45338 -15.84339 -15.30997  -8.00683
  -4.68779  -4.65587  -4.19981  -3.90855  -2.78230  -2.46484  -2.36678  -2.13679
  -1.41942  -1.11818  -0.98395  -0.44730   0.26758   0.97650   1.17860   1.69593
   1.87349   1.95642   2.03193


              NET ATOMIC CHARGES AND DIPOLE CONTRIBUTIONS

  ATOM NO.   TYPE          CHARGE      No. of ELECS.   s-Pop       p-Pop       
    1          N          -0.245229        5.2452     1.75259     3.49263
    2          C           0.475363        3.5246     1.07914     2.44550
    3          N          -0.358085        5.3581     1.57787     3.78022
    4          C           0.351096        3.6489     1.08580     2.56311
    5          N          -0.386289        5.3863     1.66540     3.72089
    6          C           0.048091        3.9519     1.06124     2.89067
    7          C          -0.252314        4.2523     1.06852     3.18379
    8          C          -0.252243        4.2522     1.06855     3.18370
    9          O          -0.221830        6.2218     1.88488     4.33695
   10          H           0.322557        0.6774     0.67744
   11          H           0.368643        0.6314     0.63136
   12          H           0.341574        0.6584     0.65843
   13          H           0.200296        0.7997     0.79970
   14          H           0.204033        0.7960     0.79597
   15          H           0.204039        0.7960     0.79596
   16          H           0.200297        0.7997     0.79970
 DIPOLE           X         Y         Z       TOTAL
 POINT-CHG.     1.179     1.541    -0.042     1.941
 HYBRID         1.102     0.328     0.040     1.151
 SUM            2.282     1.869    -0.002     2.949


          ATOMIC ORBITAL ELECTRON POPULATIONS

     Atom    s        px        py        pz   
    1  N   1.75259   1.08301   1.44056   0.96906
    2  C   1.07914   0.83213   0.79716   0.81621
    3  N   1.57787   1.21137   1.17009   1.39876
    4  C   1.08580   0.69096   0.95199   0.92016
    5  N   1.66540   1.36565   1.22338   1.13186
    6  C   1.06124   0.77183   0.88904   1.22980
    7  C   1.06852   1.05391   1.10601   1.02387
    8  C   1.06855   1.04526   1.11540   1.02303
    9  O   1.88488   1.23866   1.30957   1.78872
   10  H   0.67744
   11  H   0.63136
   12  H   0.65843
   13  H   0.79970
   14  H   0.79597
   15  H   0.79596
   16  H   0.79970


                    (SZ)    =    0.500000
                    (S**2)  =    0.821941


          ATOMIC ORBITAL SPIN POPULATIONS

    Atom   Total    s     px     py     pz   
         Atomic
    1  N  0.8994  0.017  0.046  0.032  0.804
    2  C -0.2258 -0.020 -0.024 -0.017 -0.164
    3  N  0.4097  0.019  0.025  0.021  0.346
    4  C -0.0703 -0.002 -0.016 -0.003 -0.050
    5  N  0.0713  0.001 -0.007  0.002  0.074
    6  C  0.0015 -0.000 -0.001 -0.000  0.003
    7  C -0.0013 -0.000 -0.000 -0.001  0.000
    8  C -0.0013 -0.000 -0.000 -0.001  0.000
    9  O -0.0301 -0.002 -0.001 -0.006 -0.021
   10  H -0.0351 -0.035
   11  H -0.0143 -0.014
   12  H -0.0038 -0.004
   13  H -0.0000 -0.000
   14  H  0.0000  0.000
   15  H  0.0000  0.000
   16  H -0.0000 -0.000

 **********************
 *                    *
 * JOB ENDED NORMALLY *
 *                    *
 **********************



 TOTAL JOB TIME:             1.42 SECONDS

 == MOPAC DONE ==
