 *******************************************************************************
 **                                                                           **
 **                              MOPAC v23.2                                  **
 **                                                                           **
 *******************************************************************************
 **          Digital Object Identifier (DOI): 10.5281/zenodo.6511958          **
 **    Visit the DOI location for information on how to cite this program.    **
 *******************************************************************************

                              PM7 CALCULATION RESULTS

 *******************************************************************************
 *  CALCULATION DONE: (MAX THREADS = 40)             Fri Sep 19 21:32:57 2025  *
 *  PM7        - The PM7 Hamiltonian to be used
 *  EPS=37.5   - USE ANDREAS KLAMT'S COSMO IMPLICIT SOLVATION MODEL
 *  1SCF       - DO 1 SCF AND THEN STOP 
 *  T=         - A TIME OF 172800.0 SECONDS REQUESTED
 *  DUMP=N     - RESTART FILE WRITTEN EVERY 7200.0 SECONDS REQUESTED
 *  RELSCF     - DEFAULT SCF CRITERION MULTIPLIED BY 0.0001
 *              (DEFAULT SCF CRITERION = 0.00010)
 *  GRADIENTS  - ALL GRADIENTS TO BE PRINTED
 *  DISP       - PRINT DISPERSION AND HYDROGEN BOND ENERGIES
 *******************************************************************************
PM7 1SCF GRADIENTS EPS=37.5 DISP RELSCF=0.0001
 Title: ASE calculation

   ATOM   CHEMICAL          X               Y               Z
  NUMBER   SYMBOL      (ANGSTROMS)     (ANGSTROMS)     (ANGSTROMS)

     1       O         -1.94496077  *   2.09013766  *  -0.59132116  *
     2       C         -1.25954393  *   1.21610521  *   0.27725307  *
     3       C          0.24220154  *   1.41131500  *  -0.04122490  *
     4       C          0.82490930  *   0.03809804  *  -0.31712255  *
     5       C          2.21833680  *  -0.34639087  *   0.02281568  *
     6       O          1.82519746  *  -0.05931977  *  -1.32708646  *
     7       C         -0.29687679  *  -0.96282050  *  -0.41094834  *
     8       N         -0.98361159  *  -1.19332514  *   0.88253212  *
     9       C         -1.59303813  *  -0.24296236  *  -0.07231364  *
    10       H         -2.90560811  *   2.07979134  *  -0.41979685  *
    11       H         -1.51649745  *   1.46321425  *   1.32708646  *
    12       H          0.76269330  *   1.92535946  *   0.78246772  *
    13       H          0.35186224  *   2.06281192  *  -0.93688198  *
    14       H          2.48260838  *  -1.38252964  *   0.21783352  *
    15       H          2.90560811  *   0.36951712  *   0.46634337  *
    16       H         -0.19349860  *  -1.74373045  *  -1.16110244  *
    17       H         -1.44296750  *  -2.09013766  *   0.98760924  *
    18       H         -2.54268701  *  -0.42622239  *  -0.56218146  *



          CARTESIAN COORDINATES 

    NO.       ATOM           X           Y           Z

     1         O         -1.9450      2.0901     -0.5913
     2         C         -1.2595      1.2161      0.2773
     3         C          0.2422      1.4113     -0.0412
     4         C          0.8249      0.0381     -0.3171
     5         C          2.2183     -0.3464      0.0228
     6         O          1.8252     -0.0593     -1.3271
     7         C         -0.2969     -0.9628     -0.4109
     8         N         -0.9836     -1.1933      0.8825
     9         C         -1.5930     -0.2430     -0.0723
    10         H         -2.9056      2.0798     -0.4198
    11         H         -1.5165      1.4632      1.3271
    12         H          0.7627      1.9254      0.7825
    13         H          0.3519      2.0628     -0.9369
    14         H          2.4826     -1.3825      0.2178
    15         H          2.9056      0.3695      0.4663
    16         H         -0.1935     -1.7437     -1.1611
    17         H         -1.4430     -2.0901      0.9876
    18         H         -2.5427     -0.4262     -0.5622

 General Reference for PM7:
 "Optimization of Parameters for Semiempirical Methods VI: More Modifications to the 
 NDDO Approximations and Re-optimization of Parameters", J. J. P. Stewart, J. Mol. Mod., 1:32, 19 (2013)
 https://link.springer.com/article/10.1007/s00894-012-1667-x

           Empirical Formula: C6 H9 N O2  =    18 atoms



      MOLECULAR POINT GROUP   :   C1  


      RHF CALCULATION, NO. OF DOUBLY OCCUPIED LEVELS = 25

  SCF CRITERION =    0.1000E-07

 -------------------------------------------------------------------------------
 PM7 1SCF GRADIENTS EPS=37.5 DISP RELSCF=0.0001
 Title: ASE calculation



     1SCF WAS SPECIFIED, SO BFGS WAS NOT USED                 
     SCF FIELD WAS ACHIEVED                                   


                              PM7 CALCULATION
                                                       MOPAC v23.2 Linux
                                                       Fri Sep 19 21:32:58 2025




          FINAL HEAT OF FORMATION =        -28.33035 KCAL/MOL =    -118.53419 KJ/MOL

          TOTAL ENERGY            =     -37665.61178 KCAL/MOL = ELECTRONIC ENERGY + CORE-CORE REPULSION + SOLVATION ENERGY
          ENERGY OF ATOMS         =      37638.97832 KCAL/MOL
                              SUM =        -26.63346 KCAL/MOL
          DISPERSION ENERGY       =         -1.69689 KCAL/MOL
                              SUM =        -28.33035 KCAL/MOL = FINAL HEAT OF FORMATION

          VAN DER WAALS AREA      =        155.08 SQUARE ANGSTROMS


          TOTAL ENERGY            =      -1633.33552 EV
          ELECTRONIC ENERGY       =      -2388.54792 EV 
          CORE-CORE REPULSION     =        755.21240 EV

          DIELECTRIC ENERGY       =         -0.62581 EV
          COSMO AREA              =        155.08 SQUARE ANGSTROMS
          COSMO VOLUME            =        152.18 CUBIC ANGSTROMS

          GRADIENT NORM           =         13.82530          =       3.25865 PER ATOM
          IONIZATION POTENTIAL    =         10.282144 EV
          HOMO LUMO ENERGIES (EV) =        -10.282  1.571
          NO. OF FILLED LEVELS    =         25
          MOLECULAR WEIGHT        =        127.1426         POINT GROUP:  C1  

          MOLECULAR DIMENSIONS (Angstroms)

            Atom       Atom       Distance
            H    14    H    10     6.43639
            H    17    H    13     4.82926
            H    11    H    16     3.30577


          SCF CALCULATIONS        =          2

          WALL-CLOCK TIME         =      0.719 SECONDS
          COMPUTATION TIME        =      1.179 SECONDS

          LARGEST ATOMIC GRADIENTS

          Atom     Label                     Cartesian Gradients           Cartesian Coordinates       |Gradient|
                                           X          Y          Z        X          Y          Z

            10       H                   5.638      0.090     -0.693   -2.90561    2.07979   -0.41980      5.682
             4       C                   2.096     -0.241     -4.753    0.82491    0.03810   -0.31712      5.200
             6       O                  -1.505     -0.653      4.406    1.82520   -0.05932   -1.32709      4.702
            17       H                   2.482      3.792      0.841   -1.44297   -2.09014    0.98761      4.610
             1       O                  -4.337      0.554      0.369   -1.94496    2.09014   -0.59132      4.388
             8       N                  -2.227     -3.470      0.279   -0.98361   -1.19333    0.88253      4.132
             9       C                  -2.964     -1.464     -0.407   -1.59304   -0.24296   -0.07231      3.331
             3       C                   0.109      1.143      2.632    0.24220    1.41131   -0.04122      2.872
            18       H                   2.414      0.960      0.030   -2.54269   -0.42622   -0.56218      2.598
            16       H                   0.634      2.104      0.283   -0.19350   -1.74373   -1.16110      2.216



       FINAL  POINT  AND  DERIVATIVES

   PARAMETER     ATOM    TYPE            VALUE        GRADIENT
      1          1  O    CARTESIAN X    -1.944961     -4.336888  KCAL/ANGSTROM
      2          1  O    CARTESIAN Y     2.090138      0.553843  KCAL/ANGSTROM
      3          1  O    CARTESIAN Z    -0.591321      0.368685  KCAL/ANGSTROM
      4          2  C    CARTESIAN X    -1.259544     -1.341858  KCAL/ANGSTROM
      5          2  C    CARTESIAN Y     1.216105      1.199794  KCAL/ANGSTROM
      6          2  C    CARTESIAN Z     0.277253      0.393937  KCAL/ANGSTROM
      7          3  C    CARTESIAN X     0.242202      0.108944  KCAL/ANGSTROM
      8          3  C    CARTESIAN Y     1.411315      1.143250  KCAL/ANGSTROM
      9          3  C    CARTESIAN Z    -0.041225      2.632317  KCAL/ANGSTROM
     10          4  C    CARTESIAN X     0.824909      2.095644  KCAL/ANGSTROM
     11          4  C    CARTESIAN Y     0.038098     -0.241049  KCAL/ANGSTROM
     12          4  C    CARTESIAN Z    -0.317123     -4.752545  KCAL/ANGSTROM
     13          5  C    CARTESIAN X     2.218337      1.578365  KCAL/ANGSTROM
     14          5  C    CARTESIAN Y    -0.346391     -0.298627  KCAL/ANGSTROM
     15          5  C    CARTESIAN Z     0.022816     -1.076728  KCAL/ANGSTROM
     16          6  O    CARTESIAN X     1.825197     -1.505336  KCAL/ANGSTROM
     17          6  O    CARTESIAN Y    -0.059320     -0.653037  KCAL/ANGSTROM
     18          6  O    CARTESIAN Z    -1.327086      4.406149  KCAL/ANGSTROM
     19          7  C    CARTESIAN X    -0.296877     -0.155484  KCAL/ANGSTROM
     20          7  C    CARTESIAN Y    -0.962820     -1.975022  KCAL/ANGSTROM
     21          7  C    CARTESIAN Z    -0.410948      0.335847  KCAL/ANGSTROM
     22          8  N    CARTESIAN X    -0.983612     -2.226624  KCAL/ANGSTROM
     23          8  N    CARTESIAN Y    -1.193325     -3.469549  KCAL/ANGSTROM
     24          8  N    CARTESIAN Z     0.882532      0.278930  KCAL/ANGSTROM
     25          9  C    CARTESIAN X    -1.593038     -2.964453  KCAL/ANGSTROM
     26          9  C    CARTESIAN Y    -0.242962     -1.464168  KCAL/ANGSTROM
     27          9  C    CARTESIAN Z    -0.072314     -0.406546  KCAL/ANGSTROM
     28         10  H    CARTESIAN X    -2.905608      5.638401  KCAL/ANGSTROM
     29         10  H    CARTESIAN Y     2.079791      0.089516  KCAL/ANGSTROM
     30         10  H    CARTESIAN Z    -0.419797     -0.692934  KCAL/ANGSTROM
     31         11  H    CARTESIAN X    -1.516497      0.825079  KCAL/ANGSTROM
     32         11  H    CARTESIAN Y     1.463214     -1.048715  KCAL/ANGSTROM
     33         11  H    CARTESIAN Z     1.327086     -0.232669  KCAL/ANGSTROM
     34         12  H    CARTESIAN X     0.762693     -0.805215  KCAL/ANGSTROM
     35         12  H    CARTESIAN Y     1.925359     -0.810958  KCAL/ANGSTROM
     36         12  H    CARTESIAN Z     0.782468     -0.669453  KCAL/ANGSTROM
     37         13  H    CARTESIAN X     0.351862     -0.891462  KCAL/ANGSTROM
     38         13  H    CARTESIAN Y     2.062812     -0.436914  KCAL/ANGSTROM
     39         13  H    CARTESIAN Z    -0.936882     -1.202323  KCAL/ANGSTROM
     40         14  H    CARTESIAN X     2.482608     -0.601048  KCAL/ANGSTROM
     41         14  H    CARTESIAN Y    -1.382530      1.358109  KCAL/ANGSTROM
     42         14  H    CARTESIAN Z     0.217834     -0.106187  KCAL/ANGSTROM
     43         15  H    CARTESIAN X     2.905608     -0.948810  KCAL/ANGSTROM
     44         15  H    CARTESIAN Y     0.369517     -0.802266  KCAL/ANGSTROM
     45         15  H    CARTESIAN Z     0.466343     -0.429946  KCAL/ANGSTROM
     46         16  H    CARTESIAN X    -0.193499      0.634314  KCAL/ANGSTROM
     47         16  H    CARTESIAN Y    -1.743730      2.103797  KCAL/ANGSTROM
     48         16  H    CARTESIAN Z    -1.161102      0.283142  KCAL/ANGSTROM
     49         17  H    CARTESIAN X    -1.442968      2.482145  KCAL/ANGSTROM
     50         17  H    CARTESIAN Y    -2.090138      3.792218  KCAL/ANGSTROM
     51         17  H    CARTESIAN Z     0.987609      0.840569  KCAL/ANGSTROM
     52         18  H    CARTESIAN X    -2.542687      2.414284  KCAL/ANGSTROM
     53         18  H    CARTESIAN Y    -0.426222      0.959775  KCAL/ANGSTROM
     54         18  H    CARTESIAN Z    -0.562181      0.029752  KCAL/ANGSTROM




   ATOM   CHEMICAL          X               Y               Z
  NUMBER   SYMBOL      (ANGSTROMS)     (ANGSTROMS)     (ANGSTROMS)

     1       O         -1.94496077  *   2.09013766  *  -0.59132116  *
     2       C         -1.25954393  *   1.21610521  *   0.27725307  *
     3       C          0.24220154  *   1.41131500  *  -0.04122490  *
     4       C          0.82490930  *   0.03809804  *  -0.31712255  *
     5       C          2.21833680  *  -0.34639087  *   0.02281568  *
     6       O          1.82519746  *  -0.05931977  *  -1.32708646  *
     7       C         -0.29687679  *  -0.96282050  *  -0.41094834  *
     8       N         -0.98361159  *  -1.19332514  *   0.88253212  *
     9       C         -1.59303813  *  -0.24296236  *  -0.07231364  *
    10       H         -2.90560811  *   2.07979134  *  -0.41979685  *
    11       H         -1.51649745  *   1.46321425  *   1.32708646  *
    12       H          0.76269330  *   1.92535946  *   0.78246772  *
    13       H          0.35186224  *   2.06281192  *  -0.93688198  *
    14       H          2.48260838  *  -1.38252964  *   0.21783352  *
    15       H          2.90560811  *   0.36951712  *   0.46634337  *
    16       H         -0.19349860  *  -1.74373045  *  -1.16110244  *
    17       H         -1.44296750  *  -2.09013766  *   0.98760924  *
    18       H         -2.54268701  *  -0.42622239  *  -0.56218146  *

                             CARTESIAN COORDINATES

   1    O       -1.944960772     2.090137657    -0.591321160
   2    C       -1.259543928     1.216105210     0.277253074
   3    C        0.242201544     1.411314997    -0.041224898
   4    C        0.824909301     0.038098038    -0.317122555
   5    C        2.218336801    -0.346390871     0.022815684
   6    O        1.825197461    -0.059319768    -1.327086461
   7    C       -0.296876785    -0.962820496    -0.410948343
   8    N       -0.983611587    -1.193325137     0.882532122
   9    C       -1.593038126    -0.242962364    -0.072313640
  10    H       -2.905608107     2.079791340    -0.419796851
  11    H       -1.516497454     1.463214252     1.327086461
  12    H        0.762693298     1.925359456     0.782467722
  13    H        0.351862240     2.062811921    -0.936881981
  14    H        2.482608381    -1.382529642     0.217833519
  15    H        2.905608107     0.369517117     0.466343370
  16    H       -0.193498604    -1.743730451    -1.161102444
  17    H       -1.442967504    -2.090137657     0.987609242
  18    H       -2.542687008    -0.426222392    -0.562181458


           Empirical Formula: C6 H9 N O2  =    18 atoms



      MOLECULAR POINT GROUP   :   C1  


                  EIGENVALUES  
 -37.05553 -32.23474 -30.02015 -27.83297 -24.31702 -24.00258 -22.85975 -20.26426
 -19.40893 -18.69791 -17.58406 -16.63638 -16.10452 -15.18052 -14.66243 -14.61117
 -13.79945 -13.46140 -13.07002 -12.71881 -12.03282 -11.55056 -11.39068 -11.07805
 -10.28214   1.57074   1.86845   2.11932   2.34382   2.89702   3.03445   3.28865
   3.45549   3.82003   4.03507   4.14161   5.21903   5.36964   5.46808   5.53810
   5.57556   5.68277   5.91645   6.24106   6.31247


              NET ATOMIC CHARGES AND DIPOLE CONTRIBUTIONS

  ATOM NO.   TYPE          CHARGE      No. of ELECS.   s-Pop       p-Pop       
    1          O          -0.624638        6.6246     1.84136     4.78328
    2          C           0.189949        3.8101     1.09016     2.71989
    3          C          -0.340416        4.3404     1.07383     3.26659
    4          C           0.190325        3.8097     1.07068     2.73900
    5          C          -0.130099        4.1301     1.09677     3.03333
    6          O          -0.421729        6.4217     1.91763     4.50410
    7          C          -0.097520        4.0975     1.07558     3.02194
    8          N          -0.530100        5.5301     1.72516     3.80494
    9          C          -0.114088        4.1141     1.08801     3.02608
   10          H           0.363029        0.6370     0.63697
   11          H           0.147247        0.8528     0.85275
   12          H           0.176114        0.8239     0.82389
   13          H           0.190038        0.8100     0.80996
   14          H           0.168523        0.8315     0.83148
   15          H           0.168428        0.8316     0.83157
   16          H           0.186858        0.8131     0.81314
   17          H           0.295396        0.7046     0.70460
   18          H           0.182684        0.8173     0.81732
 DIPOLE           X         Y         Z       TOTAL
 POINT-CHG.    -1.787    -1.027     2.896     3.555
 HYBRID        -0.629    -0.662    -1.133     1.455
 SUM           -2.416    -1.689     1.763     3.435


          ATOMIC ORBITAL ELECTRON POPULATIONS

     Atom    s        px        py        pz   
    1  O   1.84136   1.39521   1.70603   1.68204
    2  C   1.09016   0.89746   0.85285   0.96958
    3  C   1.07383   1.02565   1.04863   1.19230
    4  C   1.07068   0.87365   0.96410   0.90125
    5  C   1.09677   1.03346   1.15414   0.84573
    6  O   1.91763   1.39891   1.92263   1.18256
    7  C   1.07558   0.96340   1.08163   0.97691
    8  N   1.72516   1.27505   1.26124   1.26864
    9  C   1.08801   1.04747   0.96449   1.01412
   10  H   0.63697
   11  H   0.85275
   12  H   0.82389
   13  H   0.80996
   14  H   0.83148
   15  H   0.83157
   16  H   0.81314
   17  H   0.70460
   18  H   0.81732

 **********************
 *                    *
 * JOB ENDED NORMALLY *
 *                    *
 **********************



 TOTAL JOB TIME:             1.13 SECONDS

 == MOPAC DONE ==
