 *******************************************************************************
 **                                                                           **
 **                              MOPAC v23.2                                  **
 **                                                                           **
 *******************************************************************************
 **          Digital Object Identifier (DOI): 10.5281/zenodo.6511958          **
 **    Visit the DOI location for information on how to cite this program.    **
 *******************************************************************************

                              PM7 CALCULATION RESULTS

 *******************************************************************************
 *  CALCULATION DONE: (MAX THREADS = 40)             Fri Sep 19 21:32:43 2025  *
 *  PM7        - The PM7 Hamiltonian to be used
 *
 *
 *
 *                 CHARGE ON SYSTEM = +1
 *
 *
 *
 *  EPS=37.5   - USE ANDREAS KLAMT'S COSMO IMPLICIT SOLVATION MODEL
 *  1SCF       - DO 1 SCF AND THEN STOP 
 *  T=         - A TIME OF 172800.0 SECONDS REQUESTED
 *  DUMP=N     - RESTART FILE WRITTEN EVERY 7200.0 SECONDS REQUESTED
 *  RELSCF     - DEFAULT SCF CRITERION MULTIPLIED BY 0.0001
 *              (DEFAULT SCF CRITERION = 0.00010)
 *  GRADIENTS  - ALL GRADIENTS TO BE PRINTED
 *  DISP       - PRINT DISPERSION AND HYDROGEN BOND ENERGIES
 *******************************************************************************
PM7 1SCF GRADIENTS EPS=37.5 DISP RELSCF=0.0001 CHARGE=1
 Title: ASE calculation

   ATOM   CHEMICAL          X               Y               Z
  NUMBER   SYMBOL      (ANGSTROMS)     (ANGSTROMS)     (ANGSTROMS)

     1       C         -1.70663854  *  -2.19222978  *   0.21684349  *
     2       C         -2.15314907  *  -0.77702908  *  -0.13228653  *
     3       C         -0.99197661  *   0.11742562  *  -0.59399648  *
     4       C         -1.50500340  *   1.54668375  *  -0.89703557  *
     5       O         -1.57449955  *   2.18937359  *   0.35960888  *
     6       C          0.03973494  *   0.25706934  *   0.50976125  *
     7       C          1.39761290  *   0.98052218  *   0.28964152  *
     8       N          1.29864998  *  -0.43572448  *   0.40771614  *
     9       C          1.97219639  *  -1.62832040  *   0.11636502  *
    10       H         -2.57902163  *  -2.81415785  *   0.48577093  *
    11       H         -1.22141413  *  -2.69481652  *  -0.62721293  *
    12       H         -1.03591439  *  -2.22156988  *   1.08003879  *
    13       H         -2.92286821  *  -0.82209742  *  -0.93441069  *
    14       H         -2.66821890  *  -0.31216091  *   0.73630343  *
    15       H         -0.54779714  *  -0.31015562  *  -1.52502896  *
    16       H         -2.48903732  *   1.52883748  *  -1.39887718  *
    17       H         -0.78907917  *   2.12021997  *  -1.51645063  *
    18       H         -2.33084833  *   2.81415785  *   0.40391376  *
    19       H         -0.42211216  *   0.33449252  *   1.52502896  *
    20       H          1.67641102  *   1.43909682  *  -0.67141859  *
    21       H          1.84113108  *   1.56738785  *   1.11598643  *
    22       H          2.92286821  *  -1.71492547  *   0.70891377  *
    23       H          1.34770586  *  -2.52870399  *   0.32956907  *
    24       H          2.28728493  *  -1.67823932  *  -0.96086670  *



          CARTESIAN COORDINATES 

    NO.       ATOM           X           Y           Z

     1         C         -1.7066     -2.1922      0.2168
     2         C         -2.1531     -0.7770     -0.1323
     3         C         -0.9920      0.1174     -0.5940
     4         C         -1.5050      1.5467     -0.8970
     5         O         -1.5745      2.1894      0.3596
     6         C          0.0397      0.2571      0.5098
     7         C          1.3976      0.9805      0.2896
     8         N          1.2986     -0.4357      0.4077
     9         C          1.9722     -1.6283      0.1164
    10         H         -2.5790     -2.8142      0.4858
    11         H         -1.2214     -2.6948     -0.6272
    12         H         -1.0359     -2.2216      1.0800
    13         H         -2.9229     -0.8221     -0.9344
    14         H         -2.6682     -0.3122      0.7363
    15         H         -0.5478     -0.3102     -1.5250
    16         H         -2.4890      1.5288     -1.3989
    17         H         -0.7891      2.1202     -1.5165
    18         H         -2.3308      2.8142      0.4039
    19         H         -0.4221      0.3345      1.5250
    20         H          1.6764      1.4391     -0.6714
    21         H          1.8411      1.5674      1.1160
    22         H          2.9229     -1.7149      0.7089
    23         H          1.3477     -2.5287      0.3296
    24         H          2.2873     -1.6782     -0.9609

 General Reference for PM7:
 "Optimization of Parameters for Semiempirical Methods VI: More Modifications to the 
 NDDO Approximations and Re-optimization of Parameters", J. J. P. Stewart, J. Mol. Mod., 1:32, 19 (2013)
 https://link.springer.com/article/10.1007/s00894-012-1667-x

           Empirical Formula: C7 H15 N O  =    24 atoms



      MOLECULAR POINT GROUP   :   C1  


          UHF CALCULATION, NO. OF ALPHA ELECTRONS =   27
                           NO. OF BETA  ELECTRONS =   26
  SCF CRITERION =    0.1000E-07

 -------------------------------------------------------------------------------
 PM7 1SCF GRADIENTS EPS=37.5 DISP RELSCF=0.0001 CHARGE=1
 Title: ASE calculation



     1SCF WAS SPECIFIED, SO BFGS WAS NOT USED                 
     SCF FIELD WAS ACHIEVED                                   


                              PM7 CALCULATION
                                                       MOPAC v23.2 Linux
                                                       Fri Sep 19 21:32:45 2025




          FINAL HEAT OF FORMATION =        102.20724 KCAL/MOL =     427.63509 KJ/MOL

          TOTAL ENERGY            =     -35448.51413 KCAL/MOL = ELECTRONIC ENERGY + CORE-CORE REPULSION + SOLVATION ENERGY
          ENERGY OF ATOMS         =      35553.47302 KCAL/MOL
                              SUM =        104.95889 KCAL/MOL
          DISPERSION ENERGY       =         -2.75165 KCAL/MOL
                              SUM =        102.20724 KCAL/MOL = FINAL HEAT OF FORMATION

          VAN DER WAALS AREA      =        180.08 SQUARE ANGSTROMS


          TOTAL ENERGY            =      -1537.19306 EV
          ELECTRONIC ENERGY       =      -2470.17966 EV 
          CORE-CORE REPULSION     =        932.98660 EV

          DIELECTRIC ENERGY       =         -2.29157 EV
          COSMO AREA              =        180.08 SQUARE ANGSTROMS
          COSMO VOLUME            =        186.82 CUBIC ANGSTROMS

          GRADIENT NORM           =         14.33185          =       2.92548 PER ATOM
          IONIZATION POTENTIAL    =         10.974268 EV
          ALPHA SOMO LUMO (EV)    =        -10.974 -0.289
          BETA  SOMO LUMO (EV)    =        -10.975 -2.023
          NO. OF ALPHA ELECTRONS  =         27
          NO. OF BETA  ELECTRONS  =         26
          MOLECULAR WEIGHT        =        129.2016         POINT GROUP:  C1  

          MOLECULAR DIMENSIONS (Angstroms)

            Atom       Atom       Distance
            H    22    H    18     6.94314
            H    10    H    21     6.23446
            H    19    H    17     3.06950


          SCF CALCULATIONS        =          2

          WALL-CLOCK TIME         =      1.852 SECONDS
          COMPUTATION TIME        =      0.641 SECONDS

          LARGEST ATOMIC GRADIENTS

          Atom     Label                     Cartesian Gradients           Cartesian Coordinates       |Gradient|
                                           X          Y          Z        X          Y          Z

             9       C                   5.512     -1.579     -2.661    1.97220   -1.62832    0.11637      6.321
             1       C                   5.404      2.426     -0.434   -1.70664   -2.19223    0.21684      5.940
             4       C                  -1.197      4.247      2.014   -1.50500    1.54668   -0.89704      4.850
             7       C                   3.930      1.973     -0.918    1.39761    0.98052    0.28964      4.492
             5       O                   1.047     -3.713     -2.144   -1.57450    2.18937    0.35961      4.414
             8       N                  -2.494     -1.533      1.420    1.29865   -0.43572    0.40772      3.254
             6       C                  -2.344      1.749      0.755    0.03973    0.25707    0.50976      3.020
             3       C                   0.844     -1.773     -1.857   -0.99198    0.11743   -0.59400      2.702
            19       H                  -2.081      1.344      0.580   -0.42211    0.33449    1.52503      2.544
            11       H                  -1.894     -1.091     -0.215   -1.22141   -2.69482   -0.62721      2.197



       FINAL  POINT  AND  DERIVATIVES

   PARAMETER     ATOM    TYPE            VALUE        GRADIENT
      1          1  C    CARTESIAN X    -1.706639      5.404417  KCAL/ANGSTROM
      2          1  C    CARTESIAN Y    -2.192230      2.426230  KCAL/ANGSTROM
      3          1  C    CARTESIAN Z     0.216843     -0.433908  KCAL/ANGSTROM
      4          2  C    CARTESIAN X    -2.153149      1.455073  KCAL/ANGSTROM
      5          2  C    CARTESIAN Y    -0.777029     -0.347599  KCAL/ANGSTROM
      6          2  C    CARTESIAN Z    -0.132287      0.332823  KCAL/ANGSTROM
      7          3  C    CARTESIAN X    -0.991977      0.843806  KCAL/ANGSTROM
      8          3  C    CARTESIAN Y     0.117426     -1.773126  KCAL/ANGSTROM
      9          3  C    CARTESIAN Z    -0.593996     -1.856510  KCAL/ANGSTROM
     10          4  C    CARTESIAN X    -1.505003     -1.197097  KCAL/ANGSTROM
     11          4  C    CARTESIAN Y     1.546684      4.247169  KCAL/ANGSTROM
     12          4  C    CARTESIAN Z    -0.897036      2.013537  KCAL/ANGSTROM
     13          5  O    CARTESIAN X    -1.574500      1.047360  KCAL/ANGSTROM
     14          5  O    CARTESIAN Y     2.189374     -3.713455  KCAL/ANGSTROM
     15          5  O    CARTESIAN Z     0.359609     -2.144287  KCAL/ANGSTROM
     16          6  C    CARTESIAN X     0.039735     -2.343714  KCAL/ANGSTROM
     17          6  C    CARTESIAN Y     0.257069      1.749211  KCAL/ANGSTROM
     18          6  C    CARTESIAN Z     0.509761      0.754978  KCAL/ANGSTROM
     19          7  C    CARTESIAN X     1.397613      3.929918  KCAL/ANGSTROM
     20          7  C    CARTESIAN Y     0.980522      1.973033  KCAL/ANGSTROM
     21          7  C    CARTESIAN Z     0.289642     -0.917543  KCAL/ANGSTROM
     22          8  N    CARTESIAN X     1.298650     -2.494103  KCAL/ANGSTROM
     23          8  N    CARTESIAN Y    -0.435724     -1.533001  KCAL/ANGSTROM
     24          8  N    CARTESIAN Z     0.407716      1.419624  KCAL/ANGSTROM
     25          9  C    CARTESIAN X     1.972196      5.511731  KCAL/ANGSTROM
     26          9  C    CARTESIAN Y    -1.628320     -1.579485  KCAL/ANGSTROM
     27          9  C    CARTESIAN Z     0.116365     -2.661214  KCAL/ANGSTROM
     28         10  H    CARTESIAN X    -2.579022     -1.803312  KCAL/ANGSTROM
     29         10  H    CARTESIAN Y    -2.814158     -0.933677  KCAL/ANGSTROM
     30         10  H    CARTESIAN Z     0.485771      0.391812  KCAL/ANGSTROM
     31         11  H    CARTESIAN X    -1.221414     -1.894209  KCAL/ANGSTROM
     32         11  H    CARTESIAN Y    -2.694817     -1.091226  KCAL/ANGSTROM
     33         11  H    CARTESIAN Z    -0.627213     -0.214813  KCAL/ANGSTROM
     34         12  H    CARTESIAN X    -1.035914     -1.876150  KCAL/ANGSTROM
     35         12  H    CARTESIAN Y    -2.221570     -0.737757  KCAL/ANGSTROM
     36         12  H    CARTESIAN Z     1.080039      0.541657  KCAL/ANGSTROM
     37         13  H    CARTESIAN X    -2.922868     -0.882021  KCAL/ANGSTROM
     38         13  H    CARTESIAN Y    -0.822097     -0.679932  KCAL/ANGSTROM
     39         13  H    CARTESIAN Z    -0.934411     -0.323616  KCAL/ANGSTROM
     40         14  H    CARTESIAN X    -2.668219     -1.155459  KCAL/ANGSTROM
     41         14  H    CARTESIAN Y    -0.312161      0.160989  KCAL/ANGSTROM
     42         14  H    CARTESIAN Z     0.736303      0.626543  KCAL/ANGSTROM
     43         15  H    CARTESIAN X    -0.547797     -1.065998  KCAL/ANGSTROM
     44         15  H    CARTESIAN Y    -0.310156      0.130447  KCAL/ANGSTROM
     45         15  H    CARTESIAN Z    -1.525029      0.334336  KCAL/ANGSTROM
     46         16  H    CARTESIAN X    -2.489037     -0.171063  KCAL/ANGSTROM
     47         16  H    CARTESIAN Y     1.528837     -0.496258  KCAL/ANGSTROM
     48         16  H    CARTESIAN Z    -1.398877     -0.907398  KCAL/ANGSTROM
     49         17  H    CARTESIAN X    -0.789079     -0.291023  KCAL/ANGSTROM
     50         17  H    CARTESIAN Y     2.120220      0.416667  KCAL/ANGSTROM
     51         17  H    CARTESIAN Z    -1.516451     -0.581103  KCAL/ANGSTROM
     52         18  H    CARTESIAN X    -2.330848      1.402636  KCAL/ANGSTROM
     53         18  H    CARTESIAN Y     2.814158      0.217008  KCAL/ANGSTROM
     54         18  H    CARTESIAN Z     0.403914      1.082042  KCAL/ANGSTROM
     55         19  H    CARTESIAN X    -0.422112     -2.080624  KCAL/ANGSTROM
     56         19  H    CARTESIAN Y     0.334493      1.343877  KCAL/ANGSTROM
     57         19  H    CARTESIAN Z     1.525029      0.580435  KCAL/ANGSTROM
     58         20  H    CARTESIAN X     1.676411     -0.642363  KCAL/ANGSTROM
     59         20  H    CARTESIAN Y     1.439097      1.144235  KCAL/ANGSTROM
     60         20  H    CARTESIAN Z    -0.671419      0.922747  KCAL/ANGSTROM
     61         21  H    CARTESIAN X     1.841131     -0.585948  KCAL/ANGSTROM
     62         21  H    CARTESIAN Y     1.567388      1.262652  KCAL/ANGSTROM
     63         21  H    CARTESIAN Z     1.115986      0.076679  KCAL/ANGSTROM
     64         22  H    CARTESIAN X     2.922868      0.438717  KCAL/ANGSTROM
     65         22  H    CARTESIAN Y    -1.714925     -0.649932  KCAL/ANGSTROM
     66         22  H    CARTESIAN Z     0.708914      0.793704  KCAL/ANGSTROM
     67         23  H    CARTESIAN X     1.347706     -0.826908  KCAL/ANGSTROM
     68         23  H    CARTESIAN Y    -2.528704     -1.045222  KCAL/ANGSTROM
     69         23  H    CARTESIAN Z     0.329569      0.330797  KCAL/ANGSTROM
     70         24  H    CARTESIAN X     2.287285     -0.723668  KCAL/ANGSTROM
     71         24  H    CARTESIAN Y    -1.678239     -0.490850  KCAL/ANGSTROM
     72         24  H    CARTESIAN Z    -0.960867     -0.161323  KCAL/ANGSTROM




   ATOM   CHEMICAL          X               Y               Z
  NUMBER   SYMBOL      (ANGSTROMS)     (ANGSTROMS)     (ANGSTROMS)

     1       C         -1.70663854  *  -2.19222978  *   0.21684349  *
     2       C         -2.15314907  *  -0.77702908  *  -0.13228653  *
     3       C         -0.99197661  *   0.11742562  *  -0.59399648  *
     4       C         -1.50500340  *   1.54668375  *  -0.89703557  *
     5       O         -1.57449955  *   2.18937359  *   0.35960888  *
     6       C          0.03973494  *   0.25706934  *   0.50976125  *
     7       C          1.39761290  *   0.98052218  *   0.28964152  *
     8       N          1.29864998  *  -0.43572448  *   0.40771614  *
     9       C          1.97219639  *  -1.62832040  *   0.11636502  *
    10       H         -2.57902163  *  -2.81415785  *   0.48577093  *
    11       H         -1.22141413  *  -2.69481652  *  -0.62721293  *
    12       H         -1.03591439  *  -2.22156988  *   1.08003879  *
    13       H         -2.92286821  *  -0.82209742  *  -0.93441069  *
    14       H         -2.66821890  *  -0.31216091  *   0.73630343  *
    15       H         -0.54779714  *  -0.31015562  *  -1.52502896  *
    16       H         -2.48903732  *   1.52883748  *  -1.39887718  *
    17       H         -0.78907917  *   2.12021997  *  -1.51645063  *
    18       H         -2.33084833  *   2.81415785  *   0.40391376  *
    19       H         -0.42211216  *   0.33449252  *   1.52502896  *
    20       H          1.67641102  *   1.43909682  *  -0.67141859  *
    21       H          1.84113108  *   1.56738785  *   1.11598643  *
    22       H          2.92286821  *  -1.71492547  *   0.70891377  *
    23       H          1.34770586  *  -2.52870399  *   0.32956907  *
    24       H          2.28728493  *  -1.67823932  *  -0.96086670  *

                             CARTESIAN COORDINATES

   1    C       -1.706638539    -2.192229785     0.216843485
   2    C       -2.153149072    -0.777029081    -0.132286526
   3    C       -0.991976615     0.117425617    -0.593996481
   4    C       -1.505003397     1.546683752    -0.897035572
   5    O       -1.574499553     2.189373595     0.359608878
   6    C        0.039734945     0.257069338     0.509761254
   7    C        1.397612895     0.980522178     0.289641522
   8    N        1.298649978    -0.435724475     0.407716135
   9    C        1.972196395    -1.628320397     0.116365021
  10    H       -2.579021628    -2.814157855     0.485770925
  11    H       -1.221414127    -2.694816524    -0.627212930
  12    H       -1.035914394    -2.221569878     1.080038789
  13    H       -2.922868211    -0.822097420    -0.934410694
  14    H       -2.668218898    -0.312160912     0.736303434
  15    H       -0.547797139    -0.310155622    -1.525028957
  16    H       -2.489037324     1.528837479    -1.398877181
  17    H       -0.789079165     2.120219973    -1.516450632
  18    H       -2.330848334     2.814157855     0.403913755
  19    H       -0.422112160     0.334492522     1.525028957
  20    H        1.676411023     1.439096818    -0.671418588
  21    H        1.841131081     1.567387846     1.115986428
  22    H        2.922868211    -1.714925474     0.708913774
  23    H        1.347705862    -2.528703989     0.329569075
  24    H        2.287284929    -1.678239316    -0.960866703


           Empirical Formula: C7 H15 N O  =    24 atoms



      MOLECULAR POINT GROUP   :   C1  


          ALPHA EIGENVALUES  
 -39.42858 -30.40770 -28.87396 -28.33494 -25.67138 -23.15090 -22.62312 -21.63864
 -20.25075 -18.82528 -18.20566 -17.54462 -16.75516 -15.93930 -15.54605 -15.38392
 -14.89642 -14.20695 -13.69058 -13.32227 -13.21595 -13.05341 -12.44532 -12.19189
 -11.89060 -11.57828 -10.97427  -0.28890   0.96953   2.28955   2.48562   2.89311
   3.29868   3.64201   3.89412   4.22167   4.32080   4.49582   4.53288   4.78805
   4.96550   5.19195   5.24301   5.25874   5.43671   5.57480   5.59518   5.82445
   5.97808   6.27730   6.80164


           BETA EIGENVALUES 
 -37.89913 -30.32885 -28.73399 -28.17299 -25.64521 -23.01077 -22.18196 -21.60709
 -19.98266 -18.59633 -17.67639 -17.09869 -16.52513 -15.87982 -15.51809 -15.17296
 -14.59513 -14.12050 -13.55927 -13.27780 -13.13054 -12.98310 -12.22255 -12.17673
 -11.87226 -10.97480  -2.02314   0.37851   1.12268   2.47050   2.50955   2.94071
   3.32122   3.81363   4.21449   4.26959   4.47020   4.60045   4.67171   4.83113
   5.02236   5.19838   5.24814   5.34495   5.43957   5.57573   5.59661   5.82497
   5.97898   6.27803   6.80182


              NET ATOMIC CHARGES AND DIPOLE CONTRIBUTIONS

  ATOM NO.   TYPE          CHARGE      No. of ELECS.   s-Pop       p-Pop       
    1          C          -0.458992        4.4590     1.05301     3.40598
    2          C          -0.264390        4.2644     1.05926     3.20513
    3          C          -0.163647        4.1636     1.07466     3.08898
    4          C           0.017183        3.9828     1.09078     2.89204
    5          O          -0.618553        6.6186     1.84332     4.77523
    6          C           0.012902        3.9871     1.10391     2.88319
    7          C          -0.199476        4.1995     1.09684     3.10264
    8          N          -0.010361        5.0104     1.54676     3.46360
    9          C          -0.283822        4.2838     1.06914     3.21468
   10          H           0.161310        0.8387     0.83869
   11          H           0.153016        0.8470     0.84698
   12          H           0.146498        0.8535     0.85350
   13          H           0.158777        0.8412     0.84122
   14          H           0.158125        0.8419     0.84187
   15          H           0.174309        0.8257     0.82569
   16          H           0.146102        0.8539     0.85390
   17          H           0.138666        0.8613     0.86133
   18          H           0.362098        0.6379     0.63790
   19          H           0.233331        0.7667     0.76667
   20          H           0.224845        0.7752     0.77515
   21          H           0.232959        0.7670     0.76704
   22          H           0.234640        0.7654     0.76536
   23          H           0.207808        0.7922     0.79219
   24          H           0.236671        0.7633     0.76333
 DIPOLE           X         Y         Z       TOTAL
 POINT-CHG.     5.548    -1.601    -1.346     5.930
 HYBRID         0.213     0.001     0.317     0.382
 SUM            5.761    -1.600    -1.029     6.067


          ATOMIC ORBITAL ELECTRON POPULATIONS

     Atom    s        px        py        pz   
    1  C   1.05301   1.18147   1.05319   1.17132
    2  C   1.05926   1.04225   0.99760   1.16528
    3  C   1.07466   1.00630   1.03869   1.04400
    4  C   1.09078   1.12879   0.92564   0.83761
    5  O   1.84332   1.64591   1.68672   1.44260
    6  C   1.10391   0.85813   0.89054   1.13451
    7  C   1.09684   1.04026   0.84498   1.21740
    8  N   1.54676   1.20736   1.10433   1.15192
    9  C   1.06914   1.12342   0.90371   1.18755
   10  H   0.83869
   11  H   0.84698
   12  H   0.85350
   13  H   0.84122
   14  H   0.84187
   15  H   0.82569
   16  H   0.85390
   17  H   0.86133
   18  H   0.63790
   19  H   0.76667
   20  H   0.77515
   21  H   0.76704
   22  H   0.76536
   23  H   0.79219
   24  H   0.76333


                    (SZ)    =    0.500000
                    (S**2)  =    0.762487


          ATOMIC ORBITAL SPIN POPULATIONS

    Atom   Total    s     px     py     pz   
         Atomic
    1  C  0.0002  0.000  0.000  0.000  0.000
    2  C -0.0012 -0.000 -0.001 -0.000 -0.000
    3  C  0.0301  0.003  0.013  0.001  0.012
    4  C -0.0014 -0.000  0.000 -0.001 -0.000
    5  O  0.0004 -0.000  0.000 -0.000  0.000
    6  C -0.0614 -0.005 -0.016 -0.038 -0.003
    7  C -0.0520 -0.005 -0.003 -0.046  0.002
    8  N  0.9471  0.050  0.084  0.046  0.767
    9  C -0.0317 -0.006 -0.017 -0.025  0.016
   10  H -0.0000 -0.000
   11  H -0.0000 -0.000
   12  H -0.0000 -0.000
   13  H  0.0005  0.001
   14  H  0.0001  0.000
   15  H -0.0019 -0.002
   16  H  0.0011  0.001
   17  H  0.0000  0.000
   18  H -0.0001 -0.000
   19  H  0.0216  0.022
   20  H  0.0263  0.026
   21  H  0.0280  0.028
   22  H  0.0339  0.034
   23  H  0.0031  0.003
   24  H  0.0572  0.057

 **********************
 *                    *
 * JOB ENDED NORMALLY *
 *                    *
 **********************



 TOTAL JOB TIME:             2.24 SECONDS

 == MOPAC DONE ==
