 *******************************************************************************
 **                                                                           **
 **                              MOPAC v23.2                                  **
 **                                                                           **
 *******************************************************************************
 **          Digital Object Identifier (DOI): 10.5281/zenodo.6511958          **
 **    Visit the DOI location for information on how to cite this program.    **
 *******************************************************************************

                              PM7 CALCULATION RESULTS

 *******************************************************************************
 *  CALCULATION DONE: (MAX THREADS = 40)             Fri Sep 19 21:54:02 2025  *
 *  PM7        - The PM7 Hamiltonian to be used
 *  1SCF       - DO 1 SCF AND THEN STOP 
 *  T=         - A TIME OF 172800.0 SECONDS REQUESTED
 *  DUMP=N     - RESTART FILE WRITTEN EVERY 7200.0 SECONDS REQUESTED
 *  RELSCF     - DEFAULT SCF CRITERION MULTIPLIED BY 0.0001
 *              (DEFAULT SCF CRITERION = 0.00010)
 *  GRADIENTS  - ALL GRADIENTS TO BE PRINTED
 *  DISP       - PRINT DISPERSION AND HYDROGEN BOND ENERGIES
 *******************************************************************************
PM7 1SCF GRADIENTS DISP RELSCF=0.0001
 Title: ASE calculation

   ATOM   CHEMICAL          X               Y               Z
  NUMBER   SYMBOL      (ANGSTROMS)     (ANGSTROMS)     (ANGSTROMS)

     1       C          1.94849998  *  -1.79715750  *  -0.31006272  *
     2       C          1.14256988  *  -0.56669400  *  -0.34864087  *
     3       C          1.54832933  *   0.70354645  *  -0.51971393  *
     4       C          0.39060487  *   1.64033615  *  -0.48326866  *
     5       O         -0.30879086  *   1.59478929  *   0.77458260  *
     6       C         -0.84600955  *   0.79816237  *  -0.28478770  *
     7       C         -2.22658739  *   1.09733470  *  -0.73517415  *
     8       C         -0.37528574  *  -0.66895389  *  -0.16526821  *
     9       O         -0.69878652  *  -1.20918695  *   1.08475204  *
    10       H          1.66132392  *  -2.49279621  *  -1.11454206  *
    11       H          1.79185067  *  -2.33997025  *   0.63955619  *
    12       H          3.02659214  *  -1.60944292  *  -0.40564735  *
    13       H          2.54865599  *   1.06256961  *  -0.66495072  *
    14       H          0.43512101  *   2.60922371  *  -0.95869564  *
    15       H         -2.96706975  *   0.54918928  *  -0.12932320  *
    16       H         -2.38450741  *   0.81622221  *  -1.78563441  *
    17       H         -2.46821426  *   2.16650473  *  -0.63549614  *
    18       H         -0.86076720  *  -1.35153668  *  -0.88912539  *
    19       H         -0.44239271  *  -0.57805651  *   1.79944038  *



          CARTESIAN COORDINATES 

    NO.       ATOM           X           Y           Z

     1         C          1.9485     -1.7972     -0.3101
     2         C          1.1426     -0.5667     -0.3486
     3         C          1.5483      0.7035     -0.5197
     4         C          0.3906      1.6403     -0.4833
     5         O         -0.3088      1.5948      0.7746
     6         C         -0.8460      0.7982     -0.2848
     7         C         -2.2266      1.0973     -0.7352
     8         C         -0.3753     -0.6690     -0.1653
     9         O         -0.6988     -1.2092      1.0848
    10         H          1.6613     -2.4928     -1.1145
    11         H          1.7919     -2.3400      0.6396
    12         H          3.0266     -1.6094     -0.4056
    13         H          2.5487      1.0626     -0.6650
    14         H          0.4351      2.6092     -0.9587
    15         H         -2.9671      0.5492     -0.1293
    16         H         -2.3845      0.8162     -1.7856
    17         H         -2.4682      2.1665     -0.6355
    18         H         -0.8608     -1.3515     -0.8891
    19         H         -0.4424     -0.5781      1.7994

 General Reference for PM7:
 "Optimization of Parameters for Semiempirical Methods VI: More Modifications to the 
 NDDO Approximations and Re-optimization of Parameters", J. J. P. Stewart, J. Mol. Mod., 1:32, 19 (2013)
 https://link.springer.com/article/10.1007/s00894-012-1667-x

           Empirical Formula: C7 H10 O2  =    19 atoms



      MOLECULAR POINT GROUP   :   C1  


      RHF CALCULATION, NO. OF DOUBLY OCCUPIED LEVELS = 25

  SCF CRITERION =    0.1000E-07

 -------------------------------------------------------------------------------
 PM7 1SCF GRADIENTS DISP RELSCF=0.0001
 Title: ASE calculation



     1SCF WAS SPECIFIED, SO BFGS WAS NOT USED                 
     SCF FIELD WAS ACHIEVED                                   


                              PM7 CALCULATION
                                                       MOPAC v23.2 Linux
                                                       Fri Sep 19 21:54:03 2025




          FINAL HEAT OF FORMATION =        -49.51417 KCAL/MOL =    -207.16730 KJ/MOL

          TOTAL ENERGY            =     -36530.12664 KCAL/MOL = ELECTRONIC ENERGY + CORE-CORE REPULSION
          ENERGY OF ATOMS         =      36482.50324 KCAL/MOL
                              SUM =        -47.62340 KCAL/MOL
          DISPERSION ENERGY       =         -1.77523 KCAL/MOL
          H-BOND ENERGY           =         -0.11555 KCAL/MOL
                              SUM =        -49.51417 KCAL/MOL = FINAL HEAT OF FORMATION



          TOTAL ENERGY            =      -1584.09622 EV
          ELECTRONIC ENERGY       =      -7675.55878 EV 
          CORE-CORE REPULSION     =       6091.46256 EV
          COSMO AREA              =        160.52 SQUARE ANGSTROMS
          COSMO VOLUME            =        159.73 CUBIC ANGSTROMS

          GRADIENT NORM           =          1.12004          =       0.25695 PER ATOM
          IONIZATION POTENTIAL    =          9.875414 EV
          HOMO LUMO ENERGIES (EV) =         -9.875  0.369
          NO. OF FILLED LEVELS    =         25
          MOLECULAR WEIGHT        =        126.1548         POINT GROUP:  C1  

          MOLECULAR DIMENSIONS (Angstroms)

            Atom       Atom       Distance
            H    17    H    12     6.67110
            O     9    H    14     4.28458
            H    16    H    19     3.07288


          SCF CALCULATIONS        =          1

          WALL-CLOCK TIME         =      0.797 SECONDS
          COMPUTATION TIME        =      0.712 SECONDS

          LARGEST ATOMIC GRADIENTS

          Atom     Label                     Cartesian Gradients           Cartesian Coordinates       |Gradient|
                                           X          Y          Z        X          Y          Z

             5       O                   0.223      0.219     -0.284   -0.30879    1.59479    0.77458      0.422
            10       H                  -0.346      0.106      0.138    1.66132   -2.49280   -1.11454      0.388
             3       C                  -0.099      0.193      0.267    1.54833    0.70355   -0.51971      0.344
             6       C                   0.089     -0.297      0.143   -0.84601    0.79816   -0.28479      0.342
            11       H                   0.233     -0.026     -0.204    1.79185   -2.33997    0.63956      0.310
            12       H                  -0.078     -0.266     -0.031    3.02659   -1.60944   -0.40565      0.279
            19       H                  -0.237     -0.079     -0.080   -0.44239   -0.57806    1.79944      0.262
             4       C                  -0.095      0.161      0.172    0.39060    1.64034   -0.48327      0.254
            15       H                   0.130      0.195      0.069   -2.96707    0.54919   -0.12932      0.244
            18       H                   0.208      0.092      0.047   -0.86077   -1.35154   -0.88913      0.232



       FINAL  POINT  AND  DERIVATIVES

   PARAMETER     ATOM    TYPE            VALUE        GRADIENT
      1          1  C    CARTESIAN X     1.948500     -0.035444  KCAL/ANGSTROM
      2          1  C    CARTESIAN Y    -1.797158      0.079032  KCAL/ANGSTROM
      3          1  C    CARTESIAN Z    -0.310063     -0.059247  KCAL/ANGSTROM
      4          2  C    CARTESIAN X     1.142570      0.074716  KCAL/ANGSTROM
      5          2  C    CARTESIAN Y    -0.566694      0.061596  KCAL/ANGSTROM
      6          2  C    CARTESIAN Z    -0.348641      0.024056  KCAL/ANGSTROM
      7          3  C    CARTESIAN X     1.548329     -0.098864  KCAL/ANGSTROM
      8          3  C    CARTESIAN Y     0.703546      0.192979  KCAL/ANGSTROM
      9          3  C    CARTESIAN Z    -0.519714      0.267392  KCAL/ANGSTROM
     10          4  C    CARTESIAN X     0.390605     -0.095449  KCAL/ANGSTROM
     11          4  C    CARTESIAN Y     1.640336      0.160884  KCAL/ANGSTROM
     12          4  C    CARTESIAN Z    -0.483269      0.172300  KCAL/ANGSTROM
     13          5  O    CARTESIAN X    -0.308791      0.222810  KCAL/ANGSTROM
     14          5  O    CARTESIAN Y     1.594789      0.219079  KCAL/ANGSTROM
     15          5  O    CARTESIAN Z     0.774583     -0.283709  KCAL/ANGSTROM
     16          6  C    CARTESIAN X    -0.846010      0.089383  KCAL/ANGSTROM
     17          6  C    CARTESIAN Y     0.798162     -0.297425  KCAL/ANGSTROM
     18          6  C    CARTESIAN Z    -0.284788      0.143309  KCAL/ANGSTROM
     19          7  C    CARTESIAN X    -2.226587      0.106804  KCAL/ANGSTROM
     20          7  C    CARTESIAN Y     1.097335     -0.146377  KCAL/ANGSTROM
     21          7  C    CARTESIAN Z    -0.735174     -0.008615  KCAL/ANGSTROM
     22          8  C    CARTESIAN X    -0.375286      0.178381  KCAL/ANGSTROM
     23          8  C    CARTESIAN Y    -0.668954     -0.064702  KCAL/ANGSTROM
     24          8  C    CARTESIAN Z    -0.165268     -0.003970  KCAL/ANGSTROM
     25          9  O    CARTESIAN X    -0.698787     -0.104134  KCAL/ANGSTROM
     26          9  O    CARTESIAN Y    -1.209187      0.115012  KCAL/ANGSTROM
     27          9  O    CARTESIAN Z     1.084752     -0.125558  KCAL/ANGSTROM
     28         10  H    CARTESIAN X     1.661324     -0.346157  KCAL/ANGSTROM
     29         10  H    CARTESIAN Y    -2.492796      0.106043  KCAL/ANGSTROM
     30         10  H    CARTESIAN Z    -1.114542      0.138291  KCAL/ANGSTROM
     31         11  H    CARTESIAN X     1.791851      0.232517  KCAL/ANGSTROM
     32         11  H    CARTESIAN Y    -2.339970     -0.026351  KCAL/ANGSTROM
     33         11  H    CARTESIAN Z     0.639556     -0.203832  KCAL/ANGSTROM
     34         12  H    CARTESIAN X     3.026592     -0.078162  KCAL/ANGSTROM
     35         12  H    CARTESIAN Y    -1.609443     -0.266029  KCAL/ANGSTROM
     36         12  H    CARTESIAN Z    -0.405647     -0.031101  KCAL/ANGSTROM
     37         13  H    CARTESIAN X     2.548656     -0.144201  KCAL/ANGSTROM
     38         13  H    CARTESIAN Y     1.062570     -0.050551  KCAL/ANGSTROM
     39         13  H    CARTESIAN Z    -0.664951      0.079980  KCAL/ANGSTROM
     40         14  H    CARTESIAN X     0.435121      0.063755  KCAL/ANGSTROM
     41         14  H    CARTESIAN Y     2.609224      0.010439  KCAL/ANGSTROM
     42         14  H    CARTESIAN Z    -0.958696     -0.182986  KCAL/ANGSTROM
     43         15  H    CARTESIAN X    -2.967070      0.130210  KCAL/ANGSTROM
     44         15  H    CARTESIAN Y     0.549189      0.194509  KCAL/ANGSTROM
     45         15  H    CARTESIAN Z    -0.129323      0.068844  KCAL/ANGSTROM
     46         16  H    CARTESIAN X    -2.384507     -0.033265  KCAL/ANGSTROM
     47         16  H    CARTESIAN Y     0.816222     -0.126953  KCAL/ANGSTROM
     48         16  H    CARTESIAN Z    -1.785634     -0.038513  KCAL/ANGSTROM
     49         17  H    CARTESIAN X    -2.468214     -0.133702  KCAL/ANGSTROM
     50         17  H    CARTESIAN Y     2.166505     -0.173439  KCAL/ANGSTROM
     51         17  H    CARTESIAN Z    -0.635496      0.076141  KCAL/ANGSTROM
     52         18  H    CARTESIAN X    -0.860767      0.207990  KCAL/ANGSTROM
     53         18  H    CARTESIAN Y    -1.351537      0.091588  KCAL/ANGSTROM
     54         18  H    CARTESIAN Z    -0.889125      0.046697  KCAL/ANGSTROM
     55         19  H    CARTESIAN X    -0.442393     -0.237180  KCAL/ANGSTROM
     56         19  H    CARTESIAN Y    -0.578057     -0.079341  KCAL/ANGSTROM
     57         19  H    CARTESIAN Z     1.799440     -0.079507  KCAL/ANGSTROM




   ATOM   CHEMICAL          X               Y               Z
  NUMBER   SYMBOL      (ANGSTROMS)     (ANGSTROMS)     (ANGSTROMS)

     1       C          1.94849998  *  -1.79715750  *  -0.31006272  *
     2       C          1.14256988  *  -0.56669400  *  -0.34864087  *
     3       C          1.54832933  *   0.70354645  *  -0.51971393  *
     4       C          0.39060487  *   1.64033615  *  -0.48326866  *
     5       O         -0.30879086  *   1.59478929  *   0.77458260  *
     6       C         -0.84600955  *   0.79816237  *  -0.28478770  *
     7       C         -2.22658739  *   1.09733470  *  -0.73517415  *
     8       C         -0.37528574  *  -0.66895389  *  -0.16526821  *
     9       O         -0.69878652  *  -1.20918695  *   1.08475204  *
    10       H          1.66132392  *  -2.49279621  *  -1.11454206  *
    11       H          1.79185067  *  -2.33997025  *   0.63955619  *
    12       H          3.02659214  *  -1.60944292  *  -0.40564735  *
    13       H          2.54865599  *   1.06256961  *  -0.66495072  *
    14       H          0.43512101  *   2.60922371  *  -0.95869564  *
    15       H         -2.96706975  *   0.54918928  *  -0.12932320  *
    16       H         -2.38450741  *   0.81622221  *  -1.78563441  *
    17       H         -2.46821426  *   2.16650473  *  -0.63549614  *
    18       H         -0.86076720  *  -1.35153668  *  -0.88912539  *
    19       H         -0.44239271  *  -0.57805651  *   1.79944038  *

                             CARTESIAN COORDINATES

   1    C        1.948499981    -1.797157501    -0.310062721
   2    C        1.142569880    -0.566694004    -0.348640871
   3    C        1.548329332     0.703546447    -0.519713930
   4    C        0.390604866     1.640336145    -0.483268661
   5    O       -0.308790858     1.594789290     0.774582599
   6    C       -0.846009550     0.798162367    -0.284787700
   7    C       -2.226587389     1.097334697    -0.735174152
   8    C       -0.375285742    -0.668953889    -0.165268206
   9    O       -0.698786519    -1.209186951     1.084752040
  10    H        1.661323923    -2.492796208    -1.114542057
  11    H        1.791850667    -2.339970251     0.639556191
  12    H        3.026592144    -1.609442918    -0.405647355
  13    H        2.548655986     1.062569610    -0.664950723
  14    H        0.435121014     2.609223711    -0.958695644
  15    H       -2.967069749     0.549189282    -0.129323198
  16    H       -2.384507407     0.816222213    -1.785634405
  17    H       -2.468214259     2.166504733    -0.635496137
  18    H       -0.860767201    -1.351536676    -0.889125386
  19    H       -0.442392709    -0.578056511     1.799440385


           Empirical Formula: C7 H10 O2  =    19 atoms



      MOLECULAR POINT GROUP   :   C1  


                  EIGENVALUES  
 -32.81383 -29.58699 -28.28258 -26.63583 -25.50039 -23.68136 -21.76431 -19.86132
 -18.61491 -17.35863 -16.42428 -15.81517 -15.19028 -14.71855 -14.55568 -14.21355
 -14.01970 -13.66737 -13.19276 -12.95638 -12.19138 -11.51815 -11.06862 -10.20093
  -9.87541   0.36866   2.00408   2.44523   3.06950   3.19673   3.41676   3.89845
   4.08434   4.17912   4.62820   5.21466   5.29500   5.41706   5.44574   5.47154
   5.52596   5.78361   6.07025   6.15981   6.58195   6.66689


              NET ATOMIC CHARGES AND DIPOLE CONTRIBUTIONS

  ATOM NO.   TYPE          CHARGE      No. of ELECS.   s-Pop       p-Pop       
    1          C          -0.448840        4.4488     1.04494     3.40390
    2          C           0.006836        3.9932     1.09423     2.89893
    3          C          -0.240800        4.2408     1.09090     3.14989
    4          C           0.000909        3.9991     1.09027     2.90882
    5          O          -0.353870        6.3539     1.92317     4.43070
    6          C           0.099030        3.9010     1.08639     2.81458
    7          C          -0.458459        4.4585     1.04888     3.40958
    8          C           0.102379        3.8976     1.09488     2.80274
    9          O          -0.520322        6.5203     1.85201     4.66831
   10          H           0.162758        0.8372     0.83724
   11          H           0.176368        0.8236     0.82363
   12          H           0.157672        0.8423     0.84233
   13          H           0.165383        0.8346     0.83462
   14          H           0.161485        0.8385     0.83852
   15          H           0.172915        0.8271     0.82709
   16          H           0.160567        0.8394     0.83943
   17          H           0.168885        0.8311     0.83111
   18          H           0.156126        0.8439     0.84387
   19          H           0.330979        0.6690     0.66902
 DIPOLE           X         Y         Z       TOTAL
 POINT-CHG.     0.452    -0.377    -3.084     3.140
 HYBRID         0.015     0.350     1.061     1.117
 SUM            0.467    -0.027    -2.023     2.076


          ATOMIC ORBITAL ELECTRON POPULATIONS

     Atom    s        px        py        pz   
    1  C   1.04494   1.13724   1.07777   1.18888
    2  C   1.09423   0.98790   0.97323   0.93781
    3  C   1.09090   1.06833   0.99985   1.08172
    4  C   1.09027   0.94256   1.06103   0.90523
    5  O   1.92317   1.53608   1.68403   1.21059
    6  C   1.08639   0.94873   0.93364   0.93221
    7  C   1.04888   1.04907   1.19272   1.16779
    8  C   1.09488   0.96704   0.96986   0.86583
    9  O   1.85201   1.86625   1.53002   1.27203
   10  H   0.83724
   11  H   0.82363
   12  H   0.84233
   13  H   0.83462
   14  H   0.83852
   15  H   0.82709
   16  H   0.83943
   17  H   0.83111
   18  H   0.84387
   19  H   0.66902

 **********************
 *                    *
 * JOB ENDED NORMALLY *
 *                    *
 **********************



 TOTAL JOB TIME:             1.10 SECONDS

 == MOPAC DONE ==
