 *******************************************************************************
 **                                                                           **
 **                              MOPAC v23.2                                  **
 **                                                                           **
 *******************************************************************************
 **          Digital Object Identifier (DOI): 10.5281/zenodo.6511958          **
 **    Visit the DOI location for information on how to cite this program.    **
 *******************************************************************************

                              PM7 CALCULATION RESULTS

 *******************************************************************************
 *  CALCULATION DONE: (MAX THREADS = 40)             Fri Sep 19 21:33:12 2025  *
 *  PM7        - The PM7 Hamiltonian to be used
 *  EPS=37.5   - USE ANDREAS KLAMT'S COSMO IMPLICIT SOLVATION MODEL
 *  1SCF       - DO 1 SCF AND THEN STOP 
 *  T=         - A TIME OF 172800.0 SECONDS REQUESTED
 *  DUMP=N     - RESTART FILE WRITTEN EVERY 7200.0 SECONDS REQUESTED
 *  RELSCF     - DEFAULT SCF CRITERION MULTIPLIED BY 0.0001
 *              (DEFAULT SCF CRITERION = 0.00010)
 *  GRADIENTS  - ALL GRADIENTS TO BE PRINTED
 *  DISP       - PRINT DISPERSION AND HYDROGEN BOND ENERGIES
 *******************************************************************************
PM7 1SCF GRADIENTS EPS=37.5 DISP RELSCF=0.0001
 Title: ASE calculation

   ATOM   CHEMICAL          X               Y               Z
  NUMBER   SYMBOL      (ANGSTROMS)     (ANGSTROMS)     (ANGSTROMS)

     1       C         -1.72974304  *  -0.90381833  *   1.35839294  *
     2       C         -0.28102804  *  -0.52649225  *   1.25152737  *
     3       C          0.33732252  *   0.86586511  *   1.15524390  *
     4       N         -0.23969969  *   1.92249177  *   0.25488662  *
     5       C         -1.51305887  *   1.53414737  *  -0.39387015  *
     6       C         -0.23613486  *   0.92443276  *  -0.91191458  *
     7       C          0.43887746  *  -0.14794697  *  -0.02953997  *
     8       C          1.58579502  *  -0.91929846  *  -0.58116569  *
     9       O          1.00639826  *  -1.83349077  *  -1.50546070  *
    10       H         -2.20081050  *  -1.01784360  *   0.37034270  *
    11       H         -1.85103928  *  -1.87685747  *   1.85709611  *
    12       H         -2.30325739  *  -0.17225301  *   1.94253518  *
    13       H          0.32046556  *  -1.19262651  *   1.90635247  *
    14       H          1.05844084  *   1.24207546  *   1.85987223  *
    15       H         -2.29322963  *   0.98354540  *   0.11724982  *
    16       H         -1.95820515  *   2.35315039  *  -0.97673791  *
    17       H          0.15923984  *   1.12480989  *  -1.89397415  *
    18       H          2.30325739  *  -0.26980594  *  -1.12170584  *
    19       H          2.12276118  *  -1.49318350  *   0.19898628  *
    20       H          1.70926882  *  -2.35315039  *  -1.94253518  *



          CARTESIAN COORDINATES 

    NO.       ATOM           X           Y           Z

     1         C         -1.7297     -0.9038      1.3584
     2         C         -0.2810     -0.5265      1.2515
     3         C          0.3373      0.8659      1.1552
     4         N         -0.2397      1.9225      0.2549
     5         C         -1.5131      1.5341     -0.3939
     6         C         -0.2361      0.9244     -0.9119
     7         C          0.4389     -0.1479     -0.0295
     8         C          1.5858     -0.9193     -0.5812
     9         O          1.0064     -1.8335     -1.5055
    10         H         -2.2008     -1.0178      0.3703
    11         H         -1.8510     -1.8769      1.8571
    12         H         -2.3033     -0.1723      1.9425
    13         H          0.3205     -1.1926      1.9064
    14         H          1.0584      1.2421      1.8599
    15         H         -2.2932      0.9835      0.1172
    16         H         -1.9582      2.3532     -0.9767
    17         H          0.1592      1.1248     -1.8940
    18         H          2.3033     -0.2698     -1.1217
    19         H          2.1228     -1.4932      0.1990
    20         H          1.7093     -2.3532     -1.9425

 General Reference for PM7:
 "Optimization of Parameters for Semiempirical Methods VI: More Modifications to the 
 NDDO Approximations and Re-optimization of Parameters", J. J. P. Stewart, J. Mol. Mod., 1:32, 19 (2013)
 https://link.springer.com/article/10.1007/s00894-012-1667-x

           Empirical Formula: C7 H11 N O  =    20 atoms



      MOLECULAR POINT GROUP   :   C1  


      RHF CALCULATION, NO. OF DOUBLY OCCUPIED LEVELS = 25

  SCF CRITERION =    0.1000E-07

 -------------------------------------------------------------------------------
 PM7 1SCF GRADIENTS EPS=37.5 DISP RELSCF=0.0001
 Title: ASE calculation



     1SCF WAS SPECIFIED, SO BFGS WAS NOT USED                 
     SCF FIELD WAS ACHIEVED                                   


                              PM7 CALCULATION
                                                       MOPAC v23.2 Linux
                                                       Fri Sep 19 21:33:13 2025




          FINAL HEAT OF FORMATION =         50.17316 KCAL/MOL =     209.92449 KJ/MOL

          TOTAL ENERGY            =     -34271.73600 KCAL/MOL = ELECTRONIC ENERGY + CORE-CORE REPULSION + SOLVATION ENERGY
          ENERGY OF ATOMS         =      34323.93363 KCAL/MOL
                              SUM =         52.19764 KCAL/MOL
          DISPERSION ENERGY       =         -2.02448 KCAL/MOL
                              SUM =         50.17316 KCAL/MOL = FINAL HEAT OF FORMATION

          VAN DER WAALS AREA      =        162.59 SQUARE ANGSTROMS


          TOTAL ENERGY            =      -1486.16313 EV
          ELECTRONIC ENERGY       =      -2345.49549 EV 
          CORE-CORE REPULSION     =        859.33235 EV

          DIELECTRIC ENERGY       =         -0.58607 EV
          COSMO AREA              =        162.59 SQUARE ANGSTROMS
          COSMO VOLUME            =        163.94 CUBIC ANGSTROMS

          GRADIENT NORM           =          9.89741          =       2.21313 PER ATOM
          IONIZATION POTENTIAL    =         10.019768 EV
          HOMO LUMO ENERGIES (EV) =        -10.020  0.945
          NO. OF FILLED LEVELS    =         25
          MOLECULAR WEIGHT        =        125.1700         POINT GROUP:  C1  

          MOLECULAR DIMENSIONS (Angstroms)

            Atom       Atom       Distance
            H    20    H    16     6.04420
            H    11    H    17     5.18202
            H    14    H    10     3.96467


          SCF CALCULATIONS        =          2

          WALL-CLOCK TIME         =      0.836 SECONDS
          COMPUTATION TIME        =      0.934 SECONDS

          LARGEST ATOMIC GRADIENTS

          Atom     Label                     Cartesian Gradients           Cartesian Coordinates       |Gradient|
                                           X          Y          Z        X          Y          Z

            20       H                  -3.383      2.753      2.270    1.70927   -2.35315   -1.94254      4.917
             8       C                   2.159     -2.293     -1.151    1.58580   -0.91930   -0.58117      3.354
             9       O                   1.825     -1.717     -1.544    1.00640   -1.83349   -1.50546      2.944
             2       C                   1.512     -1.636      1.893   -0.28103   -0.52649    1.25153      2.923
             1       C                  -2.298     -0.698      1.464   -1.72974   -0.90382    1.35839      2.813
             5       C                  -2.023     -0.575      1.130   -1.51306    1.53415   -0.39387      2.387
            16       H                   1.550     -0.044      1.250   -1.95821    2.35315   -0.97674      1.992
            14       H                  -1.373      0.720     -1.184    1.05844    1.24208    1.85987      1.951
            13       H                  -1.278      0.760     -1.186    0.32047   -1.19263    1.90635      1.902
             6       C                   1.489      0.701     -0.835   -0.23613    0.92443   -0.91191      1.845



       FINAL  POINT  AND  DERIVATIVES

   PARAMETER     ATOM    TYPE            VALUE        GRADIENT
      1          1  C    CARTESIAN X    -1.729743     -2.298366  KCAL/ANGSTROM
      2          1  C    CARTESIAN Y    -0.903818     -0.698226  KCAL/ANGSTROM
      3          1  C    CARTESIAN Z     1.358393      1.464263  KCAL/ANGSTROM
      4          2  C    CARTESIAN X    -0.281028      1.511880  KCAL/ANGSTROM
      5          2  C    CARTESIAN Y    -0.526492     -1.635766  KCAL/ANGSTROM
      6          2  C    CARTESIAN Z     1.251527      1.892586  KCAL/ANGSTROM
      7          3  C    CARTESIAN X     0.337323     -0.459168  KCAL/ANGSTROM
      8          3  C    CARTESIAN Y     0.865865      1.030366  KCAL/ANGSTROM
      9          3  C    CARTESIAN Z     1.155244      0.324849  KCAL/ANGSTROM
     10          4  N    CARTESIAN X    -0.239700      0.389307  KCAL/ANGSTROM
     11          4  N    CARTESIAN Y     1.922492     -0.595391  KCAL/ANGSTROM
     12          4  N    CARTESIAN Z     0.254887     -1.493727  KCAL/ANGSTROM
     13          5  C    CARTESIAN X    -1.513059     -2.022517  KCAL/ANGSTROM
     14          5  C    CARTESIAN Y     1.534147     -0.574955  KCAL/ANGSTROM
     15          5  C    CARTESIAN Z    -0.393870      1.130367  KCAL/ANGSTROM
     16          6  C    CARTESIAN X    -0.236135      1.488662  KCAL/ANGSTROM
     17          6  C    CARTESIAN Y     0.924433      0.700542  KCAL/ANGSTROM
     18          6  C    CARTESIAN Z    -0.911915     -0.835268  KCAL/ANGSTROM
     19          7  C    CARTESIAN X     0.438877      1.085229  KCAL/ANGSTROM
     20          7  C    CARTESIAN Y    -0.147947      0.341851  KCAL/ANGSTROM
     21          7  C    CARTESIAN Z    -0.029540     -0.378989  KCAL/ANGSTROM
     22          8  C    CARTESIAN X     1.585795      2.159361  KCAL/ANGSTROM
     23          8  C    CARTESIAN Y    -0.919298     -2.293377  KCAL/ANGSTROM
     24          8  C    CARTESIAN Z    -0.581166     -1.151010  KCAL/ANGSTROM
     25          9  O    CARTESIAN X     1.006398      1.825264  KCAL/ANGSTROM
     26          9  O    CARTESIAN Y    -1.833491     -1.717416  KCAL/ANGSTROM
     27          9  O    CARTESIAN Z    -1.505461     -1.544422  KCAL/ANGSTROM
     28         10  H    CARTESIAN X    -2.200811      0.883463  KCAL/ANGSTROM
     29         10  H    CARTESIAN Y    -1.017844     -0.389847  KCAL/ANGSTROM
     30         10  H    CARTESIAN Z     0.370343     -0.626094  KCAL/ANGSTROM
     31         11  H    CARTESIAN X    -1.851039      0.442881  KCAL/ANGSTROM
     32         11  H    CARTESIAN Y    -1.876857      0.262145  KCAL/ANGSTROM
     33         11  H    CARTESIAN Z     1.857096     -0.961346  KCAL/ANGSTROM
     34         12  H    CARTESIAN X    -2.303257      1.057531  KCAL/ANGSTROM
     35         12  H    CARTESIAN Y    -0.172253     -0.138541  KCAL/ANGSTROM
     36         12  H    CARTESIAN Z     1.942535     -0.177534  KCAL/ANGSTROM
     37         13  H    CARTESIAN X     0.320466     -1.278120  KCAL/ANGSTROM
     38         13  H    CARTESIAN Y    -1.192627      0.759549  KCAL/ANGSTROM
     39         13  H    CARTESIAN Z     1.906352     -1.186119  KCAL/ANGSTROM
     40         14  H    CARTESIAN X     1.058441     -1.373411  KCAL/ANGSTROM
     41         14  H    CARTESIAN Y     1.242075      0.720053  KCAL/ANGSTROM
     42         14  H    CARTESIAN Z     1.859872     -1.183796  KCAL/ANGSTROM
     43         15  H    CARTESIAN X    -2.293230      1.184076  KCAL/ANGSTROM
     44         15  H    CARTESIAN Y     0.983545      0.810192  KCAL/ANGSTROM
     45         15  H    CARTESIAN Z     0.117250     -0.565328  KCAL/ANGSTROM
     46         16  H    CARTESIAN X    -1.958205      1.550349  KCAL/ANGSTROM
     47         16  H    CARTESIAN Y     2.353150     -0.043749  KCAL/ANGSTROM
     48         16  H    CARTESIAN Z    -0.976738      1.250216  KCAL/ANGSTROM
     49         17  H    CARTESIAN X     0.159240     -0.924040  KCAL/ANGSTROM
     50         17  H    CARTESIAN Y     1.124810     -0.673255  KCAL/ANGSTROM
     51         17  H    CARTESIAN Z    -1.893974      1.003819  KCAL/ANGSTROM
     52         18  H    CARTESIAN X     2.303257     -0.848502  KCAL/ANGSTROM
     53         18  H    CARTESIAN Y    -0.269806      0.738430  KCAL/ANGSTROM
     54         18  H    CARTESIAN Z    -1.121706      0.508162  KCAL/ANGSTROM
     55         19  H    CARTESIAN X     2.122761     -0.991299  KCAL/ANGSTROM
     56         19  H    CARTESIAN Y    -1.493183      0.644038  KCAL/ANGSTROM
     57         19  H    CARTESIAN Z     0.198986      0.259541  KCAL/ANGSTROM
     58         20  H    CARTESIAN X     1.709269     -3.382581  KCAL/ANGSTROM
     59         20  H    CARTESIAN Y    -2.353150      2.753355  KCAL/ANGSTROM
     60         20  H    CARTESIAN Z    -1.942535      2.269829  KCAL/ANGSTROM




   ATOM   CHEMICAL          X               Y               Z
  NUMBER   SYMBOL      (ANGSTROMS)     (ANGSTROMS)     (ANGSTROMS)

     1       C         -1.72974304  *  -0.90381833  *   1.35839294  *
     2       C         -0.28102804  *  -0.52649225  *   1.25152737  *
     3       C          0.33732252  *   0.86586511  *   1.15524390  *
     4       N         -0.23969969  *   1.92249177  *   0.25488662  *
     5       C         -1.51305887  *   1.53414737  *  -0.39387015  *
     6       C         -0.23613486  *   0.92443276  *  -0.91191458  *
     7       C          0.43887746  *  -0.14794697  *  -0.02953997  *
     8       C          1.58579502  *  -0.91929846  *  -0.58116569  *
     9       O          1.00639826  *  -1.83349077  *  -1.50546070  *
    10       H         -2.20081050  *  -1.01784360  *   0.37034270  *
    11       H         -1.85103928  *  -1.87685747  *   1.85709611  *
    12       H         -2.30325739  *  -0.17225301  *   1.94253518  *
    13       H          0.32046556  *  -1.19262651  *   1.90635247  *
    14       H          1.05844084  *   1.24207546  *   1.85987223  *
    15       H         -2.29322963  *   0.98354540  *   0.11724982  *
    16       H         -1.95820515  *   2.35315039  *  -0.97673791  *
    17       H          0.15923984  *   1.12480989  *  -1.89397415  *
    18       H          2.30325739  *  -0.26980594  *  -1.12170584  *
    19       H          2.12276118  *  -1.49318350  *   0.19898628  *
    20       H          1.70926882  *  -2.35315039  *  -1.94253518  *

                             CARTESIAN COORDINATES

   1    C       -1.729743041    -0.903818326     1.358392936
   2    C       -0.281028043    -0.526492253     1.251527370
   3    C        0.337322517     0.865865112     1.155243898
   4    N       -0.239699691     1.922491769     0.254886617
   5    C       -1.513058868     1.534147373    -0.393870150
   6    C       -0.236134859     0.924432755    -0.911914583
   7    C        0.438877456    -0.147946969    -0.029539971
   8    C        1.585795022    -0.919298456    -0.581165685
   9    O        1.006398262    -1.833490769    -1.505460705
  10    H       -2.200810504    -1.017843597     0.370342697
  11    H       -1.851039282    -1.876857473     1.857096110
  12    H       -2.303257388    -0.172253009     1.942535180
  13    H        0.320465557    -1.192626511     1.906352467
  14    H        1.058440840     1.242075465     1.859872229
  15    H       -2.293229633     0.983545403     0.117249818
  16    H       -1.958205155     2.353150386    -0.976737915
  17    H        0.159239838     1.124809885    -1.893974152
  18    H        2.303257388    -0.269805939    -1.121705841
  19    H        2.122761181    -1.493183497     0.198986278
  20    H        1.709268816    -2.353150386    -1.942535180


           Empirical Formula: C7 H11 N O  =    20 atoms



      MOLECULAR POINT GROUP   :   C1  


                  EIGENVALUES  
 -37.46735 -30.00876 -29.05858 -26.09465 -24.95035 -23.14694 -21.88019 -19.69719
 -18.87528 -17.68899 -16.76800 -16.10814 -15.38659 -15.00949 -14.61897 -14.39821
 -13.72292 -13.45239 -13.13526 -12.60614 -11.83441 -11.61205 -10.94416 -10.64662
 -10.01977   0.94508   1.92964   2.05164   2.71493   3.13088   3.35578   3.40955
   3.82462   4.01278   4.26985   4.36275   5.30249   5.43931   5.49936   5.65023
   5.71900   5.72297   5.72822   5.80321   5.87931   6.05023   6.84365


              NET ATOMIC CHARGES AND DIPOLE CONTRIBUTIONS

  ATOM NO.   TYPE          CHARGE      No. of ELECS.   s-Pop       p-Pop       
    1          C          -0.449108        4.4491     1.04903     3.40008
    2          C          -0.136785        4.1368     1.05994     3.07685
    3          C          -0.066957        4.0670     1.08624     2.98072
    4          N          -0.441859        5.4419     1.79464     3.64722
    5          C          -0.195853        4.1959     1.07943     3.11643
    6          C          -0.057191        4.0572     1.09152     2.96568
    7          C          -0.117012        4.1170     1.06598     3.05103
    8          C           0.024689        3.9753     1.07775     2.89756
    9          O          -0.612435        6.6124     1.84712     4.76532
   10          H           0.165448        0.8346     0.83455
   11          H           0.164383        0.8356     0.83562
   12          H           0.165811        0.8342     0.83419
   13          H           0.178670        0.8213     0.82133
   14          H           0.188041        0.8120     0.81196
   15          H           0.180952        0.8190     0.81905
   16          H           0.185927        0.8141     0.81407
   17          H           0.186520        0.8135     0.81348
   18          H           0.140614        0.8594     0.85939
   19          H           0.141490        0.8585     0.85851
   20          H           0.354656        0.6453     0.64534
 DIPOLE           X         Y         Z       TOTAL
 POINT-CHG.     1.282    -1.964     0.557     2.411
 HYBRID        -0.092    -0.582    -0.190     0.619
 SUM            1.190    -2.545     0.367     2.834


          ATOMIC ORBITAL ELECTRON POPULATIONS

     Atom    s        px        py        pz   
    1  C   1.04903   1.02879   1.17942   1.19186
    2  C   1.05994   1.03359   1.00909   1.03418
    3  C   1.08624   1.08750   0.86313   1.03008
    4  N   1.79464   1.20794   1.30988   1.12940
    5  C   1.07943   0.93870   1.11423   1.06350
    6  C   1.09152   1.04296   0.91487   1.00784
    7  C   1.06598   1.07495   1.04672   0.92935
    8  C   1.07775   0.97850   0.94903   0.97003
    9  O   1.84712   1.48260   1.62704   1.65567
   10  H   0.83455
   11  H   0.83562
   12  H   0.83419
   13  H   0.82133
   14  H   0.81196
   15  H   0.81905
   16  H   0.81407
   17  H   0.81348
   18  H   0.85939
   19  H   0.85851
   20  H   0.64534

 **********************
 *                    *
 * JOB ENDED NORMALLY *
 *                    *
 **********************



 TOTAL JOB TIME:             1.21 SECONDS

 == MOPAC DONE ==
