 *******************************************************************************
 **                                                                           **
 **                              MOPAC v23.2                                  **
 **                                                                           **
 *******************************************************************************
 **          Digital Object Identifier (DOI): 10.5281/zenodo.6511958          **
 **    Visit the DOI location for information on how to cite this program.    **
 *******************************************************************************

                              PM7 CALCULATION RESULTS

 *******************************************************************************
 *  CALCULATION DONE: (MAX THREADS = 40)             Fri Sep 19 21:44:18 2025  *
 *  PM7        - The PM7 Hamiltonian to be used
 *
 *
 *
 *                 CHARGE ON SYSTEM = +1
 *
 *
 *
 *  1SCF       - DO 1 SCF AND THEN STOP 
 *  T=         - A TIME OF 172800.0 SECONDS REQUESTED
 *  DUMP=N     - RESTART FILE WRITTEN EVERY 7200.0 SECONDS REQUESTED
 *  RELSCF     - DEFAULT SCF CRITERION MULTIPLIED BY 0.0001
 *              (DEFAULT SCF CRITERION = 0.00010)
 *  GRADIENTS  - ALL GRADIENTS TO BE PRINTED
 *  DISP       - PRINT DISPERSION AND HYDROGEN BOND ENERGIES
 *******************************************************************************
PM7 1SCF GRADIENTS DISP RELSCF=0.0001 CHARGE=1
 Title: ASE calculation

   ATOM   CHEMICAL          X               Y               Z
  NUMBER   SYMBOL      (ANGSTROMS)     (ANGSTROMS)     (ANGSTROMS)

     1       C         -2.37671227  *   0.04084820  *  -0.76840566  *
     2       C         -0.88273208  *  -0.11838725  *  -0.72057036  *
     3       C         -0.40742383  *  -1.05969148  *   0.48711103  *
     4       C          0.05955193  *   0.22756460  *   1.24630598  *
     5       C         -0.10446747  *   1.06925906  *  -0.05504482  *
     6       C          1.18591442  *   1.29765876  *  -0.71210460  *
     7       O          1.88668050  *   0.15493928  *  -0.87614034  *
     8       C          0.69867024  *  -1.85671349  *   0.10478072  *
     9       O          1.59006463  *  -2.48177070  *  -0.20764903  *
    10       H         -2.66859135  *   0.80786192  *  -1.50935543  *
    11       H         -2.89159501  *  -0.88292184  *  -1.07291844  *
    12       H         -2.81462569  *   0.35971128  *   0.18841148  *
    13       H         -0.47507861  *  -0.42003710  *  -1.70303185  *
    14       H         -1.23668968  *  -1.62352710  *   0.97442476  *
    15       H         -0.62793789  *   0.51667946  *   2.05635634  *
    16       H          1.07133603  *   0.20591548  *   1.66761662  *
    17       H         -0.69409457  *   1.99894040  *   0.06262760  *
    18       H          1.58985680  *   2.22753357  *  -1.04030043  *
    19       H          2.75690018  *   0.31208774  *  -1.33054679  *



          CARTESIAN COORDINATES 

    NO.       ATOM           X           Y           Z

     1         C         -2.3767      0.0408     -0.7684
     2         C         -0.8827     -0.1184     -0.7206
     3         C         -0.4074     -1.0597      0.4871
     4         C          0.0596      0.2276      1.2463
     5         C         -0.1045      1.0693     -0.0550
     6         C          1.1859      1.2977     -0.7121
     7         O          1.8867      0.1549     -0.8761
     8         C          0.6987     -1.8567      0.1048
     9         O          1.5901     -2.4818     -0.2076
    10         H         -2.6686      0.8079     -1.5094
    11         H         -2.8916     -0.8829     -1.0729
    12         H         -2.8146      0.3597      0.1884
    13         H         -0.4751     -0.4200     -1.7030
    14         H         -1.2367     -1.6235      0.9744
    15         H         -0.6279      0.5167      2.0564
    16         H          1.0713      0.2059      1.6676
    17         H         -0.6941      1.9989      0.0626
    18         H          1.5899      2.2275     -1.0403
    19         H          2.7569      0.3121     -1.3305

 General Reference for PM7:
 "Optimization of Parameters for Semiempirical Methods VI: More Modifications to the 
 NDDO Approximations and Re-optimization of Parameters", J. J. P. Stewart, J. Mol. Mod., 1:32, 19 (2013)
 https://link.springer.com/article/10.1007/s00894-012-1667-x

           Empirical Formula: C7 H10 O2  =    19 atoms



      MOLECULAR POINT GROUP   :   C1  


          UHF CALCULATION, NO. OF ALPHA ELECTRONS =   25
                           NO. OF BETA  ELECTRONS =   24
  SCF CRITERION =    0.1000E-07

 -------------------------------------------------------------------------------
 PM7 1SCF GRADIENTS DISP RELSCF=0.0001 CHARGE=1
 Title: ASE calculation



     1SCF WAS SPECIFIED, SO BFGS WAS NOT USED                 
     SCF FIELD WAS ACHIEVED                                   


                              PM7 CALCULATION
                                                       MOPAC v23.2 Linux
                                                       Fri Sep 19 21:44:19 2025




          FINAL HEAT OF FORMATION =        124.43823 KCAL/MOL =     520.64954 KJ/MOL

          TOTAL ENERGY            =     -36356.22996 KCAL/MOL = ELECTRONIC ENERGY + CORE-CORE REPULSION
          ENERGY OF ATOMS         =      36482.50324 KCAL/MOL
                              SUM =        126.27328 KCAL/MOL
          DISPERSION ENERGY       =         -1.83505 KCAL/MOL
                              SUM =        124.43823 KCAL/MOL = FINAL HEAT OF FORMATION



          TOTAL ENERGY            =      -1576.55535 EV
          ELECTRONIC ENERGY       =      -7576.30291 EV 
          CORE-CORE REPULSION     =       5999.74757 EV
          COSMO AREA              =        160.22 SQUARE ANGSTROMS
          COSMO VOLUME            =        161.69 CUBIC ANGSTROMS

          GRADIENT NORM           =          0.76661          =       0.17587 PER ATOM
          IONIZATION POTENTIAL    =         12.559376 EV
          ALPHA SOMO LUMO (EV)    =        -12.559 -5.794
          BETA  SOMO LUMO (EV)    =        -15.793 -5.792
          NO. OF ALPHA ELECTRONS  =         25
          NO. OF BETA  ELECTRONS  =         24
          MOLECULAR WEIGHT        =        126.1548         POINT GROUP:  C1  

          MOLECULAR DIMENSIONS (Angstroms)

            Atom       Atom       Distance
            H    19    H    11     5.77927
            H    17    O     9     4.86107
            H    13    H    15     3.71277


          SCF CALCULATIONS        =          1

          WALL-CLOCK TIME         =      0.742 SECONDS
          COMPUTATION TIME        =      1.300 SECONDS

          LARGEST ATOMIC GRADIENTS

          Atom     Label                     Cartesian Gradients           Cartesian Coordinates       |Gradient|
                                           X          Y          Z        X          Y          Z

            16       H                  -0.061     -0.257     -0.128    1.07134    0.20592    1.66762      0.293
             6       C                   0.218     -0.061     -0.161    1.18591    1.29766   -0.71210      0.278
             9       O                  -0.041      0.073      0.258    1.59006   -2.48177   -0.20765      0.271
            15       H                   0.106     -0.026      0.227   -0.62794    0.51668    2.05636      0.252
            18       H                   0.100     -0.183      0.138    1.58986    2.22753   -1.04030      0.250
             8       C                   0.196     -0.013     -0.080    0.69867   -1.85671    0.10478      0.212
             7       O                  -0.030      0.190      0.045    1.88668    0.15494   -0.87614      0.197
            14       H                  -0.006      0.071     -0.174   -1.23669   -1.62353    0.97442      0.188
            17       H                  -0.112      0.076     -0.100   -0.69409    1.99894    0.06263      0.169
            19       H                  -0.126      0.044     -0.010    2.75690    0.31209   -1.33055      0.134



       FINAL  POINT  AND  DERIVATIVES

   PARAMETER     ATOM    TYPE            VALUE        GRADIENT
      1          1  C    CARTESIAN X    -2.376712     -0.065387  KCAL/ANGSTROM
      2          1  C    CARTESIAN Y     0.040848     -0.063431  KCAL/ANGSTROM
      3          1  C    CARTESIAN Z    -0.768406      0.012314  KCAL/ANGSTROM
      4          2  C    CARTESIAN X    -0.882732     -0.106279  KCAL/ANGSTROM
      5          2  C    CARTESIAN Y    -0.118387      0.039796  KCAL/ANGSTROM
      6          2  C    CARTESIAN Z    -0.720570     -0.019405  KCAL/ANGSTROM
      7          3  C    CARTESIAN X    -0.407424      0.072977  KCAL/ANGSTROM
      8          3  C    CARTESIAN Y    -1.059691      0.029746  KCAL/ANGSTROM
      9          3  C    CARTESIAN Z     0.487111      0.019833  KCAL/ANGSTROM
     10          4  C    CARTESIAN X     0.059552     -0.030296  KCAL/ANGSTROM
     11          4  C    CARTESIAN Y     0.227565      0.032601  KCAL/ANGSTROM
     12          4  C    CARTESIAN Z     1.246306     -0.050385  KCAL/ANGSTROM
     13          5  C    CARTESIAN X    -0.104467      0.017904  KCAL/ANGSTROM
     14          5  C    CARTESIAN Y     1.069259      0.058721  KCAL/ANGSTROM
     15          5  C    CARTESIAN Z    -0.055045     -0.028551  KCAL/ANGSTROM
     16          6  C    CARTESIAN X     1.185914      0.218147  KCAL/ANGSTROM
     17          6  C    CARTESIAN Y     1.297659     -0.061360  KCAL/ANGSTROM
     18          6  C    CARTESIAN Z    -0.712105     -0.161390  KCAL/ANGSTROM
     19          7  O    CARTESIAN X     1.886681     -0.030052  KCAL/ANGSTROM
     20          7  O    CARTESIAN Y     0.154939      0.189708  KCAL/ANGSTROM
     21          7  O    CARTESIAN Z    -0.876140      0.045206  KCAL/ANGSTROM
     22          8  C    CARTESIAN X     0.698670      0.195955  KCAL/ANGSTROM
     23          8  C    CARTESIAN Y    -1.856713     -0.013392  KCAL/ANGSTROM
     24          8  C    CARTESIAN Z     0.104781     -0.080328  KCAL/ANGSTROM
     25          9  O    CARTESIAN X     1.590065     -0.040782  KCAL/ANGSTROM
     26          9  O    CARTESIAN Y    -2.481771      0.073222  KCAL/ANGSTROM
     27          9  O    CARTESIAN Z    -0.207649      0.257725  KCAL/ANGSTROM
     28         10  H    CARTESIAN X    -2.668591     -0.023990  KCAL/ANGSTROM
     29         10  H    CARTESIAN Y     0.807862     -0.073996  KCAL/ANGSTROM
     30         10  H    CARTESIAN Z    -1.509355      0.009556  KCAL/ANGSTROM
     31         11  H    CARTESIAN X    -2.891595     -0.021614  KCAL/ANGSTROM
     32         11  H    CARTESIAN Y    -0.882922     -0.042818  KCAL/ANGSTROM
     33         11  H    CARTESIAN Z    -1.072918     -0.019206  KCAL/ANGSTROM
     34         12  H    CARTESIAN X    -2.814626     -0.042240  KCAL/ANGSTROM
     35         12  H    CARTESIAN Y     0.359711      0.025315  KCAL/ANGSTROM
     36         12  H    CARTESIAN Z     0.188411      0.014391  KCAL/ANGSTROM
     37         13  H    CARTESIAN X    -0.475079     -0.044278  KCAL/ANGSTROM
     38         13  H    CARTESIAN Y    -0.420037      0.079038  KCAL/ANGSTROM
     39         13  H    CARTESIAN Z    -1.703032      0.047775  KCAL/ANGSTROM
     40         14  H    CARTESIAN X    -1.236690     -0.006272  KCAL/ANGSTROM
     41         14  H    CARTESIAN Y    -1.623527      0.071382  KCAL/ANGSTROM
     42         14  H    CARTESIAN Z     0.974425     -0.173839  KCAL/ANGSTROM
     43         15  H    CARTESIAN X    -0.627938      0.105621  KCAL/ANGSTROM
     44         15  H    CARTESIAN Y     0.516679     -0.025874  KCAL/ANGSTROM
     45         15  H    CARTESIAN Z     2.056356      0.227115  KCAL/ANGSTROM
     46         16  H    CARTESIAN X     1.071336     -0.061472  KCAL/ANGSTROM
     47         16  H    CARTESIAN Y     0.205915     -0.256563  KCAL/ANGSTROM
     48         16  H    CARTESIAN Z     1.667617     -0.127736  KCAL/ANGSTROM
     49         17  H    CARTESIAN X    -0.694095     -0.111949  KCAL/ANGSTROM
     50         17  H    CARTESIAN Y     1.998940      0.076114  KCAL/ANGSTROM
     51         17  H    CARTESIAN Z     0.062628     -0.100471  KCAL/ANGSTROM
     52         18  H    CARTESIAN X     1.589857      0.100274  KCAL/ANGSTROM
     53         18  H    CARTESIAN Y     2.227534     -0.182635  KCAL/ANGSTROM
     54         18  H    CARTESIAN Z    -1.040300      0.137840  KCAL/ANGSTROM
     55         19  H    CARTESIAN X     2.756900     -0.126269  KCAL/ANGSTROM
     56         19  H    CARTESIAN Y     0.312088      0.044422  KCAL/ANGSTROM
     57         19  H    CARTESIAN Z    -1.330547     -0.010447  KCAL/ANGSTROM




   ATOM   CHEMICAL          X               Y               Z
  NUMBER   SYMBOL      (ANGSTROMS)     (ANGSTROMS)     (ANGSTROMS)

     1       C         -2.37671227  *   0.04084820  *  -0.76840566  *
     2       C         -0.88273208  *  -0.11838725  *  -0.72057036  *
     3       C         -0.40742383  *  -1.05969148  *   0.48711103  *
     4       C          0.05955193  *   0.22756460  *   1.24630598  *
     5       C         -0.10446747  *   1.06925906  *  -0.05504482  *
     6       C          1.18591442  *   1.29765876  *  -0.71210460  *
     7       O          1.88668050  *   0.15493928  *  -0.87614034  *
     8       C          0.69867024  *  -1.85671349  *   0.10478072  *
     9       O          1.59006463  *  -2.48177070  *  -0.20764903  *
    10       H         -2.66859135  *   0.80786192  *  -1.50935543  *
    11       H         -2.89159501  *  -0.88292184  *  -1.07291844  *
    12       H         -2.81462569  *   0.35971128  *   0.18841148  *
    13       H         -0.47507861  *  -0.42003710  *  -1.70303185  *
    14       H         -1.23668968  *  -1.62352710  *   0.97442476  *
    15       H         -0.62793789  *   0.51667946  *   2.05635634  *
    16       H          1.07133603  *   0.20591548  *   1.66761662  *
    17       H         -0.69409457  *   1.99894040  *   0.06262760  *
    18       H          1.58985680  *   2.22753357  *  -1.04030043  *
    19       H          2.75690018  *   0.31208774  *  -1.33054679  *

                             CARTESIAN COORDINATES

   1    C       -2.376712271     0.040848198    -0.768405663
   2    C       -0.882732080    -0.118387249    -0.720570357
   3    C       -0.407423830    -1.059691482     0.487111029
   4    C        0.059551932     0.227564597     1.246305983
   5    C       -0.104467469     1.069259065    -0.055044823
   6    C        1.185914420     1.297658760    -0.712104605
   7    O        1.886680503     0.154939279    -0.876140337
   8    C        0.698670239    -1.856713486     0.104780717
   9    O        1.590064634    -2.481770697    -0.207649025
  10    H       -2.668591354     0.807861916    -1.509355428
  11    H       -2.891595007    -0.882921844    -1.072918440
  12    H       -2.814625695     0.359711277     0.188411478
  13    H       -0.475078607    -0.420037103    -1.703031849
  14    H       -1.236689677    -1.623527096     0.974424763
  15    H       -0.627937888     0.516679457     2.056356342
  16    H        1.071336033     0.205915483     1.667616618
  17    H       -0.694094566     1.998940404     0.062627602
  18    H        1.589856803     2.227533571    -1.040300426
  19    H        2.756900176     0.312087743    -1.330546786


           Empirical Formula: C7 H10 O2  =    19 atoms



      MOLECULAR POINT GROUP   :   C1  


          ALPHA EIGENVALUES  
 -40.82600 -36.43765 -34.36848 -31.09259 -30.01691 -27.76501 -25.74281 -24.77657
 -23.45379 -22.32866 -22.12971 -21.94675 -21.60790 -20.36618 -19.56845 -19.12888
 -18.35108 -18.06541 -17.81621 -17.38376 -16.86255 -16.48321 -15.96429 -15.88362
 -12.55938  -5.79388  -5.66913  -3.90370  -2.26916  -2.02095  -1.41208  -1.24632
  -1.19608  -0.30068  -0.00854   0.25558   0.30909   1.09941   1.23054   1.37486
   1.71335   1.79797   1.85829   1.91684   2.20710   3.03230


           BETA EIGENVALUES 
 -40.82839 -36.38889 -33.96051 -31.05528 -29.95620 -27.61566 -25.68855 -24.66121
 -23.40489 -22.26945 -22.04731 -21.93268 -21.58876 -20.32405 -19.45818 -18.98020
 -18.18723 -17.89614 -17.64770 -17.18596 -16.69548 -16.43064 -15.89748 -15.79292
  -5.79185  -5.66739  -3.90413  -3.22733  -2.25111  -1.98158  -1.25291  -1.08502
  -0.93259  -0.19461   0.02162   0.29661   0.40729   1.12342   1.23905   1.57830
   1.71996   1.80127   1.86202   1.91986   2.37966   3.03304


              NET ATOMIC CHARGES AND DIPOLE CONTRIBUTIONS

  ATOM NO.   TYPE          CHARGE      No. of ELECS.   s-Pop       p-Pop       
    1          C          -0.472769        4.4728     1.05311     3.41966
    2          C          -0.009012        4.0090     1.08761     2.92140
    3          C          -0.272820        4.2728     1.08880     3.18402
    4          C          -0.224318        4.2243     1.07904     3.14528
    5          C          -0.134427        4.1344     1.07264     3.06179
    6          C          -0.018744        4.0187     1.11822     2.90052
    7          O          -0.538983        6.5390     1.82601     4.71297
    8          C           0.589541        3.4105     1.22748     2.18298
    9          O           0.051311        5.9487     1.86640     4.08229
   10          H           0.189416        0.8106     0.81058
   11          H           0.173543        0.8265     0.82646
   12          H           0.171788        0.8282     0.82821
   13          H           0.163289        0.8367     0.83671
   14          H           0.237970        0.7620     0.76203
   15          H           0.186376        0.8136     0.81362
   16          H           0.173977        0.8260     0.82602
   17          H           0.190471        0.8095     0.80953
   18          H           0.169384        0.8306     0.83062
   19          H           0.374007        0.6260     0.62599
 DIPOLE           X         Y         Z       TOTAL
 POINT-CHG.    -0.703    -1.609     1.046     2.044
 HYBRID         1.169    -1.190    -0.183     1.678
 SUM            0.465    -2.800     0.863     2.966


          ATOMIC ORBITAL ELECTRON POPULATIONS

     Atom    s        px        py        pz   
    1  C   1.05311   0.99698   1.20993   1.21275
    2  C   1.08761   1.01689   0.92334   0.98117
    3  C   1.08880   1.00145   1.02701   1.15556
    4  C   1.07904   1.17872   0.91405   1.05251
    5  C   1.07264   1.02306   1.06730   0.97142
    6  C   1.11822   0.93311   0.87599   1.09142
    7  O   1.82601   1.47054   1.45455   1.78789
    8  C   1.22748   0.80539   0.70849   0.66910
    9  O   1.86640   1.29385   1.37105   1.41738
   10  H   0.81058
   11  H   0.82646
   12  H   0.82821
   13  H   0.83671
   14  H   0.76203
   15  H   0.81362
   16  H   0.82602
   17  H   0.80953
   18  H   0.83062
   19  H   0.62599


                    (SZ)    =    0.500000
                    (S**2)  =    0.752860


          ATOMIC ORBITAL SPIN POPULATIONS

    Atom   Total    s     px     py     pz   
         Atomic
    1  C -0.0010 -0.000 -0.001 -0.000 -0.000
    2  C  0.0428  0.008  0.009  0.020  0.005
    3  C -0.0038 -0.001 -0.000 -0.001 -0.002
    4  C  0.0447  0.008  0.002  0.013  0.021
    5  C -0.0656 -0.007 -0.024 -0.008 -0.026
    6  C  0.9052  0.023  0.173  0.033  0.676
    7  O  0.1084  0.005  0.023 -0.013  0.093
    8  C  0.0003  0.000  0.000  0.000  0.000
    9  O -0.0008 -0.000 -0.000 -0.000 -0.000
   10  H  0.0001  0.000
   11  H  0.0009  0.001
   12  H  0.0001  0.000
   13  H -0.0013 -0.001
   14  H  0.0002  0.000
   15  H -0.0009 -0.001
   16  H -0.0015 -0.001
   17  H  0.0017  0.002
   18  H -0.0251 -0.025
   19  H -0.0046 -0.005

 **********************
 *                    *
 * JOB ENDED NORMALLY *
 *                    *
 **********************



 TOTAL JOB TIME:             1.06 SECONDS

 == MOPAC DONE ==
