 *******************************************************************************
 **                                                                           **
 **                              MOPAC v23.2                                  **
 **                                                                           **
 *******************************************************************************
 **          Digital Object Identifier (DOI): 10.5281/zenodo.6511958          **
 **    Visit the DOI location for information on how to cite this program.    **
 *******************************************************************************

                              PM7 CALCULATION RESULTS

 *******************************************************************************
 *  CALCULATION DONE: (MAX THREADS = 40)             Fri Sep 19 21:30:50 2025  *
 *  PM7        - The PM7 Hamiltonian to be used
 *  EPS=37.5   - USE ANDREAS KLAMT'S COSMO IMPLICIT SOLVATION MODEL
 *  1SCF       - DO 1 SCF AND THEN STOP 
 *  T=         - A TIME OF 172800.0 SECONDS REQUESTED
 *  DUMP=N     - RESTART FILE WRITTEN EVERY 7200.0 SECONDS REQUESTED
 *  RELSCF     - DEFAULT SCF CRITERION MULTIPLIED BY 0.0001
 *              (DEFAULT SCF CRITERION = 0.00010)
 *  GRADIENTS  - ALL GRADIENTS TO BE PRINTED
 *  DISP       - PRINT DISPERSION AND HYDROGEN BOND ENERGIES
 *******************************************************************************
PM7 1SCF GRADIENTS EPS=37.5 DISP RELSCF=0.0001
 Title: ASE calculation

   ATOM   CHEMICAL          X               Y               Z
  NUMBER   SYMBOL      (ANGSTROMS)     (ANGSTROMS)     (ANGSTROMS)

     1       C         -1.29780936  *  -0.99765952  *  -1.29750733  *
     2       N         -0.70873555  *  -0.13904394  *  -0.25019868  *
     3       C         -1.71433144  *   0.24230116  *   0.76097135  *
     4       C          0.47317626  *  -0.74604701  *   0.34299014  *
     5       C          0.29212602  *  -1.99507334  *   1.17332026  *
     6       C          1.75032042  *  -0.57571851  *  -0.45667718  *
     7       C          1.56829969  *   0.24655730  *   0.80750795  *
     8       C          1.35432176  *   1.65314501  *   0.70354280  *
     9       N          1.19145795  *   2.79706825  *   0.63936240  *
    10       H         -1.74249092  *  -1.93261886  *  -0.92656126  *
    11       H         -2.08106163  *  -0.42092096  *  -1.82001714  *
    12       H         -0.52482157  *  -1.24859712  *  -2.04276654  *
    13       H         -2.49329455  *   0.84732642  *   0.26427708  *
    14       H         -2.19951892  *  -0.60369089  *   1.26839849  *
    15       H         -1.24124593  *   0.88774474  *   1.52067080  *
    16       H         -0.17319069  *  -2.79706825  *   0.58396929  *
    17       H         -0.35210920  *  -1.80664067  *   2.04276654  *
    18       H          1.24196184  *  -2.38794972  *   1.55550872  *
    19       H          2.49329455  *  -1.36685941  *  -0.47912468  *
    20       H          1.70545664  *  -0.06918431  *  -1.42224955  *
    21       H          2.15732850  *  -0.03209244  *   1.69726358  *



          CARTESIAN COORDINATES 

    NO.       ATOM           X           Y           Z

     1         C         -1.2978     -0.9977     -1.2975
     2         N         -0.7087     -0.1390     -0.2502
     3         C         -1.7143      0.2423      0.7610
     4         C          0.4732     -0.7460      0.3430
     5         C          0.2921     -1.9951      1.1733
     6         C          1.7503     -0.5757     -0.4567
     7         C          1.5683      0.2466      0.8075
     8         C          1.3543      1.6531      0.7035
     9         N          1.1915      2.7971      0.6394
    10         H         -1.7425     -1.9326     -0.9266
    11         H         -2.0811     -0.4209     -1.8200
    12         H         -0.5248     -1.2486     -2.0428
    13         H         -2.4933      0.8473      0.2643
    14         H         -2.1995     -0.6037      1.2684
    15         H         -1.2412      0.8877      1.5207
    16         H         -0.1732     -2.7971      0.5840
    17         H         -0.3521     -1.8066      2.0428
    18         H          1.2420     -2.3879      1.5555
    19         H          2.4933     -1.3669     -0.4791
    20         H          1.7055     -0.0692     -1.4222
    21         H          2.1573     -0.0321      1.6973

 General Reference for PM7:
 "Optimization of Parameters for Semiempirical Methods VI: More Modifications to the 
 NDDO Approximations and Re-optimization of Parameters", J. J. P. Stewart, J. Mol. Mod., 1:32, 19 (2013)
 https://link.springer.com/article/10.1007/s00894-012-1667-x

           Empirical Formula: C7 H12 N2  =    21 atoms



      MOLECULAR POINT GROUP   :   C1  


      RHF CALCULATION, NO. OF DOUBLY OCCUPIED LEVELS = 25

  SCF CRITERION =    0.1000E-07

 -------------------------------------------------------------------------------
 PM7 1SCF GRADIENTS EPS=37.5 DISP RELSCF=0.0001
 Title: ASE calculation



     1SCF WAS SPECIFIED, SO BFGS WAS NOT USED                 
     SCF FIELD WAS ACHIEVED                                   


                              PM7 CALCULATION
                                                       MOPAC v23.2 Linux
                                                       Fri Sep 19 21:30:51 2025




          FINAL HEAT OF FORMATION =         31.64955 KCAL/MOL =     132.42171 KJ/MOL

          TOTAL ENERGY            =     -32131.25841 KCAL/MOL = ELECTRONIC ENERGY + CORE-CORE REPULSION + SOLVATION ENERGY
          ENERGY OF ATOMS         =      32165.36403 KCAL/MOL
                              SUM =         34.10562 KCAL/MOL
          DISPERSION ENERGY       =         -2.45607 KCAL/MOL
                              SUM =         31.64955 KCAL/MOL = FINAL HEAT OF FORMATION

          VAN DER WAALS AREA      =        173.24 SQUARE ANGSTROMS


          TOTAL ENERGY            =      -1393.34324 EV
          ELECTRONIC ENERGY       =      -2262.32657 EV 
          CORE-CORE REPULSION     =        868.98333 EV

          DIELECTRIC ENERGY       =         -0.52748 EV
          COSMO AREA              =        173.24 SQUARE ANGSTROMS
          COSMO VOLUME            =        180.01 CUBIC ANGSTROMS

          GRADIENT NORM           =         19.81774          =       4.32459 PER ATOM
          IONIZATION POTENTIAL    =          9.336338 EV
          HOMO LUMO ENERGIES (EV) =         -9.336  0.639
          NO. OF FILLED LEVELS    =         25
          MOLECULAR WEIGHT        =        124.1852         POINT GROUP:  C1  

          MOLECULAR DIMENSIONS (Angstroms)

            Atom       Atom       Distance
            H    10    N     9     5.78188
            H    13    H    19     5.48208
            H    17    H    11     4.10531


          SCF CALCULATIONS        =          2

          WALL-CLOCK TIME         =      0.617 SECONDS
          COMPUTATION TIME        =      1.607 SECONDS

          LARGEST ATOMIC GRADIENTS

          Atom     Label                     Cartesian Gradients           Cartesian Coordinates       |Gradient|
                                           X          Y          Z        X          Y          Z

             8       C                  -1.404     12.989     -0.658    1.35432    1.65315    0.70354     13.081
             9       N                   1.195     -8.776      0.942    1.19146    2.79707    0.63936      8.907
             7       C                   0.576     -5.832      0.917    1.56830    0.24656    0.80751      5.932
             4       C                  -1.159      5.126      0.317    0.47318   -0.74605    0.34299      5.265
             5       C                   0.009     -3.910      1.636    0.29213   -1.99507    1.17332      4.238
             6       C                   2.965     -2.282      0.117    1.75032   -0.57572   -0.45668      3.743
            21       H                  -1.493      0.938     -2.764    2.15733   -0.03209    1.69726      3.278
             2       N                  -0.395     -3.077      0.702   -0.70874   -0.13904   -0.25020      3.181
             3       C                  -0.621     -2.613      0.218   -1.71433    0.24230    0.76097      2.694
             1       C                  -0.534     -1.286      0.989   -1.29781   -0.99766   -1.29751      1.707



       FINAL  POINT  AND  DERIVATIVES

   PARAMETER     ATOM    TYPE            VALUE        GRADIENT
      1          1  C    CARTESIAN X    -1.297809     -0.534040  KCAL/ANGSTROM
      2          1  C    CARTESIAN Y    -0.997660     -1.285604  KCAL/ANGSTROM
      3          1  C    CARTESIAN Z    -1.297507      0.988663  KCAL/ANGSTROM
      4          2  N    CARTESIAN X    -0.708736     -0.394697  KCAL/ANGSTROM
      5          2  N    CARTESIAN Y    -0.139044     -3.077062  KCAL/ANGSTROM
      6          2  N    CARTESIAN Z    -0.250199      0.701610  KCAL/ANGSTROM
      7          3  C    CARTESIAN X    -1.714331     -0.621400  KCAL/ANGSTROM
      8          3  C    CARTESIAN Y     0.242301     -2.612617  KCAL/ANGSTROM
      9          3  C    CARTESIAN Z     0.760971      0.218207  KCAL/ANGSTROM
     10          4  C    CARTESIAN X     0.473176     -1.159035  KCAL/ANGSTROM
     11          4  C    CARTESIAN Y    -0.746047      5.126470  KCAL/ANGSTROM
     12          4  C    CARTESIAN Z     0.342990      0.316944  KCAL/ANGSTROM
     13          5  C    CARTESIAN X     0.292126      0.009377  KCAL/ANGSTROM
     14          5  C    CARTESIAN Y    -1.995073     -3.909636  KCAL/ANGSTROM
     15          5  C    CARTESIAN Z     1.173320      1.636370  KCAL/ANGSTROM
     16          6  C    CARTESIAN X     1.750320      2.964579  KCAL/ANGSTROM
     17          6  C    CARTESIAN Y    -0.575719     -2.282235  KCAL/ANGSTROM
     18          6  C    CARTESIAN Z    -0.456677      0.117479  KCAL/ANGSTROM
     19          7  C    CARTESIAN X     1.568300      0.576478  KCAL/ANGSTROM
     20          7  C    CARTESIAN Y     0.246557     -5.831926  KCAL/ANGSTROM
     21          7  C    CARTESIAN Z     0.807508      0.916817  KCAL/ANGSTROM
     22          8  C    CARTESIAN X     1.354322     -1.403544  KCAL/ANGSTROM
     23          8  C    CARTESIAN Y     1.653145     12.989010  KCAL/ANGSTROM
     24          8  C    CARTESIAN Z     0.703543     -0.657733  KCAL/ANGSTROM
     25          9  N    CARTESIAN X     1.191458      1.195249  KCAL/ANGSTROM
     26          9  N    CARTESIAN Y     2.797068     -8.776362  KCAL/ANGSTROM
     27          9  N    CARTESIAN Z     0.639362      0.941976  KCAL/ANGSTROM
     28         10  H    CARTESIAN X    -1.742491      0.159984  KCAL/ANGSTROM
     29         10  H    CARTESIAN Y    -1.932619      0.394095  KCAL/ANGSTROM
     30         10  H    CARTESIAN Z    -0.926561     -0.050877  KCAL/ANGSTROM
     31         11  H    CARTESIAN X    -2.081062      1.044857  KCAL/ANGSTROM
     32         11  H    CARTESIAN Y    -0.420921      0.903366  KCAL/ANGSTROM
     33         11  H    CARTESIAN Z    -1.820017      0.095603  KCAL/ANGSTROM
     34         12  H    CARTESIAN X    -0.524822     -0.176152  KCAL/ANGSTROM
     35         12  H    CARTESIAN Y    -1.248597      1.310790  KCAL/ANGSTROM
     36         12  H    CARTESIAN Z    -2.042767      0.214344  KCAL/ANGSTROM
     37         13  H    CARTESIAN X    -2.493295      1.248437  KCAL/ANGSTROM
     38         13  H    CARTESIAN Y     0.847326      0.808251  KCAL/ANGSTROM
     39         13  H    CARTESIAN Z     0.264277     -0.442252  KCAL/ANGSTROM
     40         14  H    CARTESIAN X    -2.199519      0.354814  KCAL/ANGSTROM
     41         14  H    CARTESIAN Y    -0.603691      0.381831  KCAL/ANGSTROM
     42         14  H    CARTESIAN Z     1.268398     -0.382240  KCAL/ANGSTROM
     43         15  H    CARTESIAN X    -1.241246      0.356662  KCAL/ANGSTROM
     44         15  H    CARTESIAN Y     0.887745      1.010929  KCAL/ANGSTROM
     45         15  H    CARTESIAN Z     1.520671     -1.172950  KCAL/ANGSTROM
     46         16  H    CARTESIAN X    -0.173191      0.317878  KCAL/ANGSTROM
     47         16  H    CARTESIAN Y    -2.797068      0.631773  KCAL/ANGSTROM
     48         16  H    CARTESIAN Z     0.583969     -0.099451  KCAL/ANGSTROM
     49         17  H    CARTESIAN X    -0.352109      0.365378  KCAL/ANGSTROM
     50         17  H    CARTESIAN Y    -1.806641      0.697928  KCAL/ANGSTROM
     51         17  H    CARTESIAN Z     2.042767     -0.656691  KCAL/ANGSTROM
     52         18  H    CARTESIAN X     1.241962     -0.881402  KCAL/ANGSTROM
     53         18  H    CARTESIAN Y    -2.387950      0.546342  KCAL/ANGSTROM
     54         18  H    CARTESIAN Z     1.555509     -0.243912  KCAL/ANGSTROM
     55         19  H    CARTESIAN X     2.493295     -1.175992  KCAL/ANGSTROM
     56         19  H    CARTESIAN Y    -1.366859      1.155635  KCAL/ANGSTROM
     57         19  H    CARTESIAN Z    -0.479125     -0.230450  KCAL/ANGSTROM
     58         20  H    CARTESIAN X     1.705457     -0.754567  KCAL/ANGSTROM
     59         20  H    CARTESIAN Y    -0.069184      0.880973  KCAL/ANGSTROM
     60         20  H    CARTESIAN Z    -1.422250      0.552241  KCAL/ANGSTROM
     61         21  H    CARTESIAN X     2.157329     -1.492861  KCAL/ANGSTROM
     62         21  H    CARTESIAN Y    -0.032092      0.938047  KCAL/ANGSTROM
     63         21  H    CARTESIAN Z     1.697264     -2.763701  KCAL/ANGSTROM




   ATOM   CHEMICAL          X               Y               Z
  NUMBER   SYMBOL      (ANGSTROMS)     (ANGSTROMS)     (ANGSTROMS)

     1       C         -1.29780936  *  -0.99765952  *  -1.29750733  *
     2       N         -0.70873555  *  -0.13904394  *  -0.25019868  *
     3       C         -1.71433144  *   0.24230116  *   0.76097135  *
     4       C          0.47317626  *  -0.74604701  *   0.34299014  *
     5       C          0.29212602  *  -1.99507334  *   1.17332026  *
     6       C          1.75032042  *  -0.57571851  *  -0.45667718  *
     7       C          1.56829969  *   0.24655730  *   0.80750795  *
     8       C          1.35432176  *   1.65314501  *   0.70354280  *
     9       N          1.19145795  *   2.79706825  *   0.63936240  *
    10       H         -1.74249092  *  -1.93261886  *  -0.92656126  *
    11       H         -2.08106163  *  -0.42092096  *  -1.82001714  *
    12       H         -0.52482157  *  -1.24859712  *  -2.04276654  *
    13       H         -2.49329455  *   0.84732642  *   0.26427708  *
    14       H         -2.19951892  *  -0.60369089  *   1.26839849  *
    15       H         -1.24124593  *   0.88774474  *   1.52067080  *
    16       H         -0.17319069  *  -2.79706825  *   0.58396929  *
    17       H         -0.35210920  *  -1.80664067  *   2.04276654  *
    18       H          1.24196184  *  -2.38794972  *   1.55550872  *
    19       H          2.49329455  *  -1.36685941  *  -0.47912468  *
    20       H          1.70545664  *  -0.06918431  *  -1.42224955  *
    21       H          2.15732850  *  -0.03209244  *   1.69726358  *

                             CARTESIAN COORDINATES

   1    C       -1.297809363    -0.997659522    -1.297507330
   2    N       -0.708735555    -0.139043943    -0.250198684
   3    C       -1.714331438     0.242301164     0.760971351
   4    C        0.473176261    -0.746047014     0.342990136
   5    C        0.292126016    -1.995073339     1.173320259
   6    C        1.750320422    -0.575718515    -0.456677178
   7    C        1.568299687     0.246557300     0.807507954
   8    C        1.354321762     1.653145015     0.703542796
   9    N        1.191457946     2.797068246     0.639362401
  10    H       -1.742490919    -1.932618860    -0.926561264
  11    H       -2.081061627    -0.420920958    -1.820017143
  12    H       -0.524821575    -1.248597120    -2.042766537
  13    H       -2.493294550     0.847326421     0.264277078
  14    H       -2.199518919    -0.603690895     1.268398492
  15    H       -1.241245933     0.887744740     1.520670799
  16    H       -0.173190686    -2.797068246     0.583969286
  17    H       -0.352109202    -1.806640673     2.042766537
  18    H        1.241961839    -2.387949717     1.555508716
  19    H        2.493294550    -1.366859413    -0.479124677
  20    H        1.705456638    -0.069184311    -1.422249547
  21    H        2.157328502    -0.032092444     1.697263577


           Empirical Formula: C7 H12 N2  =    21 atoms



      MOLECULAR POINT GROUP   :   C1  


                  EIGENVALUES  
 -35.79201 -35.50437 -30.56253 -25.48541 -24.81787 -23.35015 -22.62657 -19.47725
 -18.56212 -16.71127 -15.93248 -15.64773 -15.39535 -14.51131 -14.29861 -14.07971
 -13.76499 -13.49168 -13.23416 -12.91135 -12.68645 -12.64899 -11.67988 -10.98419
  -9.33634   0.63878   0.94129   2.11522   2.41375   3.06428   3.46072   3.72174
   3.90911   4.57554   4.74911   5.18474   5.54754   5.60505   5.62136   5.63201
   5.66059   5.72026   5.82771   5.87366   6.14067   6.43371   6.61334   6.86603


              NET ATOMIC CHARGES AND DIPOLE CONTRIBUTIONS

  ATOM NO.   TYPE          CHARGE      No. of ELECS.   s-Pop       p-Pop       
    1          C          -0.278624        4.2786     1.06290     3.21573
    2          N          -0.435849        5.4358     1.67321     3.76264
    3          C          -0.282290        4.2823     1.06306     3.21923
    4          C           0.215954        3.7840     1.04327     2.74078
    5          C          -0.490330        4.4903     1.05701     3.43332
    6          C          -0.312547        4.3125     1.06558     3.24697
    7          C          -0.250822        4.2508     1.04047     3.21035
    8          C           0.262222        3.7378     1.11196     2.62582
    9          N          -0.418542        5.4185     1.83182     3.58672
   10          H           0.138107        0.8619     0.86189
   11          H           0.157243        0.8428     0.84276
   12          H           0.154413        0.8456     0.84559
   13          H           0.156203        0.8438     0.84380
   14          H           0.140807        0.8592     0.85919
   15          H           0.152552        0.8474     0.84745
   16          H           0.171546        0.8285     0.82845
   17          H           0.170260        0.8297     0.82974
   18          H           0.171697        0.8283     0.82830
   19          H           0.181243        0.8188     0.81876
   20          H           0.181939        0.8181     0.81806
   21          H           0.214818        0.7852     0.78518
 DIPOLE           X         Y         Z       TOTAL
 POINT-CHG.    -0.763    -6.434     0.326     6.487
 HYBRID        -0.086    -0.690     0.395     0.800
 SUM           -0.849    -7.124     0.721     7.211


          ATOMIC ORBITAL ELECTRON POPULATIONS

     Atom    s        px        py        pz   
    1  C   1.06290   1.12954   1.07596   1.01024
    2  N   1.67321   1.12491   1.45120   1.18652
    3  C   1.06306   1.03785   1.14058   1.04080
    4  C   1.04327   0.84557   0.91614   0.97906
    5  C   1.05701   1.20320   1.08202   1.14810
    6  C   1.06558   1.09329   1.12116   1.03252
    7  C   1.04047   1.18120   0.91709   1.11206
    8  C   1.11196   0.85776   0.90962   0.85845
    9  N   1.83182   1.17851   1.23921   1.16901
   10  H   0.86189
   11  H   0.84276
   12  H   0.84559
   13  H   0.84380
   14  H   0.85919
   15  H   0.84745
   16  H   0.82845
   17  H   0.82974
   18  H   0.82830
   19  H   0.81876
   20  H   0.81806
   21  H   0.78518

 **********************
 *                    *
 * JOB ENDED NORMALLY *
 *                    *
 **********************



 TOTAL JOB TIME:             0.91 SECONDS

 == MOPAC DONE ==
