 *******************************************************************************
 **                                                                           **
 **                              MOPAC v23.2                                  **
 **                                                                           **
 *******************************************************************************
 **          Digital Object Identifier (DOI): 10.5281/zenodo.6511958          **
 **    Visit the DOI location for information on how to cite this program.    **
 *******************************************************************************

                              PM7 CALCULATION RESULTS

 *******************************************************************************
 *  CALCULATION DONE: (MAX THREADS = 40)             Fri Sep 19 21:52:07 2025  *
 *  PM7        - The PM7 Hamiltonian to be used
 *
 *
 *
 *                 CHARGE ON SYSTEM = +1
 *
 *
 *
 *  1SCF       - DO 1 SCF AND THEN STOP 
 *  T=         - A TIME OF 172800.0 SECONDS REQUESTED
 *  DUMP=N     - RESTART FILE WRITTEN EVERY 7200.0 SECONDS REQUESTED
 *  RELSCF     - DEFAULT SCF CRITERION MULTIPLIED BY 0.0001
 *              (DEFAULT SCF CRITERION = 0.00010)
 *  GRADIENTS  - ALL GRADIENTS TO BE PRINTED
 *  DISP       - PRINT DISPERSION AND HYDROGEN BOND ENERGIES
 *******************************************************************************
PM7 1SCF GRADIENTS DISP RELSCF=0.0001 CHARGE=1
 Title: ASE calculation

   ATOM   CHEMICAL          X               Y               Z
  NUMBER   SYMBOL      (ANGSTROMS)     (ANGSTROMS)     (ANGSTROMS)

     1       C          1.87930261  *  -0.21511083  *   0.17474908  *
     2       N          0.60559638  *  -0.74115336  *   0.62647978  *
     3       C         -0.44226874  *   0.12368299  *   1.20059782  *
     4       C         -0.48468581  *   1.57768160  *   0.92384990  *
     5       O         -0.42839996  *   2.59438070  *   1.51830818  *
     6       N         -0.70743629  *   1.69958627  *  -0.59280261  *
     7       C         -0.77685992  *   0.43388777  *  -1.23878232  *
     8       C         -0.64125830  *  -0.63881386  *  -0.13190453  *
     9       C         -1.45952890  *  -1.86523110  *  -0.31385274  *
    10       H          2.54693070  *  -0.10677021  *   1.06084405  *
    11       H          2.35808480  *  -0.98920535  *  -0.46713958  *
    12       H          1.87627114  *   0.73590102  *  -0.37018919  *
    13       H         -0.83091583  *  -0.18953190  *   2.18608546  *
    14       H         -0.80064381  *   2.58518305  *  -1.08010600  *
    15       H         -1.74166542  *   0.30632436  *  -1.82006006  *
    16       H          0.00216243  *   0.31411108  *  -2.04873909  *
    17       H         -1.27712740  *  -2.60557971  *   0.49360880  *
    18       H         -1.21663758  *  -2.39672995  *  -1.25022083  *
    19       H         -2.54224579  *  -1.66386680  *  -0.31018915  *



          CARTESIAN COORDINATES 

    NO.       ATOM           X           Y           Z

     1         C          1.8793     -0.2151      0.1747
     2         N          0.6056     -0.7412      0.6265
     3         C         -0.4423      0.1237      1.2006
     4         C         -0.4847      1.5777      0.9238
     5         O         -0.4284      2.5944      1.5183
     6         N         -0.7074      1.6996     -0.5928
     7         C         -0.7769      0.4339     -1.2388
     8         C         -0.6413     -0.6388     -0.1319
     9         C         -1.4595     -1.8652     -0.3139
    10         H          2.5469     -0.1068      1.0608
    11         H          2.3581     -0.9892     -0.4671
    12         H          1.8763      0.7359     -0.3702
    13         H         -0.8309     -0.1895      2.1861
    14         H         -0.8006      2.5852     -1.0801
    15         H         -1.7417      0.3063     -1.8201
    16         H          0.0022      0.3141     -2.0487
    17         H         -1.2771     -2.6056      0.4936
    18         H         -1.2166     -2.3967     -1.2502
    19         H         -2.5422     -1.6639     -0.3102

 General Reference for PM7:
 "Optimization of Parameters for Semiempirical Methods VI: More Modifications to the 
 NDDO Approximations and Re-optimization of Parameters", J. J. P. Stewart, J. Mol. Mod., 1:32, 19 (2013)
 https://link.springer.com/article/10.1007/s00894-012-1667-x

           Empirical Formula: C6 H10 N2 O  =    19 atoms



      MOLECULAR POINT GROUP   :   C1  


          UHF CALCULATION, NO. OF ALPHA ELECTRONS =   25
                           NO. OF BETA  ELECTRONS =   24
  SCF CRITERION =    0.1000E-07

 -------------------------------------------------------------------------------
 PM7 1SCF GRADIENTS DISP RELSCF=0.0001 CHARGE=1
 Title: ASE calculation



     1SCF WAS SPECIFIED, SO BFGS WAS NOT USED                 
     SCF FIELD WAS ACHIEVED                                   


                              PM7 CALCULATION
                                                       MOPAC v23.2 Linux
                                                       Fri Sep 19 21:52:08 2025




          FINAL HEAT OF FORMATION =        200.54471 KCAL/MOL =     839.07908 KJ/MOL

          TOTAL ENERGY            =     -35277.83137 KCAL/MOL = ELECTRONIC ENERGY + CORE-CORE REPULSION
          ENERGY OF ATOMS         =      35480.40871 KCAL/MOL
                              SUM =        202.57734 KCAL/MOL
          DISPERSION ENERGY       =         -2.03297 KCAL/MOL
          MM CORR. FOR -CO-NH-    =          0.00034 KCAL/MOL
                              SUM =        200.54471 KCAL/MOL = FINAL HEAT OF FORMATION



          TOTAL ENERGY            =      -1529.79156 EV
          ELECTRONIC ENERGY       =      -7580.14207 EV 
          CORE-CORE REPULSION     =       6050.35052 EV
          COSMO AREA              =        157.57 SQUARE ANGSTROMS
          COSMO VOLUME            =        157.11 CUBIC ANGSTROMS

          GRADIENT NORM           =          1.05136          =       0.24120 PER ATOM
          IONIZATION POTENTIAL    =         14.446017 EV
          ALPHA SOMO LUMO (EV)    =        -14.465 -5.118
          BETA  SOMO LUMO (EV)    =        -14.446 -7.800
          NO. OF ALPHA ELECTRONS  =         25
          NO. OF BETA  ELECTRONS  =         24
          MOLECULAR WEIGHT        =        126.1578         POINT GROUP:  C1  

          MOLECULAR DIMENSIONS (Angstroms)

            Atom       Atom       Distance
            H    18    O     5     5.76171
            H    10    H    15     4.92545
            H    16    H    13     3.86879


          SCF CALCULATIONS        =          1

          WALL-CLOCK TIME         =      1.039 SECONDS
          COMPUTATION TIME        =      0.706 SECONDS

          LARGEST ATOMIC GRADIENTS

          Atom     Label                     Cartesian Gradients           Cartesian Coordinates       |Gradient|
                                           X          Y          Z        X          Y          Z

             2       N                   0.215     -0.027      0.336    0.60560   -0.74115    0.62648      0.400
             8       C                   0.188     -0.329      0.003   -0.64126   -0.63881   -0.13190      0.379
             7       C                   0.055     -0.341      0.035   -0.77686    0.43389   -1.23878      0.347
            19       H                  -0.164      0.214     -0.153   -2.54225   -1.66387   -0.31019      0.310
            13       H                   0.258      0.127     -0.104   -0.83092   -0.18953    2.18609      0.306
             4       C                  -0.149     -0.072      0.213   -0.48469    1.57768    0.92385      0.269
            11       H                  -0.188      0.122     -0.140    2.35808   -0.98921   -0.46714      0.264
            16       H                  -0.232      0.087      0.083    0.00216    0.31411   -2.04874      0.261
            18       H                  -0.040      0.131     -0.222   -1.21664   -2.39673   -1.25022      0.260
             5       O                  -0.161      0.071     -0.153   -0.42840    2.59438    1.51831      0.233



       FINAL  POINT  AND  DERIVATIVES

   PARAMETER     ATOM    TYPE            VALUE        GRADIENT
      1          1  C    CARTESIAN X     1.879303      0.021003  KCAL/ANGSTROM
      2          1  C    CARTESIAN Y    -0.215111      0.048548  KCAL/ANGSTROM
      3          1  C    CARTESIAN Z     0.174749      0.086189  KCAL/ANGSTROM
      4          2  N    CARTESIAN X     0.605596      0.215165  KCAL/ANGSTROM
      5          2  N    CARTESIAN Y    -0.741153     -0.027365  KCAL/ANGSTROM
      6          2  N    CARTESIAN Z     0.626480      0.335681  KCAL/ANGSTROM
      7          3  C    CARTESIAN X    -0.442269     -0.008724  KCAL/ANGSTROM
      8          3  C    CARTESIAN Y     0.123683     -0.009906  KCAL/ANGSTROM
      9          3  C    CARTESIAN Z     1.200598     -0.017447  KCAL/ANGSTROM
     10          4  C    CARTESIAN X    -0.484686     -0.149008  KCAL/ANGSTROM
     11          4  C    CARTESIAN Y     1.577682     -0.071707  KCAL/ANGSTROM
     12          4  C    CARTESIAN Z     0.923850      0.212512  KCAL/ANGSTROM
     13          5  O    CARTESIAN X    -0.428400     -0.160625  KCAL/ANGSTROM
     14          5  O    CARTESIAN Y     2.594381      0.070761  KCAL/ANGSTROM
     15          5  O    CARTESIAN Z     1.518308     -0.152512  KCAL/ANGSTROM
     16          6  N    CARTESIAN X    -0.707436      0.121321  KCAL/ANGSTROM
     17          6  N    CARTESIAN Y     1.699586     -0.122829  KCAL/ANGSTROM
     18          6  N    CARTESIAN Z    -0.592803     -0.065150  KCAL/ANGSTROM
     19          7  C    CARTESIAN X    -0.776860      0.054730  KCAL/ANGSTROM
     20          7  C    CARTESIAN Y     0.433888     -0.340586  KCAL/ANGSTROM
     21          7  C    CARTESIAN Z    -1.238782      0.034809  KCAL/ANGSTROM
     22          8  C    CARTESIAN X    -0.641258      0.187630  KCAL/ANGSTROM
     23          8  C    CARTESIAN Y    -0.638814     -0.329312  KCAL/ANGSTROM
     24          8  C    CARTESIAN Z    -0.131905      0.003018  KCAL/ANGSTROM
     25          9  C    CARTESIAN X    -1.459529     -0.046221  KCAL/ANGSTROM
     26          9  C    CARTESIAN Y    -1.865231     -0.037561  KCAL/ANGSTROM
     27          9  C    CARTESIAN Z    -0.313853     -0.002873  KCAL/ANGSTROM
     28         10  H    CARTESIAN X     2.546931      0.093609  KCAL/ANGSTROM
     29         10  H    CARTESIAN Y    -0.106770      0.070115  KCAL/ANGSTROM
     30         10  H    CARTESIAN Z     1.060844     -0.099198  KCAL/ANGSTROM
     31         11  H    CARTESIAN X     2.358085     -0.187723  KCAL/ANGSTROM
     32         11  H    CARTESIAN Y    -0.989205      0.121783  KCAL/ANGSTROM
     33         11  H    CARTESIAN Z    -0.467140     -0.139981  KCAL/ANGSTROM
     34         12  H    CARTESIAN X     1.876271      0.000171  KCAL/ANGSTROM
     35         12  H    CARTESIAN Y     0.735901      0.034567  KCAL/ANGSTROM
     36         12  H    CARTESIAN Z    -0.370189      0.090568  KCAL/ANGSTROM
     37         13  H    CARTESIAN X    -0.830916      0.258334  KCAL/ANGSTROM
     38         13  H    CARTESIAN Y    -0.189532      0.126930  KCAL/ANGSTROM
     39         13  H    CARTESIAN Z     2.186085     -0.104253  KCAL/ANGSTROM
     40         14  H    CARTESIAN X    -0.800644      0.064888  KCAL/ANGSTROM
     41         14  H    CARTESIAN Y     2.585183      0.092431  KCAL/ANGSTROM
     42         14  H    CARTESIAN Z    -1.080106     -0.037940  KCAL/ANGSTROM
     43         15  H    CARTESIAN X    -1.741665      0.146061  KCAL/ANGSTROM
     44         15  H    CARTESIAN Y     0.306324     -0.023754  KCAL/ANGSTROM
     45         15  H    CARTESIAN Z    -1.820060      0.075315  KCAL/ANGSTROM
     46         16  H    CARTESIAN X     0.002162     -0.232209  KCAL/ANGSTROM
     47         16  H    CARTESIAN Y     0.314111      0.086534  KCAL/ANGSTROM
     48         16  H    CARTESIAN Z    -2.048739      0.083135  KCAL/ANGSTROM
     49         17  H    CARTESIAN X    -1.277127     -0.173665  KCAL/ANGSTROM
     50         17  H    CARTESIAN Y    -2.605580     -0.033439  KCAL/ANGSTROM
     51         17  H    CARTESIAN Z     0.493609      0.072465  KCAL/ANGSTROM
     52         18  H    CARTESIAN X    -1.216638     -0.040374  KCAL/ANGSTROM
     53         18  H    CARTESIAN Y    -2.396730      0.130806  KCAL/ANGSTROM
     54         18  H    CARTESIAN Z    -1.250221     -0.221524  KCAL/ANGSTROM
     55         19  H    CARTESIAN X    -2.542246     -0.164362  KCAL/ANGSTROM
     56         19  H    CARTESIAN Y    -1.663867      0.213984  KCAL/ANGSTROM
     57         19  H    CARTESIAN Z    -0.310189     -0.152819  KCAL/ANGSTROM




   ATOM   CHEMICAL          X               Y               Z
  NUMBER   SYMBOL      (ANGSTROMS)     (ANGSTROMS)     (ANGSTROMS)

     1       C          1.87930261  *  -0.21511083  *   0.17474908  *
     2       N          0.60559638  *  -0.74115336  *   0.62647978  *
     3       C         -0.44226874  *   0.12368299  *   1.20059782  *
     4       C         -0.48468581  *   1.57768160  *   0.92384990  *
     5       O         -0.42839996  *   2.59438070  *   1.51830818  *
     6       N         -0.70743629  *   1.69958627  *  -0.59280261  *
     7       C         -0.77685992  *   0.43388777  *  -1.23878232  *
     8       C         -0.64125830  *  -0.63881386  *  -0.13190453  *
     9       C         -1.45952890  *  -1.86523110  *  -0.31385274  *
    10       H          2.54693070  *  -0.10677021  *   1.06084405  *
    11       H          2.35808480  *  -0.98920535  *  -0.46713958  *
    12       H          1.87627114  *   0.73590102  *  -0.37018919  *
    13       H         -0.83091583  *  -0.18953190  *   2.18608546  *
    14       H         -0.80064381  *   2.58518305  *  -1.08010600  *
    15       H         -1.74166542  *   0.30632436  *  -1.82006006  *
    16       H          0.00216243  *   0.31411108  *  -2.04873909  *
    17       H         -1.27712740  *  -2.60557971  *   0.49360880  *
    18       H         -1.21663758  *  -2.39672995  *  -1.25022083  *
    19       H         -2.54224579  *  -1.66386680  *  -0.31018915  *

                             CARTESIAN COORDINATES

   1    C        1.879302609    -0.215110828     0.174749077
   2    N        0.605596379    -0.741153364     0.626479785
   3    C       -0.442268737     0.123682991     1.200597818
   4    C       -0.484685807     1.577681604     0.923849902
   5    O       -0.428399957     2.594380698     1.518308181
   6    N       -0.707436286     1.699586270    -0.592802614
   7    C       -0.776859921     0.433887769    -1.238782321
   8    C       -0.641258296    -0.638813859    -0.131904529
   9    C       -1.459528897    -1.865231098    -0.313852739
  10    H        2.546930700    -0.106770206     1.060844048
  11    H        2.358084797    -0.989205345    -0.467139584
  12    H        1.876271140     0.735901022    -0.370189190
  13    H       -0.830915827    -0.189531898     2.186085457
  14    H       -0.800643811     2.585183052    -1.080105996
  15    H       -1.741665419     0.306324358    -1.820060057
  16    H        0.002162425     0.314111079    -2.048739086
  17    H       -1.277127402    -2.605579709     0.493608795
  18    H       -1.216637576    -2.396729953    -1.250220829
  19    H       -2.542245791    -1.663866796    -0.310189150


           Empirical Formula: C6 H10 N2 O  =    19 atoms



      MOLECULAR POINT GROUP   :   C1  


          ALPHA EIGENVALUES  
 -43.50998 -40.95134 -37.85947 -32.33796 -30.90284 -29.47844 -28.41861 -25.63917
 -24.14255 -23.68174 -22.60819 -21.55443 -21.23272 -20.67716 -20.21377 -19.53530
 -18.78988 -18.55762 -18.20541 -17.60644 -17.37765 -17.08987 -16.25771 -15.88530
 -14.46503  -5.11784  -4.72305  -3.25061  -2.68115  -2.44871  -2.29931  -2.07684
  -1.33407  -0.95807  -0.84030  -0.39607  -0.30537  -0.23165   0.30263   1.00482
   1.16893   1.39103   1.54277   1.60497   2.27711   2.76958


           BETA EIGENVALUES 
 -42.38942 -40.25964 -37.58294 -32.19246 -30.79773 -29.19923 -28.34326 -25.45589
 -24.08293 -23.33011 -21.67294 -21.38594 -21.12334 -20.42129 -19.87843 -19.30738
 -18.59735 -18.49390 -18.17131 -17.37257 -16.99209 -16.23213 -15.87249 -14.44602
  -7.79971  -4.70430  -4.22613  -3.07107  -2.66443  -2.41186  -2.22129  -1.89808
  -1.28131  -0.79982  -0.75523  -0.37628  -0.12546   0.03413   0.30811   1.00281
   1.16876   1.39126   1.54272   1.60509   2.27708   2.76965


              NET ATOMIC CHARGES AND DIPOLE CONTRIBUTIONS

  ATOM NO.   TYPE          CHARGE      No. of ELECS.   s-Pop       p-Pop       
    1          C          -0.306624        4.3066     1.06347     3.24316
    2          N          -0.265754        5.2658     1.72318     3.54257
    3          C          -0.200427        4.2004     1.08553     3.11489
    4          C           0.478548        3.5215     1.15414     2.36731
    5          O          -0.170504        6.1705     1.87905     4.29145
    6          N          -0.168118        5.1681     1.60918     3.55894
    7          C          -0.238030        4.2380     1.08843     3.14960
    8          C           0.151047        3.8490     1.07039     2.77856
    9          C          -0.456138        4.4561     1.05019     3.40595
   10          H           0.200921        0.7991     0.79908
   11          H           0.196482        0.8035     0.80352
   12          H           0.125736        0.8743     0.87426
   13          H           0.246922        0.7531     0.75308
   14          H           0.337203        0.6628     0.66280
   15          H           0.248595        0.7514     0.75141
   16          H           0.243540        0.7565     0.75646
   17          H           0.209203        0.7908     0.79080
   18          H           0.187692        0.8123     0.81231
   19          H           0.179707        0.8203     0.82029
 DIPOLE           X         Y         Z       TOTAL
 POINT-CHG.    -1.546     0.618    -4.197     4.515
 HYBRID         0.037     1.871    -0.857     2.058
 SUM           -1.509     2.489    -5.054     5.832


          ATOMIC ORBITAL ELECTRON POPULATIONS

     Atom    s        px        py        pz   
    1  C   1.06347   0.92575   1.13503   1.18238
    2  N   1.72318   1.00621   1.32530   1.21107
    3  C   1.08553   1.12359   0.88335   1.10795
    4  C   1.15414   0.72994   0.91653   0.72084
    5  O   1.87905   1.32737   1.36330   1.60077
    6  N   1.60918   1.11831   1.18102   1.25961
    7  C   1.08843   1.19948   0.86752   1.08261
    8  C   1.07039   0.97565   0.96170   0.84120
    9  C   1.05019   1.12488   1.05171   1.22935
   10  H   0.79908
   11  H   0.80352
   12  H   0.87426
   13  H   0.75308
   14  H   0.66280
   15  H   0.75141
   16  H   0.75646
   17  H   0.79080
   18  H   0.81231
   19  H   0.82029


                    (SZ)    =    0.500000
                    (S**2)  =    0.766109


          ATOMIC ORBITAL SPIN POPULATIONS

    Atom   Total    s     px     py     pz   
         Atomic
    1  C  0.0003  0.000  0.000  0.000  0.000
    2  N -0.0028  0.000 -0.001 -0.005  0.002
    3  C -0.0056 -0.001  0.001 -0.005 -0.002
    4  C -0.0826 -0.001 -0.051 -0.003 -0.028
    5  O  0.0704  0.002  0.092  0.001 -0.025
    6  N  0.9727  0.043  0.815  0.044  0.071
    7  C -0.0273 -0.008  0.028 -0.032 -0.016
    8  C -0.0008  0.000 -0.001 -0.000  0.000
    9  C  0.0000  0.000 -0.000  0.000 -0.000
   10  H  0.0001  0.000
   11  H -0.0001 -0.000
   12  H -0.0002 -0.000
   13  H -0.0015 -0.001
   14  H -0.0343 -0.034
   15  H  0.0560  0.056
   16  H  0.0556  0.056
   17  H  0.0000  0.000
   18  H -0.0000 -0.000
   19  H -0.0000 -0.000

 **********************
 *                    *
 * JOB ENDED NORMALLY *
 *                    *
 **********************



 TOTAL JOB TIME:             1.45 SECONDS

 == MOPAC DONE ==
