 *******************************************************************************
 **                                                                           **
 **                              MOPAC v23.2                                  **
 **                                                                           **
 *******************************************************************************
 **          Digital Object Identifier (DOI): 10.5281/zenodo.6511958          **
 **    Visit the DOI location for information on how to cite this program.    **
 *******************************************************************************

                              PM7 CALCULATION RESULTS

 *******************************************************************************
 *  CALCULATION DONE: (MAX THREADS = 40)             Fri Sep 19 21:27:29 2025  *
 *  PM7        - The PM7 Hamiltonian to be used
 *  1SCF       - DO 1 SCF AND THEN STOP 
 *  T=         - A TIME OF 172800.0 SECONDS REQUESTED
 *  DUMP=N     - RESTART FILE WRITTEN EVERY 7200.0 SECONDS REQUESTED
 *  RELSCF     - DEFAULT SCF CRITERION MULTIPLIED BY 0.0001
 *              (DEFAULT SCF CRITERION = 0.00010)
 *  GRADIENTS  - ALL GRADIENTS TO BE PRINTED
 *  DISP       - PRINT DISPERSION AND HYDROGEN BOND ENERGIES
 *******************************************************************************
PM7 1SCF GRADIENTS DISP RELSCF=0.0001
 Title: ASE calculation

   ATOM   CHEMICAL          X               Y               Z
  NUMBER   SYMBOL      (ANGSTROMS)     (ANGSTROMS)     (ANGSTROMS)

     1       C         -2.35720804  *  -0.24525607  *   0.79201798  *
     2       C         -1.17751474  *   0.69114473  *   1.02835060  *
     3       C          0.00223104  *   0.41064605  *   0.08257749  *
     4       C         -0.34782183  *   0.61010921  *  -1.38774387  *
     5       C          0.67970200  *  -0.94466017  *   0.36375849  *
     6       C          1.95328899  *  -0.59132745  *   1.08321332  *
     7       O          2.73722561  *  -1.36320400  *   1.55762165  *
     8       C          2.06402563  *   0.91668863  *   1.11278588  *
     9       O          0.97943934  *   1.43378078  *   0.36599970  *
    10       H         -2.80370926  *  -0.09099133  *  -0.19728555  *
    11       H         -3.14744729  *  -0.07751574  *   1.53383903  *
    12       H         -2.06725228  *  -1.29961121  *   0.86197992  *
    13       H         -0.83025466  *   0.62075312  *   2.07722958  *
    14       H         -1.49398309  *   1.74658559  *   0.90260858  *
    15       H         -1.03472829  *  -0.16174955  *  -1.74860133  *
    16       H         -0.82237909  *   1.58677345  *  -1.55145790  *
    17       H          0.55294993  *   0.59095552  *  -2.01470340  *
    18       H          0.05111853  *  -1.61922895  *   0.97259713  *
    19       H          0.89802051  *  -1.50563615  *  -0.56323921  *
    20       H          2.00013891  *   1.32187659  *   2.13845331  *
    21       H          2.97969732  *   1.29556072  *   0.62426318  *



          CARTESIAN COORDINATES 

    NO.       ATOM           X           Y           Z

     1         C         -2.3572     -0.2453      0.7920
     2         C         -1.1775      0.6911      1.0284
     3         C          0.0022      0.4106      0.0826
     4         C         -0.3478      0.6101     -1.3877
     5         C          0.6797     -0.9447      0.3638
     6         C          1.9533     -0.5913      1.0832
     7         O          2.7372     -1.3632      1.5576
     8         C          2.0640      0.9167      1.1128
     9         O          0.9794      1.4338      0.3660
    10         H         -2.8037     -0.0910     -0.1973
    11         H         -3.1474     -0.0775      1.5338
    12         H         -2.0673     -1.2996      0.8620
    13         H         -0.8303      0.6208      2.0772
    14         H         -1.4940      1.7466      0.9026
    15         H         -1.0347     -0.1617     -1.7486
    16         H         -0.8224      1.5868     -1.5515
    17         H          0.5529      0.5910     -2.0147
    18         H          0.0511     -1.6192      0.9726
    19         H          0.8980     -1.5056     -0.5632
    20         H          2.0001      1.3219      2.1385
    21         H          2.9797      1.2956      0.6243

 General Reference for PM7:
 "Optimization of Parameters for Semiempirical Methods VI: More Modifications to the 
 NDDO Approximations and Re-optimization of Parameters", J. J. P. Stewart, J. Mol. Mod., 1:32, 19 (2013)
 https://link.springer.com/article/10.1007/s00894-012-1667-x

           Empirical Formula: C7 H12 O2  =    21 atoms



      MOLECULAR POINT GROUP   :   C1  


      RHF CALCULATION, NO. OF DOUBLY OCCUPIED LEVELS = 26

  SCF CRITERION =    0.1000E-07

 -------------------------------------------------------------------------------
 PM7 1SCF GRADIENTS DISP RELSCF=0.0001
 Title: ASE calculation



     1SCF WAS SPECIFIED, SO BFGS WAS NOT USED                 
     SCF FIELD WAS ACHIEVED                                   


                              PM7 CALCULATION
                                                       MOPAC v23.2 Linux
                                                       Fri Sep 19 21:27:29 2025




          FINAL HEAT OF FORMATION =       -100.47165 KCAL/MOL =    -420.37340 KJ/MOL

          TOTAL ENERGY            =     -37195.62054 KCAL/MOL = ELECTRONIC ENERGY + CORE-CORE REPULSION
          ENERGY OF ATOMS         =      37097.27293 KCAL/MOL
                              SUM =        -98.34761 KCAL/MOL
          DISPERSION ENERGY       =         -2.12405 KCAL/MOL
                              SUM =       -100.47165 KCAL/MOL = FINAL HEAT OF FORMATION



          TOTAL ENERGY            =      -1612.95477 EV
          ELECTRONIC ENERGY       =      -8049.34511 EV 
          CORE-CORE REPULSION     =       6436.39034 EV
          COSMO AREA              =        166.73 SQUARE ANGSTROMS
          COSMO VOLUME            =        169.41 CUBIC ANGSTROMS

          GRADIENT NORM           =          1.06409          =       0.23220 PER ATOM
          IONIZATION POTENTIAL    =         10.124318 EV
          HOMO LUMO ENERGIES (EV) =        -10.124  0.603
          NO. OF FILLED LEVELS    =         26
          MOLECULAR WEIGHT        =        128.1706         POINT GROUP:  C1  

          MOLECULAR DIMENSIONS (Angstroms)

            Atom       Atom       Distance
            H    21    H    11     6.34465
            H    16    O     7     5.04984
            H    19    H    20     3.84864


          SCF CALCULATIONS        =          1

          WALL-CLOCK TIME         =      0.500 SECONDS
          COMPUTATION TIME        =      0.936 SECONDS

          LARGEST ATOMIC GRADIENTS

          Atom     Label                     Cartesian Gradients           Cartesian Coordinates       |Gradient|
                                           X          Y          Z        X          Y          Z

             6       C                  -0.126     -0.344      0.054    1.95329   -0.59133    1.08321      0.371
            20       H                   0.193     -0.250      0.161    2.00014    1.32188    2.13845      0.354
            19       H                  -0.028      0.332      0.039    0.89802   -1.50564   -0.56324      0.336
            11       H                   0.126     -0.273     -0.051   -3.14745   -0.07752    1.53384      0.305
             5       C                  -0.155     -0.209      0.159    0.67970   -0.94466    0.36376      0.305
            21       H                   0.253      0.142      0.057    2.97970    1.29556    0.62426      0.296
            16       H                  -0.179      0.069     -0.201   -0.82238    1.58677   -1.55146      0.278
             7       O                  -0.232      0.068      0.104    2.73723   -1.36320    1.55762      0.263
            18       H                  -0.062      0.180      0.180    0.05112   -1.61923    0.97260      0.262
             9       O                  -0.030      0.238     -0.095    0.97944    1.43378    0.36600      0.258



       FINAL  POINT  AND  DERIVATIVES

   PARAMETER     ATOM    TYPE            VALUE        GRADIENT
      1          1  C    CARTESIAN X    -2.357208      0.137499  KCAL/ANGSTROM
      2          1  C    CARTESIAN Y    -0.245256     -0.008688  KCAL/ANGSTROM
      3          1  C    CARTESIAN Z     0.792018      0.008730  KCAL/ANGSTROM
      4          2  C    CARTESIAN X    -1.177515      0.043194  KCAL/ANGSTROM
      5          2  C    CARTESIAN Y     0.691145      0.035805  KCAL/ANGSTROM
      6          2  C    CARTESIAN Z     1.028351      0.017567  KCAL/ANGSTROM
      7          3  C    CARTESIAN X     0.002231      0.014390  KCAL/ANGSTROM
      8          3  C    CARTESIAN Y     0.410646      0.031647  KCAL/ANGSTROM
      9          3  C    CARTESIAN Z     0.082577     -0.036622  KCAL/ANGSTROM
     10          4  C    CARTESIAN X    -0.347822     -0.072729  KCAL/ANGSTROM
     11          4  C    CARTESIAN Y     0.610109     -0.026910  KCAL/ANGSTROM
     12          4  C    CARTESIAN Z    -1.387744     -0.081157  KCAL/ANGSTROM
     13          5  C    CARTESIAN X     0.679702     -0.155401  KCAL/ANGSTROM
     14          5  C    CARTESIAN Y    -0.944660     -0.208642  KCAL/ANGSTROM
     15          5  C    CARTESIAN Z     0.363758      0.158539  KCAL/ANGSTROM
     16          6  C    CARTESIAN X     1.953289     -0.126455  KCAL/ANGSTROM
     17          6  C    CARTESIAN Y    -0.591327     -0.344304  KCAL/ANGSTROM
     18          6  C    CARTESIAN Z     1.083213      0.054029  KCAL/ANGSTROM
     19          7  O    CARTESIAN X     2.737226     -0.232023  KCAL/ANGSTROM
     20          7  O    CARTESIAN Y    -1.363204      0.068049  KCAL/ANGSTROM
     21          7  O    CARTESIAN Z     1.557622      0.104318  KCAL/ANGSTROM
     22          8  C    CARTESIAN X     2.064026     -0.054439  KCAL/ANGSTROM
     23          8  C    CARTESIAN Y     0.916689     -0.057002  KCAL/ANGSTROM
     24          8  C    CARTESIAN Z     1.112786     -0.097994  KCAL/ANGSTROM
     25          9  O    CARTESIAN X     0.979439     -0.029562  KCAL/ANGSTROM
     26          9  O    CARTESIAN Y     1.433781      0.238379  KCAL/ANGSTROM
     27          9  O    CARTESIAN Z     0.366000     -0.094970  KCAL/ANGSTROM
     28         10  H    CARTESIAN X    -2.803709      0.098010  KCAL/ANGSTROM
     29         10  H    CARTESIAN Y    -0.090991     -0.079728  KCAL/ANGSTROM
     30         10  H    CARTESIAN Z    -0.197286      0.052969  KCAL/ANGSTROM
     31         11  H    CARTESIAN X    -3.147447      0.125709  KCAL/ANGSTROM
     32         11  H    CARTESIAN Y    -0.077516     -0.273130  KCAL/ANGSTROM
     33         11  H    CARTESIAN Z     1.533839     -0.050743  KCAL/ANGSTROM
     34         12  H    CARTESIAN X    -2.067252      0.135075  KCAL/ANGSTROM
     35         12  H    CARTESIAN Y    -1.299611      0.039480  KCAL/ANGSTROM
     36         12  H    CARTESIAN Z     0.861980     -0.064226  KCAL/ANGSTROM
     37         13  H    CARTESIAN X    -0.830255      0.094493  KCAL/ANGSTROM
     38         13  H    CARTESIAN Y     0.620753      0.183956  KCAL/ANGSTROM
     39         13  H    CARTESIAN Z     2.077230     -0.071281  KCAL/ANGSTROM
     40         14  H    CARTESIAN X    -1.493983     -0.066197  KCAL/ANGSTROM
     41         14  H    CARTESIAN Y     1.746586     -0.031742  KCAL/ANGSTROM
     42         14  H    CARTESIAN Z     0.902609      0.107031  KCAL/ANGSTROM
     43         15  H    CARTESIAN X    -1.034728     -0.040921  KCAL/ANGSTROM
     44         15  H    CARTESIAN Y    -0.161750     -0.066842  KCAL/ANGSTROM
     45         15  H    CARTESIAN Z    -1.748601     -0.150138  KCAL/ANGSTROM
     46         16  H    CARTESIAN X    -0.822379     -0.179189  KCAL/ANGSTROM
     47         16  H    CARTESIAN Y     1.586773      0.068555  KCAL/ANGSTROM
     48         16  H    CARTESIAN Z    -1.551458     -0.200568  KCAL/ANGSTROM
     49         17  H    CARTESIAN X     0.552950     -0.047568  KCAL/ANGSTROM
     50         17  H    CARTESIAN Y     0.590956      0.026870  KCAL/ANGSTROM
     51         17  H    CARTESIAN Z    -2.014703     -0.093653  KCAL/ANGSTROM
     52         18  H    CARTESIAN X     0.051119     -0.062103  KCAL/ANGSTROM
     53         18  H    CARTESIAN Y    -1.619229      0.179745  KCAL/ANGSTROM
     54         18  H    CARTESIAN Z     0.972597      0.180474  KCAL/ANGSTROM
     55         19  H    CARTESIAN X     0.898021     -0.028286  KCAL/ANGSTROM
     56         19  H    CARTESIAN Y    -1.505636      0.332103  KCAL/ANGSTROM
     57         19  H    CARTESIAN Z    -0.563239      0.039129  KCAL/ANGSTROM
     58         20  H    CARTESIAN X     2.000139      0.193134  KCAL/ANGSTROM
     59         20  H    CARTESIAN Y     1.321877     -0.249675  KCAL/ANGSTROM
     60         20  H    CARTESIAN Z     2.138453      0.161112  KCAL/ANGSTROM
     61         21  H    CARTESIAN X     2.979697      0.253369  KCAL/ANGSTROM
     62         21  H    CARTESIAN Y     1.295561      0.142070  KCAL/ANGSTROM
     63         21  H    CARTESIAN Z     0.624263      0.057450  KCAL/ANGSTROM




   ATOM   CHEMICAL          X               Y               Z
  NUMBER   SYMBOL      (ANGSTROMS)     (ANGSTROMS)     (ANGSTROMS)

     1       C         -2.35720804  *  -0.24525607  *   0.79201798  *
     2       C         -1.17751474  *   0.69114473  *   1.02835060  *
     3       C          0.00223104  *   0.41064605  *   0.08257749  *
     4       C         -0.34782183  *   0.61010921  *  -1.38774387  *
     5       C          0.67970200  *  -0.94466017  *   0.36375849  *
     6       C          1.95328899  *  -0.59132745  *   1.08321332  *
     7       O          2.73722561  *  -1.36320400  *   1.55762165  *
     8       C          2.06402563  *   0.91668863  *   1.11278588  *
     9       O          0.97943934  *   1.43378078  *   0.36599970  *
    10       H         -2.80370926  *  -0.09099133  *  -0.19728555  *
    11       H         -3.14744729  *  -0.07751574  *   1.53383903  *
    12       H         -2.06725228  *  -1.29961121  *   0.86197992  *
    13       H         -0.83025466  *   0.62075312  *   2.07722958  *
    14       H         -1.49398309  *   1.74658559  *   0.90260858  *
    15       H         -1.03472829  *  -0.16174955  *  -1.74860133  *
    16       H         -0.82237909  *   1.58677345  *  -1.55145790  *
    17       H          0.55294993  *   0.59095552  *  -2.01470340  *
    18       H          0.05111853  *  -1.61922895  *   0.97259713  *
    19       H          0.89802051  *  -1.50563615  *  -0.56323921  *
    20       H          2.00013891  *   1.32187659  *   2.13845331  *
    21       H          2.97969732  *   1.29556072  *   0.62426318  *

                             CARTESIAN COORDINATES

   1    C       -2.357208037    -0.245256071     0.792017981
   2    C       -1.177514736     0.691144730     1.028350597
   3    C        0.002231044     0.410646052     0.082577488
   4    C       -0.347821829     0.610109213    -1.387743867
   5    C        0.679702004    -0.944660174     0.363758490
   6    C        1.953288987    -0.591327451     1.083213319
   7    O        2.737225615    -1.363204004     1.557621654
   8    C        2.064025635     0.916688631     1.112785881
   9    O        0.979439341     1.433780784     0.365999695
  10    H       -2.803709258    -0.090991329    -0.197285554
  11    H       -3.147447295    -0.077515737     1.533839026
  12    H       -2.067252283    -1.299611208     0.861979918
  13    H       -0.830254661     0.620753124     2.077229584
  14    H       -1.493983091     1.746585587     0.902608582
  15    H       -1.034728286    -0.161749549    -1.748601332
  16    H       -0.822379091     1.586773446    -1.551457904
  17    H        0.552949928     0.590955523    -2.014703396
  18    H        0.051118527    -1.619228953     0.972597128
  19    H        0.898020511    -1.505636145    -0.563239208
  20    H        2.000138907     1.321876589     2.138453314
  21    H        2.979697321     1.295560724     0.624263185


           Empirical Formula: C7 H12 O2  =    21 atoms



      MOLECULAR POINT GROUP   :   C1  


                  EIGENVALUES  
 -31.70719 -30.86116 -28.49025 -26.29293 -25.84157 -23.90742 -22.29305 -19.83795
 -19.18502 -16.93606 -16.60608 -16.03003 -15.63642 -15.00553 -14.74074 -14.43565
 -13.75762 -13.60222 -13.51732 -13.08048 -12.63551 -12.47043 -12.07049 -11.75455
 -10.40300 -10.12432   0.60320   1.86615   2.87508   3.27547   3.58895   3.72610
   3.87333   4.26875   4.51266   5.01941   5.11652   5.17776   5.29186   5.52626
   5.57218   5.63477   5.72196   5.76780   5.98277   6.42826   6.70649   6.80471


              NET ATOMIC CHARGES AND DIPOLE CONTRIBUTIONS

  ATOM NO.   TYPE          CHARGE      No. of ELECS.   s-Pop       p-Pop       
    1          C          -0.432817        4.4328     1.05036     3.38246
    2          C          -0.308405        4.3084     1.06416     3.24424
    3          C           0.304541        3.6955     1.08563     2.60983
    4          C          -0.480935        4.4809     1.05969     3.42124
    5          C          -0.455336        4.4553     1.08305     3.37228
    6          C           0.459071        3.5409     1.13181     2.40912
    7          O          -0.433019        6.4330     1.87549     4.55753
    8          C          -0.152056        4.1521     1.10041     3.05165
    9          O          -0.414227        6.4142     1.88570     4.52853
   10          H           0.145863        0.8541     0.85414
   11          H           0.146190        0.8538     0.85381
   12          H           0.142205        0.8578     0.85780
   13          H           0.147523        0.8525     0.85248
   14          H           0.156458        0.8435     0.84354
   15          H           0.153782        0.8462     0.84622
   16          H           0.162505        0.8375     0.83749
   17          H           0.161148        0.8389     0.83885
   18          H           0.186350        0.8136     0.81365
   19          H           0.185624        0.8144     0.81438
   20          H           0.158164        0.8418     0.84184
   21          H           0.167370        0.8326     0.83263
 DIPOLE           X         Y         Z       TOTAL
 POINT-CHG.    -2.392     0.330    -0.920     2.584
 HYBRID         0.064    -0.098    -0.022     0.119
 SUM           -2.328     0.232    -0.943     2.522


          ATOMIC ORBITAL ELECTRON POPULATIONS

     Atom    s        px        py        pz   
    1  C   1.05036   1.08848   1.11892   1.17506
    2  C   1.06416   1.01722   1.11458   1.11245
    3  C   1.08563   0.85570   0.82017   0.93396
    4  C   1.05969   1.17890   1.18473   1.05761
    5  C   1.08305   1.09641   1.10224   1.17363
    6  C   1.13181   0.81364   0.88938   0.70610
    7  O   1.87549   1.49885   1.62826   1.43042
    8  C   1.10041   0.96468   1.01542   1.07154
    9  O   1.88570   1.38124   1.38892   1.75837
   10  H   0.85414
   11  H   0.85381
   12  H   0.85780
   13  H   0.85248
   14  H   0.84354
   15  H   0.84622
   16  H   0.83749
   17  H   0.83885
   18  H   0.81365
   19  H   0.81438
   20  H   0.84184
   21  H   0.83263

 **********************
 *                    *
 * JOB ENDED NORMALLY *
 *                    *
 **********************



 TOTAL JOB TIME:             0.95 SECONDS

 == MOPAC DONE ==
