 *******************************************************************************
 **                                                                           **
 **                              MOPAC v23.2                                  **
 **                                                                           **
 *******************************************************************************
 **          Digital Object Identifier (DOI): 10.5281/zenodo.6511958          **
 **    Visit the DOI location for information on how to cite this program.    **
 *******************************************************************************

                              PM7 CALCULATION RESULTS

 *******************************************************************************
 *  CALCULATION DONE: (MAX THREADS = 40)             Fri Sep 19 21:30:08 2025  *
 *  PM7        - The PM7 Hamiltonian to be used
 *  EPS=37.5   - USE ANDREAS KLAMT'S COSMO IMPLICIT SOLVATION MODEL
 *  1SCF       - DO 1 SCF AND THEN STOP 
 *  T=         - A TIME OF 172800.0 SECONDS REQUESTED
 *  DUMP=N     - RESTART FILE WRITTEN EVERY 7200.0 SECONDS REQUESTED
 *  RELSCF     - DEFAULT SCF CRITERION MULTIPLIED BY 0.0001
 *              (DEFAULT SCF CRITERION = 0.00010)
 *  GRADIENTS  - ALL GRADIENTS TO BE PRINTED
 *  DISP       - PRINT DISPERSION AND HYDROGEN BOND ENERGIES
 *******************************************************************************
PM7 1SCF GRADIENTS EPS=37.5 DISP RELSCF=0.0001
 Title: ASE calculation

   ATOM   CHEMICAL          X               Y               Z
  NUMBER   SYMBOL      (ANGSTROMS)     (ANGSTROMS)     (ANGSTROMS)

     1       O         -1.38111709  *  -1.47725183  *   1.49267506  *
     2       C         -1.96607580  *  -1.12173164  *   0.49152046  *
     3       N         -1.26735632  *  -0.83844738  *  -0.67094475  *
     4       C          0.18947746  *  -0.85107766  *  -0.65443949  *
     5       C          0.74907619  *   0.54706462  *  -0.79733646  *
     6       O          0.11981992  *   1.47293685  *  -1.23294306  *
     7       C          2.19655871  *   0.72462905  *  -0.35994620  *
     8       O          3.05940697  *   0.04642118  *  -0.84928524  *
     9       H         -3.05940697  *  -1.04723267  *   0.41965093  *
    10       H         -1.70119435  *  -0.39491277  *  -1.46579367  *
    11       H          0.57741928  *  -1.48586523  *  -1.49267506  *
    12       H          0.56201937  *  -1.34010372  *   0.28546549  *
    13       H          2.38705017  *   1.48586523  *   0.40405828  *



          CARTESIAN COORDINATES 

    NO.       ATOM           X           Y           Z

     1         O         -1.3811     -1.4773      1.4927
     2         C         -1.9661     -1.1217      0.4915
     3         N         -1.2674     -0.8384     -0.6709
     4         C          0.1895     -0.8511     -0.6544
     5         C          0.7491      0.5471     -0.7973
     6         O          0.1198      1.4729     -1.2329
     7         C          2.1966      0.7246     -0.3599
     8         O          3.0594      0.0464     -0.8493
     9         H         -3.0594     -1.0472      0.4197
    10         H         -1.7012     -0.3949     -1.4658
    11         H          0.5774     -1.4859     -1.4927
    12         H          0.5620     -1.3401      0.2855
    13         H          2.3871      1.4859      0.4041

 General Reference for PM7:
 "Optimization of Parameters for Semiempirical Methods VI: More Modifications to the 
 NDDO Approximations and Re-optimization of Parameters", J. J. P. Stewart, J. Mol. Mod., 1:32, 19 (2013)
 https://link.springer.com/article/10.1007/s00894-012-1667-x

           Empirical Formula: C4 H5 N O3  =    13 atoms



      MOLECULAR POINT GROUP   :   C1  


      RHF CALCULATION, NO. OF DOUBLY OCCUPIED LEVELS = 22

  SCF CRITERION =    0.1000E-07

 -------------------------------------------------------------------------------
 PM7 1SCF GRADIENTS EPS=37.5 DISP RELSCF=0.0001
 Title: ASE calculation



     1SCF WAS SPECIFIED, SO BFGS WAS NOT USED                 
     SCF FIELD WAS ACHIEVED                                   


                              PM7 CALCULATION
                                                       MOPAC v23.2 Linux
                                                       Fri Sep 19 21:30:08 2025




          FINAL HEAT OF FORMATION =       -111.80345 KCAL/MOL =    -467.78562 KJ/MOL

          TOTAL ENERGY            =     -37611.31169 KCAL/MOL = ELECTRONIC ENERGY + CORE-CORE REPULSION + SOLVATION ENERGY
          ENERGY OF ATOMS         =      37500.47264 KCAL/MOL
                              SUM =       -110.83905 KCAL/MOL
          DISPERSION ENERGY       =         -1.10093 KCAL/MOL
          MM CORR. FOR -CO-NH-    =          0.13653 KCAL/MOL
                              SUM =       -111.80345 KCAL/MOL = FINAL HEAT OF FORMATION

          VAN DER WAALS AREA      =        143.05 SQUARE ANGSTROMS


          TOTAL ENERGY            =      -1630.98084 EV
          ELECTRONIC ENERGY       =      -1909.09900 EV 
          CORE-CORE REPULSION     =        278.11816 EV

          DIELECTRIC ENERGY       =         -0.78826 EV
          COSMO AREA              =        143.05 SQUARE ANGSTROMS
          COSMO VOLUME            =        132.47 CUBIC ANGSTROMS

          GRADIENT NORM           =         44.08804          =       12.22782 PER ATOM
          IONIZATION POTENTIAL    =          9.938572 EV
          HOMO LUMO ENERGIES (EV) =         -9.939 -0.652
          NO. OF FILLED LEVELS    =         22
          MOLECULAR WEIGHT        =        115.0884         POINT GROUP:  C1  

          MOLECULAR DIMENSIONS (Angstroms)

            Atom       Atom       Distance
            H     9    O     8     6.34399
            H    13    H    11     3.48934
            O     1    O     6     3.45167


          SCF CALCULATIONS        =          2

          WALL-CLOCK TIME         =      0.648 SECONDS
          COMPUTATION TIME        =      0.557 SECONDS

          LARGEST ATOMIC GRADIENTS

          Atom     Label                     Cartesian Gradients           Cartesian Coordinates       |Gradient|
                                           X          Y          Z        X          Y          Z

             2       C                   2.486     -9.810     30.517   -1.96608   -1.12173    0.49152     32.151
             1       O                  -8.304      6.492    -16.717   -1.38112   -1.47725    1.49268     19.763
             3       N                   1.740      4.072    -16.477   -1.26736   -0.83845   -0.67094     17.062
             5       C                  -1.548      8.593     -0.324    0.74908    0.54706   -0.79734      8.738
            10       H                   4.301     -0.400      3.800   -1.70119   -0.39491   -1.46579      5.753
             6       O                   2.051     -4.713      1.442    0.11982    1.47294   -1.23294      5.339
             8       O                  -3.043      3.067      2.706    3.05941    0.04642   -0.84929      5.098
             7       C                   2.492     -3.753     -0.886    2.19656    0.72463   -0.35995      4.592
             4       C                   1.279     -3.471     -2.570    0.18948   -0.85108   -0.65444      4.504
             9       H                   2.526      0.054     -1.181   -3.05941   -1.04723    0.41965      2.789



       FINAL  POINT  AND  DERIVATIVES

   PARAMETER     ATOM    TYPE            VALUE        GRADIENT
      1          1  O    CARTESIAN X    -1.381117     -8.304250  KCAL/ANGSTROM
      2          1  O    CARTESIAN Y    -1.477252      6.492374  KCAL/ANGSTROM
      3          1  O    CARTESIAN Z     1.492675    -16.717480  KCAL/ANGSTROM
      4          2  C    CARTESIAN X    -1.966076      2.485621  KCAL/ANGSTROM
      5          2  C    CARTESIAN Y    -1.121732     -9.809556  KCAL/ANGSTROM
      6          2  C    CARTESIAN Z     0.491520     30.517154  KCAL/ANGSTROM
      7          3  N    CARTESIAN X    -1.267356      1.740290  KCAL/ANGSTROM
      8          3  N    CARTESIAN Y    -0.838447      4.072363  KCAL/ANGSTROM
      9          3  N    CARTESIAN Z    -0.670945    -16.477174  KCAL/ANGSTROM
     10          4  C    CARTESIAN X     0.189477      1.278656  KCAL/ANGSTROM
     11          4  C    CARTESIAN Y    -0.851078     -3.471194  KCAL/ANGSTROM
     12          4  C    CARTESIAN Z    -0.654439     -2.570063  KCAL/ANGSTROM
     13          5  C    CARTESIAN X     0.749076     -1.547761  KCAL/ANGSTROM
     14          5  C    CARTESIAN Y     0.547065      8.593418  KCAL/ANGSTROM
     15          5  C    CARTESIAN Z    -0.797336     -0.324145  KCAL/ANGSTROM
     16          6  O    CARTESIAN X     0.119820      2.051270  KCAL/ANGSTROM
     17          6  O    CARTESIAN Y     1.472937     -4.713460  KCAL/ANGSTROM
     18          6  O    CARTESIAN Z    -1.232943      1.441899  KCAL/ANGSTROM
     19          7  C    CARTESIAN X     2.196559      2.492044  KCAL/ANGSTROM
     20          7  C    CARTESIAN Y     0.724629     -3.753429  KCAL/ANGSTROM
     21          7  C    CARTESIAN Z    -0.359946     -0.886140  KCAL/ANGSTROM
     22          8  O    CARTESIAN X     3.059407     -3.042642  KCAL/ANGSTROM
     23          8  O    CARTESIAN Y     0.046421      3.066887  KCAL/ANGSTROM
     24          8  O    CARTESIAN Z    -0.849285      2.706163  KCAL/ANGSTROM
     25          9  H    CARTESIAN X    -3.059407      2.526013  KCAL/ANGSTROM
     26          9  H    CARTESIAN Y    -1.047233      0.053887  KCAL/ANGSTROM
     27          9  H    CARTESIAN Z     0.419651     -1.180603  KCAL/ANGSTROM
     28         10  H    CARTESIAN X    -1.701194      4.300810  KCAL/ANGSTROM
     29         10  H    CARTESIAN Y    -0.394913     -0.400086  KCAL/ANGSTROM
     30         10  H    CARTESIAN Z    -1.465794      3.800132  KCAL/ANGSTROM
     31         11  H    CARTESIAN X     0.577419     -1.054148  KCAL/ANGSTROM
     32         11  H    CARTESIAN Y    -1.485865      0.731397  KCAL/ANGSTROM
     33         11  H    CARTESIAN Z    -1.492675      1.604289  KCAL/ANGSTROM
     34         12  H    CARTESIAN X     0.562019     -1.882896  KCAL/ANGSTROM
     35         12  H    CARTESIAN Y    -1.340104      0.202764  KCAL/ANGSTROM
     36         12  H    CARTESIAN Z     0.285465      0.348731  KCAL/ANGSTROM
     37         13  H    CARTESIAN X     2.387050     -1.043011  KCAL/ANGSTROM
     38         13  H    CARTESIAN Y     1.485865     -1.065368  KCAL/ANGSTROM
     39         13  H    CARTESIAN Z     0.404058     -2.262766  KCAL/ANGSTROM




   ATOM   CHEMICAL          X               Y               Z
  NUMBER   SYMBOL      (ANGSTROMS)     (ANGSTROMS)     (ANGSTROMS)

     1       O         -1.38111709  *  -1.47725183  *   1.49267506  *
     2       C         -1.96607580  *  -1.12173164  *   0.49152046  *
     3       N         -1.26735632  *  -0.83844738  *  -0.67094475  *
     4       C          0.18947746  *  -0.85107766  *  -0.65443949  *
     5       C          0.74907619  *   0.54706462  *  -0.79733646  *
     6       O          0.11981992  *   1.47293685  *  -1.23294306  *
     7       C          2.19655871  *   0.72462905  *  -0.35994620  *
     8       O          3.05940697  *   0.04642118  *  -0.84928524  *
     9       H         -3.05940697  *  -1.04723267  *   0.41965093  *
    10       H         -1.70119435  *  -0.39491277  *  -1.46579367  *
    11       H          0.57741928  *  -1.48586523  *  -1.49267506  *
    12       H          0.56201937  *  -1.34010372  *   0.28546549  *
    13       H          2.38705017  *   1.48586523  *   0.40405828  *

                             CARTESIAN COORDINATES

   1    O       -1.381117089    -1.477251833     1.492675062
   2    C       -1.966075801    -1.121731640     0.491520458
   3    N       -1.267356322    -0.838447381    -0.670944751
   4    C        0.189477458    -0.851077662    -0.654439492
   5    C        0.749076186     0.547064622    -0.797336464
   6    O        0.119819917     1.472936847    -1.232943056
   7    C        2.196558711     0.724629047    -0.359946204
   8    O        3.059406971     0.046421178    -0.849285244
   9    H       -3.059406971    -1.047232665     0.419650930
  10    H       -1.701194353    -0.394912771    -1.465793671
  11    H        0.577419278    -1.485865232    -1.492675062
  12    H        0.562019369    -1.340103723     0.285465488
  13    H        2.387050167     1.485865232     0.404058279


           Empirical Formula: C4 H5 N O3  =    13 atoms



      MOLECULAR POINT GROUP   :   C1  


                  EIGENVALUES  
 -37.05008 -32.14649 -31.77707 -30.43629 -26.88502 -24.16600 -21.68936 -20.06742
 -18.58777 -17.49053 -16.60498 -16.23454 -15.81630 -14.89957 -14.82235 -14.36449
 -14.20871 -13.30801 -12.40039 -11.33409 -10.81890  -9.93857  -0.65206   0.31664
   0.83004   1.80711   2.13016   3.05353   3.91385   4.08347   4.30853   4.63713
   4.72711   4.82646   5.12368   5.45382   6.55884


              NET ATOMIC CHARGES AND DIPOLE CONTRIBUTIONS

  ATOM NO.   TYPE          CHARGE      No. of ELECS.   s-Pop       p-Pop       
    1          O          -0.671868        6.6719     1.87163     4.80024
    2          C           0.531831        3.4682     1.11887     2.34930
    3          N          -0.554385        5.5544     1.56174     3.99264
    4          C          -0.194125        4.1941     1.07697     3.11715
    5          C           0.381695        3.6183     1.16319     2.45511
    6          O          -0.463301        6.4633     1.87422     4.58908
    7          C           0.305608        3.6944     1.17385     2.52054
    8          O          -0.450306        6.4503     1.87457     4.57574
    9          H           0.171657        0.8283     0.82834
   10          H           0.347653        0.6523     0.65235
   11          H           0.205881        0.7941     0.79412
   12          H           0.211618        0.7884     0.78838
   13          H           0.178041        0.8220     0.82196
 DIPOLE           X         Y         Z       TOTAL
 POINT-CHG.    -1.833     0.533    -1.516     2.438
 HYBRID         0.109     0.283    -0.439     0.533
 SUM           -1.724     0.816    -1.955     2.732


          ATOMIC ORBITAL ELECTRON POPULATIONS

     Atom    s        px        py        pz   
    1  O   1.87163   1.77655   1.58072   1.44297
    2  C   1.11887   0.93281   0.68722   0.72927
    3  N   1.56174   1.11672   1.62704   1.24888
    4  C   1.07697   0.85839   1.04414   1.21462
    5  C   1.16319   0.90607   0.87498   0.67407
    6  O   1.87422   1.68690   1.50252   1.39965
    7  C   1.17385   0.88670   0.81085   0.82299
    8  O   1.87457   1.57164   1.46103   1.54306
    9  H   0.82834
   10  H   0.65235
   11  H   0.79412
   12  H   0.78838
   13  H   0.82196

 **********************
 *                    *
 * JOB ENDED NORMALLY *
 *                    *
 **********************



 TOTAL JOB TIME:             1.07 SECONDS

 == MOPAC DONE ==
