 *******************************************************************************
 **                                                                           **
 **                              MOPAC v23.2                                  **
 **                                                                           **
 *******************************************************************************
 **          Digital Object Identifier (DOI): 10.5281/zenodo.6511958          **
 **    Visit the DOI location for information on how to cite this program.    **
 *******************************************************************************

                              PM7 CALCULATION RESULTS

 *******************************************************************************
 *  CALCULATION DONE: (MAX THREADS = 40)             Fri Sep 19 22:05:42 2025  *
 *  PM7        - The PM7 Hamiltonian to be used
 *
 *
 *
 *                 CHARGE ON SYSTEM = +1
 *
 *
 *
 *  1SCF       - DO 1 SCF AND THEN STOP 
 *  T=         - A TIME OF 172800.0 SECONDS REQUESTED
 *  DUMP=N     - RESTART FILE WRITTEN EVERY 7200.0 SECONDS REQUESTED
 *  RELSCF     - DEFAULT SCF CRITERION MULTIPLIED BY 0.0001
 *              (DEFAULT SCF CRITERION = 0.00010)
 *  GRADIENTS  - ALL GRADIENTS TO BE PRINTED
 *  DISP       - PRINT DISPERSION AND HYDROGEN BOND ENERGIES
 *******************************************************************************
PM7 1SCF GRADIENTS DISP RELSCF=0.0001 CHARGE=1
 Title: ASE calculation

   ATOM   CHEMICAL          X               Y               Z
  NUMBER   SYMBOL      (ANGSTROMS)     (ANGSTROMS)     (ANGSTROMS)

     1       C         -0.66879561  *   1.60969999  *  -0.61356276  *
     2       C         -0.01622710  *   0.46525793  *  -1.18966967  *
     3       C         -0.67631632  *  -1.43245642  *  -0.55695204  *
     4       C         -1.73886385  *  -1.46574049  *   0.41119057  *
     5       C          0.59191677  *  -0.63924206  *  -0.36135101  *
     6       C          0.90764802  *  -0.29019316  *   1.01223318  *
     7       N          1.17976115  *  -0.02048781  *   2.10064905  *
     8       C          1.74918203  *  -1.25345737  *  -0.99338183  *
     9       N          2.67683220  *  -1.73905139  *  -1.47719672  *
    10       H         -1.60426350  *   1.91584394  *  -1.13966032  *
    11       H         -0.02694286  *   2.53356774  *  -0.72931723  *
    12       H         -0.89425902  *   1.56946684  *   0.46891526  *
    13       H          0.10617899  *   0.40071337  *  -2.28120385  *
    14       H         -0.74661268  *  -2.05201464  *  -1.46349561  *
    15       H         -1.69366737  *  -0.72816267  *   1.23470990  *
    16       H         -1.76695028  *  -2.46696903  *   0.93624144  *
    17       H         -2.76232047  *  -1.41269358  *  -0.03075662  *



          CARTESIAN COORDINATES 

    NO.       ATOM           X           Y           Z

     1         C         -0.6688      1.6097     -0.6136
     2         C         -0.0162      0.4653     -1.1897
     3         C         -0.6763     -1.4325     -0.5570
     4         C         -1.7389     -1.4657      0.4112
     5         C          0.5919     -0.6392     -0.3614
     6         C          0.9076     -0.2902      1.0122
     7         N          1.1798     -0.0205      2.1006
     8         C          1.7492     -1.2535     -0.9934
     9         N          2.6768     -1.7391     -1.4772
    10         H         -1.6043      1.9158     -1.1397
    11         H         -0.0269      2.5336     -0.7293
    12         H         -0.8943      1.5695      0.4689
    13         H          0.1062      0.4007     -2.2812
    14         H         -0.7466     -2.0520     -1.4635
    15         H         -1.6937     -0.7282      1.2347
    16         H         -1.7670     -2.4670      0.9362
    17         H         -2.7623     -1.4127     -0.0308

 General Reference for PM7:
 "Optimization of Parameters for Semiempirical Methods VI: More Modifications to the 
 NDDO Approximations and Re-optimization of Parameters", J. J. P. Stewart, J. Mol. Mod., 1:32, 19 (2013)
 https://link.springer.com/article/10.1007/s00894-012-1667-x

           Empirical Formula: C7 H8 N2  =    17 atoms



      MOLECULAR POINT GROUP   :   Cs  


          UHF CALCULATION, NO. OF ALPHA ELECTRONS =   23
                           NO. OF BETA  ELECTRONS =   22
  SCF CRITERION =    0.1000E-07

 -------------------------------------------------------------------------------
 PM7 1SCF GRADIENTS DISP RELSCF=0.0001 CHARGE=1
 Title: ASE calculation



     1SCF WAS SPECIFIED, SO BFGS WAS NOT USED                 
     SCF FIELD WAS ACHIEVED                                   


                              PM7 CALCULATION
                                                       MOPAC v23.2 Linux
                                                       Fri Sep 19 22:05:42 2025




          FINAL HEAT OF FORMATION =        295.82271 KCAL/MOL =    1237.72223 KJ/MOL

          TOTAL ENERGY            =     -30638.00375 KCAL/MOL = ELECTRONIC ENERGY + CORE-CORE REPULSION
          ENERGY OF ATOMS         =      30935.82464 KCAL/MOL
                              SUM =        297.82089 KCAL/MOL
          DISPERSION ENERGY       =         -1.99818 KCAL/MOL
                              SUM =        295.82271 KCAL/MOL = FINAL HEAT OF FORMATION



          TOTAL ENERGY            =      -1328.58959 EV
          ELECTRONIC ENERGY       =      -6224.03939 EV 
          CORE-CORE REPULSION     =       4895.44980 EV
          COSMO AREA              =        168.36 SQUARE ANGSTROMS
          COSMO VOLUME            =        166.91 CUBIC ANGSTROMS

          GRADIENT NORM           =          0.69943          =       0.16964 PER ATOM
          IONIZATION POTENTIAL    =         14.998257 EV
          ALPHA SOMO LUMO (EV)    =        -14.998 -7.396
          BETA  SOMO LUMO (EV)    =        -17.261 -7.515
          NO. OF ALPHA ELECTRONS  =         23
          NO. OF BETA  ELECTRONS  =         22
          MOLECULAR WEIGHT        =        120.1536         POINT GROUP:  Cs  

          MOLECULAR DIMENSIONS (Angstroms)

            Atom       Atom       Distance
            H    10    N     9     5.63915
            H    16    H    11     5.24342
            H    13    N     7     4.30404


          SCF CALCULATIONS        =          1

          WALL-CLOCK TIME         =      0.367 SECONDS
          COMPUTATION TIME        =      1.811 SECONDS

          LARGEST ATOMIC GRADIENTS

          Atom     Label                     Cartesian Gradients           Cartesian Coordinates       |Gradient|
                                           X          Y          Z        X          Y          Z

             8       C                   0.136     -0.138     -0.275    1.74918   -1.25346   -0.99338      0.336
             7       N                   0.063      0.056      0.206    1.17976   -0.02049    2.10065      0.223
             9       N                  -0.074      0.089      0.185    2.67683   -1.73905   -1.47720      0.218
             1       C                  -0.208      0.011      0.060   -0.66880    1.60970   -0.61356      0.217
             4       C                  -0.162      0.138      0.014   -1.73886   -1.46574    0.41119      0.213
             5       C                  -0.185      0.050     -0.046    0.59192   -0.63924   -0.36135      0.197
            15       H                   0.061     -0.124      0.019   -1.69367   -0.72816    1.23471      0.140
            12       H                   0.123      0.050     -0.035   -0.89426    1.56947    0.46892      0.138
            16       H                   0.014     -0.126     -0.050   -1.76695   -2.46697    0.93624      0.136
            17       H                   0.096      0.040     -0.082   -2.76232   -1.41269   -0.03076      0.132



       FINAL  POINT  AND  DERIVATIVES

   PARAMETER     ATOM    TYPE            VALUE        GRADIENT
      1          1  C    CARTESIAN X    -0.668796     -0.208446  KCAL/ANGSTROM
      2          1  C    CARTESIAN Y     1.609700      0.011316  KCAL/ANGSTROM
      3          1  C    CARTESIAN Z    -0.613563      0.059689  KCAL/ANGSTROM
      4          2  C    CARTESIAN X    -0.016227     -0.001789  KCAL/ANGSTROM
      5          2  C    CARTESIAN Y     0.465258      0.032307  KCAL/ANGSTROM
      6          2  C    CARTESIAN Z    -1.189670     -0.004636  KCAL/ANGSTROM
      7          3  C    CARTESIAN X    -0.676316     -0.018287  KCAL/ANGSTROM
      8          3  C    CARTESIAN Y    -1.432456     -0.022783  KCAL/ANGSTROM
      9          3  C    CARTESIAN Z    -0.556952      0.013037  KCAL/ANGSTROM
     10          4  C    CARTESIAN X    -1.738864     -0.161601  KCAL/ANGSTROM
     11          4  C    CARTESIAN Y    -1.465740      0.137577  KCAL/ANGSTROM
     12          4  C    CARTESIAN Z     0.411191      0.013611  KCAL/ANGSTROM
     13          5  C    CARTESIAN X     0.591917     -0.185358  KCAL/ANGSTROM
     14          5  C    CARTESIAN Y    -0.639242      0.049855  KCAL/ANGSTROM
     15          5  C    CARTESIAN Z    -0.361351     -0.045969  KCAL/ANGSTROM
     16          6  C    CARTESIAN X     0.907648      0.032502  KCAL/ANGSTROM
     17          6  C    CARTESIAN Y    -0.290193     -0.031602  KCAL/ANGSTROM
     18          6  C    CARTESIAN Z     1.012233     -0.074191  KCAL/ANGSTROM
     19          7  N    CARTESIAN X     1.179761      0.062994  KCAL/ANGSTROM
     20          7  N    CARTESIAN Y    -0.020488      0.055673  KCAL/ANGSTROM
     21          7  N    CARTESIAN Z     2.100649      0.206083  KCAL/ANGSTROM
     22          8  C    CARTESIAN X     1.749182      0.135690  KCAL/ANGSTROM
     23          8  C    CARTESIAN Y    -1.253457     -0.138257  KCAL/ANGSTROM
     24          8  C    CARTESIAN Z    -0.993382     -0.274846  KCAL/ANGSTROM
     25          9  N    CARTESIAN X     2.676832     -0.074165  KCAL/ANGSTROM
     26          9  N    CARTESIAN Y    -1.739051      0.088988  KCAL/ANGSTROM
     27          9  N    CARTESIAN Z    -1.477197      0.185158  KCAL/ANGSTROM
     28         10  H    CARTESIAN X    -1.604264      0.032645  KCAL/ANGSTROM
     29         10  H    CARTESIAN Y     1.915844     -0.125926  KCAL/ANGSTROM
     30         10  H    CARTESIAN Z    -1.139660     -0.019873  KCAL/ANGSTROM
     31         11  H    CARTESIAN X    -0.026943      0.065951  KCAL/ANGSTROM
     32         11  H    CARTESIAN Y     2.533568      0.043813  KCAL/ANGSTROM
     33         11  H    CARTESIAN Z    -0.729317     -0.102239  KCAL/ANGSTROM
     34         12  H    CARTESIAN X    -0.894259      0.123179  KCAL/ANGSTROM
     35         12  H    CARTESIAN Y     1.569467      0.050420  KCAL/ANGSTROM
     36         12  H    CARTESIAN Z     0.468915     -0.034989  KCAL/ANGSTROM
     37         13  H    CARTESIAN X     0.106179     -0.009767  KCAL/ANGSTROM
     38         13  H    CARTESIAN Y     0.400713     -0.030384  KCAL/ANGSTROM
     39         13  H    CARTESIAN Z    -2.281204      0.116650  KCAL/ANGSTROM
     40         14  H    CARTESIAN X    -0.746613      0.035620  KCAL/ANGSTROM
     41         14  H    CARTESIAN Y    -2.052015      0.088387  KCAL/ANGSTROM
     42         14  H    CARTESIAN Z    -1.463496      0.075621  KCAL/ANGSTROM
     43         15  H    CARTESIAN X    -1.693667      0.061445  KCAL/ANGSTROM
     44         15  H    CARTESIAN Y    -0.728163     -0.123927  KCAL/ANGSTROM
     45         15  H    CARTESIAN Z     1.234710      0.019040  KCAL/ANGSTROM
     46         16  H    CARTESIAN X    -1.766950      0.013660  KCAL/ANGSTROM
     47         16  H    CARTESIAN Y    -2.466969     -0.125671  KCAL/ANGSTROM
     48         16  H    CARTESIAN Z     0.936241     -0.049933  KCAL/ANGSTROM
     49         17  H    CARTESIAN X    -2.762320      0.095721  KCAL/ANGSTROM
     50         17  H    CARTESIAN Y    -1.412694      0.040212  KCAL/ANGSTROM
     51         17  H    CARTESIAN Z    -0.030757     -0.082218  KCAL/ANGSTROM




   ATOM   CHEMICAL          X               Y               Z
  NUMBER   SYMBOL      (ANGSTROMS)     (ANGSTROMS)     (ANGSTROMS)

     1       C         -0.66879561  *   1.60969999  *  -0.61356276  *
     2       C         -0.01622710  *   0.46525793  *  -1.18966967  *
     3       C         -0.67631632  *  -1.43245642  *  -0.55695204  *
     4       C         -1.73886385  *  -1.46574049  *   0.41119057  *
     5       C          0.59191677  *  -0.63924206  *  -0.36135101  *
     6       C          0.90764802  *  -0.29019316  *   1.01223318  *
     7       N          1.17976115  *  -0.02048781  *   2.10064905  *
     8       C          1.74918203  *  -1.25345737  *  -0.99338183  *
     9       N          2.67683220  *  -1.73905139  *  -1.47719672  *
    10       H         -1.60426350  *   1.91584394  *  -1.13966032  *
    11       H         -0.02694286  *   2.53356774  *  -0.72931723  *
    12       H         -0.89425902  *   1.56946684  *   0.46891526  *
    13       H          0.10617899  *   0.40071337  *  -2.28120385  *
    14       H         -0.74661268  *  -2.05201464  *  -1.46349561  *
    15       H         -1.69366737  *  -0.72816267  *   1.23470990  *
    16       H         -1.76695028  *  -2.46696903  *   0.93624144  *
    17       H         -2.76232047  *  -1.41269358  *  -0.03075662  *

                             CARTESIAN COORDINATES

   1    C       -0.668795608     1.609699992    -0.613562758
   2    C       -0.016227102     0.465257927    -1.189669672
   3    C       -0.676316319    -1.432456421    -0.556952041
   4    C       -1.738863850    -1.465740486     0.411190570
   5    C        0.591916774    -0.639242064    -0.361351011
   6    C        0.907648024    -0.290193155     1.012233176
   7    N        1.179761148    -0.020487806     2.100649054
   8    C        1.749182032    -1.253457371    -0.993381833
   9    N        2.676832200    -1.739051394    -1.477196717
  10    H       -1.604263502     1.915843939    -1.139660324
  11    H       -0.026942859     2.533567738    -0.729317230
  12    H       -0.894259022     1.569466843     0.468915255
  13    H        0.106178988     0.400713366    -2.281203850
  14    H       -0.746612679    -2.052014635    -1.463495615
  15    H       -1.693667372    -0.728162667     1.234709904
  16    H       -1.766950285    -2.466969028     0.936241445
  17    H       -2.762320467    -1.412693580    -0.030756617


           Empirical Formula: C7 H8 N2  =    17 atoms



      MOLECULAR POINT GROUP   :   Cs  


          ALPHA EIGENVALUES  
 -39.43500 -39.33540 -36.90125 -32.51124 -31.46579 -27.64541 -26.13313 -25.26310
 -22.79267 -21.95722 -20.51588 -20.30410 -20.15617 -19.23274 -18.94372 -18.61869
 -18.53956 -18.24495 -18.22106 -17.85633 -17.47434 -17.36200 -14.99826  -7.39583
  -4.41124  -4.13248  -3.44479  -3.42305  -2.79237  -2.74782  -2.61207  -2.09521
  -1.70258  -1.64760  -0.79488  -0.75515  -0.19927  -0.16465   0.10813   0.20045
   0.95236   1.08272   1.19250   1.29611


           BETA EIGENVALUES 
 -39.44181 -39.34120 -36.77867 -32.38192 -31.39678 -27.50163 -25.92448 -25.19384
 -22.71511 -21.84287 -20.42322 -20.19851 -19.61881 -18.99268 -18.92589 -18.60034
 -18.51527 -18.24966 -18.20499 -17.80164 -17.47584 -17.26127  -7.51532  -5.77475
  -4.23261  -4.07850  -3.43159  -3.42871  -2.75630  -2.63428  -2.59020  -2.07548
  -1.53507  -1.46241  -0.70382  -0.68313  -0.10389  -0.08151   0.14395   0.23432
   0.94977   1.08012   1.21891   1.32010


              NET ATOMIC CHARGES AND DIPOLE CONTRIBUTIONS

  ATOM NO.   TYPE          CHARGE      No. of ELECS.   s-Pop       p-Pop       
    1          C          -0.523245        4.5232     1.05311     3.47013
    2          C           0.134201        3.8658     1.16098     2.70482
    3          C           0.134195        3.8658     1.16097     2.70483
    4          C          -0.523215        4.5232     1.05311     3.47010
    5          C           0.028833        3.9712     1.02496     2.94621
    6          C           0.009981        3.9900     1.09169     2.89833
    7          N          -0.039216        5.0392     1.82622     3.21300
    8          C          -0.011604        4.0116     1.09213     2.91948
    9          N          -0.013865        5.0139     1.82498     3.18889
   10          H           0.230848        0.7692     0.76915
   11          H           0.261852        0.7381     0.73815
   12          H           0.209044        0.7910     0.79096
   13          H           0.200221        0.7998     0.79978
   14          H           0.200204        0.7998     0.79980
   15          H           0.209047        0.7910     0.79095
   16          H           0.261844        0.7382     0.73816
   17          H           0.230876        0.7691     0.76912
 DIPOLE           X         Y         Z       TOTAL
 POINT-CHG.    -6.933     1.438    -2.917     7.658
 HYBRID        -0.492     0.107    -0.191     0.538
 SUM           -7.425     1.545    -3.108     8.196


          ATOMIC ORBITAL ELECTRON POPULATIONS

     Atom    s        px        py        pz   
    1  C   1.05311   1.18176   1.07956   1.20881
    2  C   1.16098   0.80382   0.82088   1.08012
    3  C   1.16097   0.93672   0.75094   1.01717
    4  C   1.05311   1.10733   1.23174   1.13103
    5  C   1.02496   0.95877   1.01314   0.97430
    6  C   1.09169   0.99549   0.99372   0.90913
    7  N   1.82622   1.01125   1.01863   1.18312
    8  C   1.09213   0.94217   0.98946   0.98785
    9  N   1.82498   1.11777   1.03370   1.03742
   10  H   0.76915
   11  H   0.73815
   12  H   0.79096
   13  H   0.79978
   14  H   0.79980
   15  H   0.79095
   16  H   0.73816
   17  H   0.76912


                    (SZ)    =    0.500000
                    (S**2)  =    0.763082


          ATOMIC ORBITAL SPIN POPULATIONS

    Atom   Total    s     px     py     pz   
         Atomic
    1  C -0.0004 -0.003  0.012 -0.007 -0.003
    2  C  0.4767  0.011  0.374  0.074  0.018
    3  C  0.4766  0.011  0.131  0.222  0.114
    4  C -0.0004 -0.003 -0.006  0.009 -0.001
    5  C -0.0509 -0.003 -0.005 -0.036 -0.007
    6  C  0.0133  0.003  0.001  0.004  0.005
    7  N -0.0049 -0.000 -0.001 -0.004  0.001
    8  C  0.0199  0.006  0.007  0.005  0.002
    9  N -0.0034 -0.000 -0.001 -0.004  0.002
   10  H  0.0191  0.019
   11  H  0.0302  0.030
   12  H  0.0006  0.001
   13  H -0.0133 -0.013
   14  H -0.0133 -0.013
   15  H  0.0006  0.001
   16  H  0.0302  0.030
   17  H  0.0192  0.019

 **********************
 *                    *
 * JOB ENDED NORMALLY *
 *                    *
 **********************



 TOTAL JOB TIME:             0.66 SECONDS

 == MOPAC DONE ==
