 *******************************************************************************
 **                                                                           **
 **                              MOPAC v23.2                                  **
 **                                                                           **
 *******************************************************************************
 **          Digital Object Identifier (DOI): 10.5281/zenodo.6511958          **
 **    Visit the DOI location for information on how to cite this program.    **
 *******************************************************************************

                              PM7 CALCULATION RESULTS

 *******************************************************************************
 *  CALCULATION DONE: (MAX THREADS = 40)             Fri Sep 19 21:33:59 2025  *
 *  PM7        - The PM7 Hamiltonian to be used
 *  EPS=37.5   - USE ANDREAS KLAMT'S COSMO IMPLICIT SOLVATION MODEL
 *  1SCF       - DO 1 SCF AND THEN STOP 
 *  T=         - A TIME OF 172800.0 SECONDS REQUESTED
 *  DUMP=N     - RESTART FILE WRITTEN EVERY 7200.0 SECONDS REQUESTED
 *  RELSCF     - DEFAULT SCF CRITERION MULTIPLIED BY 0.0001
 *              (DEFAULT SCF CRITERION = 0.00010)
 *  GRADIENTS  - ALL GRADIENTS TO BE PRINTED
 *  DISP       - PRINT DISPERSION AND HYDROGEN BOND ENERGIES
 *******************************************************************************
PM7 1SCF GRADIENTS EPS=37.5 DISP RELSCF=0.0001
 Title: ASE calculation

   ATOM   CHEMICAL          X               Y               Z
  NUMBER   SYMBOL      (ANGSTROMS)     (ANGSTROMS)     (ANGSTROMS)

     1       N         -0.50852010  *   1.90100449  *  -1.71738282  *
     2       C         -0.30492125  *   1.00012614  *  -1.02366882  *
     3       C         -0.04533254  *  -0.12330729  *  -0.14958833  *
     4       C         -1.27844074  *  -0.58319281  *   0.63390488  *
     5       O         -2.46257843  *  -0.32075563  *  -0.06816008  *
     6       C          1.29577680  *  -0.03391125  *   0.64603829  *
     7       C          1.73396721  *  -1.19664976  *  -0.23662426  *
     8       O          2.66662437  *  -1.90100449  *  -0.40556855  *
     9       O          0.50981322  *  -1.24237991  *  -0.92425472  *
    10       H         -1.28803830  *  -1.69409160  *   0.72618645  *
    11       H         -1.31423471  *  -0.12363001  *   1.63803803  *
    12       H         -2.66662437  *   0.64019246  *  -0.08846900  *
    13       H          1.24470470  *  -0.25282158  *   1.71738282  *
    14       H          1.87096298  *   0.89169712  *   0.52275516  *



          CARTESIAN COORDINATES 

    NO.       ATOM           X           Y           Z

     1         N         -0.5085      1.9010     -1.7174
     2         C         -0.3049      1.0001     -1.0237
     3         C         -0.0453     -0.1233     -0.1496
     4         C         -1.2784     -0.5832      0.6339
     5         O         -2.4626     -0.3208     -0.0682
     6         C          1.2958     -0.0339      0.6460
     7         C          1.7340     -1.1966     -0.2366
     8         O          2.6666     -1.9010     -0.4056
     9         O          0.5098     -1.2424     -0.9243
    10         H         -1.2880     -1.6941      0.7262
    11         H         -1.3142     -0.1236      1.6380
    12         H         -2.6666      0.6402     -0.0885
    13         H          1.2447     -0.2528      1.7174
    14         H          1.8710      0.8917      0.5228

 General Reference for PM7:
 "Optimization of Parameters for Semiempirical Methods VI: More Modifications to the 
 NDDO Approximations and Re-optimization of Parameters", J. J. P. Stewart, J. Mol. Mod., 1:32, 19 (2013)
 https://link.springer.com/article/10.1007/s00894-012-1667-x

           Empirical Formula: C5 H5 N O3  =    14 atoms



      MOLECULAR POINT GROUP   :   C1  


      RHF CALCULATION, NO. OF DOUBLY OCCUPIED LEVELS = 24

  SCF CRITERION =    0.1000E-07

 -------------------------------------------------------------------------------
 PM7 1SCF GRADIENTS EPS=37.5 DISP RELSCF=0.0001
 Title: ASE calculation



     1SCF WAS SPECIFIED, SO BFGS WAS NOT USED                 
     SCF FIELD WAS ACHIEVED                                   


                              PM7 CALCULATION
                                                       MOPAC v23.2 Linux
                                                       Fri Sep 19 21:33:59 2025




          FINAL HEAT OF FORMATION =        -82.83772 KCAL/MOL =    -346.59302 KJ/MOL

          TOTAL ENERGY            =     -40420.75436 KCAL/MOL = ELECTRONIC ENERGY + CORE-CORE REPULSION + SOLVATION ENERGY
          ENERGY OF ATOMS         =      40339.25331 KCAL/MOL
                              SUM =        -81.50105 KCAL/MOL
          DISPERSION ENERGY       =         -1.33667 KCAL/MOL
                              SUM =        -82.83772 KCAL/MOL = FINAL HEAT OF FORMATION

          VAN DER WAALS AREA      =        150.46 SQUARE ANGSTROMS


          TOTAL ENERGY            =      -1752.80981 EV
          ELECTRONIC ENERGY       =      -2246.00345 EV 
          CORE-CORE REPULSION     =        493.19364 EV

          DIELECTRIC ENERGY       =         -0.78790 EV
          COSMO AREA              =        150.46 SQUARE ANGSTROMS
          COSMO VOLUME            =        143.57 CUBIC ANGSTROMS

          GRADIENT NORM           =         26.59690          =       7.10832 PER ATOM
          IONIZATION POTENTIAL    =         11.473958 EV
          HOMO LUMO ENERGIES (EV) =        -11.474 -0.206
          NO. OF FILLED LEVELS    =         24
          MOLECULAR WEIGHT        =        127.0994         POINT GROUP:  C1  

          MOLECULAR DIMENSIONS (Angstroms)

            Atom       Atom       Distance
            H    12    O     8     5.91623
            N     1    H    10     4.35873
            H    13    O     9     2.86711


          SCF CALCULATIONS        =          2

          WALL-CLOCK TIME         =      0.672 SECONDS
          COMPUTATION TIME        =      0.868 SECONDS

          LARGEST ATOMIC GRADIENTS

          Atom     Label                     Cartesian Gradients           Cartesian Coordinates       |Gradient|
                                           X          Y          Z        X          Y          Z

             7       C                   4.747    -12.415    -10.684    1.73397   -1.19665   -0.23662     17.053
             6       C                   1.615      6.710      9.820    1.29578   -0.03391    0.64604     12.003
             8       O                  -5.048      7.117      4.706    2.66662   -1.90100   -0.40557      9.914
             3       C                   2.330     -1.895     -5.849   -0.04533   -0.12331   -0.14959      6.575
             9       O                  -0.369      3.051      4.714    0.50981   -1.24238   -0.92425      5.628
             4       C                  -1.462      3.982      2.250   -1.27844   -0.58319    0.63390      4.802
            12       H                   2.396     -3.222     -0.935   -2.66662    0.64019   -0.08847      4.123
            13       H                   0.106     -0.094     -4.039    1.24470   -0.25282    1.71738      4.041
            14       H                  -1.829     -2.308     -1.264    1.87096    0.89170    0.52276      3.205
             5       O                  -1.570      0.529      2.675   -2.46258   -0.32076   -0.06816      3.146



       FINAL  POINT  AND  DERIVATIVES

   PARAMETER     ATOM    TYPE            VALUE        GRADIENT
      1          1  N    CARTESIAN X    -0.508520      0.537953  KCAL/ANGSTROM
      2          1  N    CARTESIAN Y     1.901004     -2.096911  KCAL/ANGSTROM
      3          1  N    CARTESIAN Z    -1.717383      1.982211  KCAL/ANGSTROM
      4          2  C    CARTESIAN X    -0.304921     -0.473455  KCAL/ANGSTROM
      5          2  C    CARTESIAN Y     1.000126      1.487655  KCAL/ANGSTROM
      6          2  C    CARTESIAN Z    -1.023669      0.720936  KCAL/ANGSTROM
      7          3  C    CARTESIAN X    -0.045333      2.330109  KCAL/ANGSTROM
      8          3  C    CARTESIAN Y    -0.123307     -1.894894  KCAL/ANGSTROM
      9          3  C    CARTESIAN Z    -0.149588     -5.848693  KCAL/ANGSTROM
     10          4  C    CARTESIAN X    -1.278441     -1.461647  KCAL/ANGSTROM
     11          4  C    CARTESIAN Y    -0.583193      3.982470  KCAL/ANGSTROM
     12          4  C    CARTESIAN Z     0.633905      2.249555  KCAL/ANGSTROM
     13          5  O    CARTESIAN X    -2.462578     -1.569897  KCAL/ANGSTROM
     14          5  O    CARTESIAN Y    -0.320756      0.529097  KCAL/ANGSTROM
     15          5  O    CARTESIAN Z    -0.068160      2.674543  KCAL/ANGSTROM
     16          6  C    CARTESIAN X     1.295777      1.614958  KCAL/ANGSTROM
     17          6  C    CARTESIAN Y    -0.033911      6.709604  KCAL/ANGSTROM
     18          6  C    CARTESIAN Z     0.646038      9.820186  KCAL/ANGSTROM
     19          7  C    CARTESIAN X     1.733967      4.746783  KCAL/ANGSTROM
     20          7  C    CARTESIAN Y    -1.196650    -12.415264  KCAL/ANGSTROM
     21          7  C    CARTESIAN Z    -0.236624    -10.683547  KCAL/ANGSTROM
     22          8  O    CARTESIAN X     2.666624     -5.047913  KCAL/ANGSTROM
     23          8  O    CARTESIAN Y    -1.901004      7.117288  KCAL/ANGSTROM
     24          8  O    CARTESIAN Z    -0.405569      4.705983  KCAL/ANGSTROM
     25          9  O    CARTESIAN X     0.509813     -0.369321  KCAL/ANGSTROM
     26          9  O    CARTESIAN Y    -1.242380      3.051324  KCAL/ANGSTROM
     27          9  O    CARTESIAN Z    -0.924255      4.714500  KCAL/ANGSTROM
     28         10  H    CARTESIAN X    -1.288038     -1.073489  KCAL/ANGSTROM
     29         10  H    CARTESIAN Y    -1.694092      0.380384  KCAL/ANGSTROM
     30         10  H    CARTESIAN Z     0.726186     -2.097405  KCAL/ANGSTROM
     31         11  H    CARTESIAN X    -1.314235      0.092870  KCAL/ANGSTROM
     32         11  H    CARTESIAN Y    -0.123630     -1.227264  KCAL/ANGSTROM
     33         11  H    CARTESIAN Z     1.638038     -2.001221  KCAL/ANGSTROM
     34         12  H    CARTESIAN X    -2.666624      2.396294  KCAL/ANGSTROM
     35         12  H    CARTESIAN Y     0.640192     -3.221718  KCAL/ANGSTROM
     36         12  H    CARTESIAN Z    -0.088469     -0.934668  KCAL/ANGSTROM
     37         13  H    CARTESIAN X     1.244705      0.105711  KCAL/ANGSTROM
     38         13  H    CARTESIAN Y    -0.252822     -0.093669  KCAL/ANGSTROM
     39         13  H    CARTESIAN Z     1.717383     -4.038743  KCAL/ANGSTROM
     40         14  H    CARTESIAN X     1.870963     -1.828955  KCAL/ANGSTROM
     41         14  H    CARTESIAN Y     0.891697     -2.308104  KCAL/ANGSTROM
     42         14  H    CARTESIAN Z     0.522755     -1.263639  KCAL/ANGSTROM




   ATOM   CHEMICAL          X               Y               Z
  NUMBER   SYMBOL      (ANGSTROMS)     (ANGSTROMS)     (ANGSTROMS)

     1       N         -0.50852010  *   1.90100449  *  -1.71738282  *
     2       C         -0.30492125  *   1.00012614  *  -1.02366882  *
     3       C         -0.04533254  *  -0.12330729  *  -0.14958833  *
     4       C         -1.27844074  *  -0.58319281  *   0.63390488  *
     5       O         -2.46257843  *  -0.32075563  *  -0.06816008  *
     6       C          1.29577680  *  -0.03391125  *   0.64603829  *
     7       C          1.73396721  *  -1.19664976  *  -0.23662426  *
     8       O          2.66662437  *  -1.90100449  *  -0.40556855  *
     9       O          0.50981322  *  -1.24237991  *  -0.92425472  *
    10       H         -1.28803830  *  -1.69409160  *   0.72618645  *
    11       H         -1.31423471  *  -0.12363001  *   1.63803803  *
    12       H         -2.66662437  *   0.64019246  *  -0.08846900  *
    13       H          1.24470470  *  -0.25282158  *   1.71738282  *
    14       H          1.87096298  *   0.89169712  *   0.52275516  *

                             CARTESIAN COORDINATES

   1    N       -0.508520097     1.901004486    -1.717382816
   2    C       -0.304921248     1.000126143    -1.023668822
   3    C       -0.045332536    -0.123307292    -0.149588328
   4    C       -1.278440739    -0.583192813     0.633904876
   5    O       -2.462578426    -0.320755633    -0.068160078
   6    C        1.295776800    -0.033911254     0.646038292
   7    C        1.733967208    -1.196649762    -0.236624257
   8    O        2.666624368    -1.901004486    -0.405568549
   9    O        0.509813219    -1.242379912    -0.924254721
  10    H       -1.288038301    -1.694091596     0.726186451
  11    H       -1.314234709    -0.123630007     1.638038028
  12    H       -2.666624368     0.640192458    -0.088468996
  13    H        1.244704705    -0.252821577     1.717382816
  14    H        1.870962977     0.891697117     0.522755157


           Empirical Formula: C5 H5 N O3  =    14 atoms



      MOLECULAR POINT GROUP   :   C1  


                  EIGENVALUES  
 -35.84215 -32.84798 -32.31614 -30.19524 -27.52822 -25.40872 -23.36747 -20.36342
 -18.96403 -18.77448 -17.54913 -16.91178 -16.04553 -15.58632 -15.16280 -14.89629
 -14.24478 -14.10962 -13.85037 -13.42546 -12.59797 -12.47217 -11.71827 -11.47396
  -0.20631   0.25862   0.29869   1.21365   1.51300   1.94822   2.19994   2.54688
   2.80118   3.07108   4.35578   4.78306   4.86956   4.94045   5.27550   5.54740
   5.72142


              NET ATOMIC CHARGES AND DIPOLE CONTRIBUTIONS

  ATOM NO.   TYPE          CHARGE      No. of ELECS.   s-Pop       p-Pop       
    1          N          -0.279663        5.2797     1.82823     3.45144
    2          C           0.142876        3.8571     1.12233     2.73480
    3          C           0.218354        3.7816     1.08921     2.69244
    4          C          -0.018761        4.0188     1.09445     2.92432
    5          O          -0.581833        6.5818     1.84324     4.73859
    6          C          -0.389998        4.3900     1.10299     3.28701
    7          C           0.654489        3.3455     1.12513     2.22038
    8          O          -0.457605        6.4576     1.86624     4.59137
    9          O          -0.445793        6.4458     1.90325     4.54255
   10          H           0.189526        0.8105     0.81047
   11          H           0.170596        0.8294     0.82940
   12          H           0.359301        0.6407     0.64070
   13          H           0.220597        0.7794     0.77940
   14          H           0.217914        0.7821     0.78209
 DIPOLE           X         Y         Z       TOTAL
 POINT-CHG.    -0.080     2.219     6.715     7.073
 HYBRID         0.035    -0.234    -0.505     0.558
 SUM           -0.045     1.986     6.209     6.519


          ATOMIC ORBITAL ELECTRON POPULATIONS

     Atom    s        px        py        pz   
    1  N   1.82823   1.12061   1.18582   1.14500
    2  C   1.12233   0.90030   0.91804   0.91645
    3  C   1.08921   0.98628   0.81223   0.89392
    4  C   1.09445   0.78764   1.13949   0.99718
    5  O   1.84324   1.48306   1.45135   1.80418
    6  C   1.10299   1.00702   1.12701   1.15298
    7  C   1.12513   0.73226   0.75807   0.73005
    8  O   1.86624   1.41353   1.50508   1.67276
    9  O   1.90325   1.39686   1.52862   1.61707
   10  H   0.81047
   11  H   0.82940
   12  H   0.64070
   13  H   0.77940
   14  H   0.78209

 **********************
 *                    *
 * JOB ENDED NORMALLY *
 *                    *
 **********************



 TOTAL JOB TIME:             1.10 SECONDS

 == MOPAC DONE ==
