 *******************************************************************************
 **                                                                           **
 **                              MOPAC v23.2                                  **
 **                                                                           **
 *******************************************************************************
 **          Digital Object Identifier (DOI): 10.5281/zenodo.6511958          **
 **    Visit the DOI location for information on how to cite this program.    **
 *******************************************************************************

                              PM7 CALCULATION RESULTS

 *******************************************************************************
 *  CALCULATION DONE: (MAX THREADS = 40)             Fri Sep 19 21:30:46 2025  *
 *  PM7        - The PM7 Hamiltonian to be used
 *  1SCF       - DO 1 SCF AND THEN STOP 
 *  T=         - A TIME OF 172800.0 SECONDS REQUESTED
 *  DUMP=N     - RESTART FILE WRITTEN EVERY 7200.0 SECONDS REQUESTED
 *  RELSCF     - DEFAULT SCF CRITERION MULTIPLIED BY 0.0001
 *              (DEFAULT SCF CRITERION = 0.00010)
 *  GRADIENTS  - ALL GRADIENTS TO BE PRINTED
 *  DISP       - PRINT DISPERSION AND HYDROGEN BOND ENERGIES
 *******************************************************************************
PM7 1SCF GRADIENTS DISP RELSCF=0.0001
 Title: ASE calculation

   ATOM   CHEMICAL          X               Y               Z
  NUMBER   SYMBOL      (ANGSTROMS)     (ANGSTROMS)     (ANGSTROMS)

     1       C         -1.24517638  *  -1.01535826  *  -1.29554535  *
     2       N         -0.65610258  *  -0.15674269  *  -0.24823670  *
     3       C         -1.66169846  *   0.22460242  *   0.76293333  *
     4       C          0.52580924  *  -0.76374576  *   0.34495211  *
     5       C          0.34475899  *  -2.01277208  *   1.17528224  *
     6       C          1.80295340  *  -0.59341726  *  -0.45471520  *
     7       C          1.62093267  *   0.22885856  *   0.80946993  *
     8       C          1.40695474  *   1.63544627  *   0.70550478  *
     9       N          1.24409092  *   2.77936950  *   0.64132438  *
    10       H         -1.68985794  *  -1.95031760  *  -0.92459928  *
    11       H         -2.02842865  *  -0.43861970  *  -1.81805516  *
    12       H         -0.47218860  *  -1.26629586  *  -2.04080456  *
    13       H         -2.44066157  *   0.82962768  *   0.26623906  *
    14       H         -2.14688594  *  -0.62138964  *   1.27036047  *
    15       H         -1.18861295  *   0.87004600  *   1.52263278  *
    16       H         -0.12055771  *  -2.81476699  *   0.58593126  *
    17       H         -0.29947622  *  -1.82433942  *   2.04472852  *
    18       H          1.29459482  *  -2.40564846  *   1.55747070  *
    19       H          2.54592753  *  -1.38455815  *  -0.47716270  *
    20       H          1.75808962  *  -0.08688305  *  -1.42028757  *
    21       H          2.20996148  *  -0.04979119  *   1.69922556  *



          CARTESIAN COORDINATES 

    NO.       ATOM           X           Y           Z

     1         C         -1.2452     -1.0154     -1.2955
     2         N         -0.6561     -0.1567     -0.2482
     3         C         -1.6617      0.2246      0.7629
     4         C          0.5258     -0.7637      0.3450
     5         C          0.3448     -2.0128      1.1753
     6         C          1.8030     -0.5934     -0.4547
     7         C          1.6209      0.2289      0.8095
     8         C          1.4070      1.6354      0.7055
     9         N          1.2441      2.7794      0.6413
    10         H         -1.6899     -1.9503     -0.9246
    11         H         -2.0284     -0.4386     -1.8181
    12         H         -0.4722     -1.2663     -2.0408
    13         H         -2.4407      0.8296      0.2662
    14         H         -2.1469     -0.6214      1.2704
    15         H         -1.1886      0.8700      1.5226
    16         H         -0.1206     -2.8148      0.5859
    17         H         -0.2995     -1.8243      2.0447
    18         H          1.2946     -2.4056      1.5575
    19         H          2.5459     -1.3846     -0.4772
    20         H          1.7581     -0.0869     -1.4203
    21         H          2.2100     -0.0498      1.6992

 General Reference for PM7:
 "Optimization of Parameters for Semiempirical Methods VI: More Modifications to the 
 NDDO Approximations and Re-optimization of Parameters", J. J. P. Stewart, J. Mol. Mod., 1:32, 19 (2013)
 https://link.springer.com/article/10.1007/s00894-012-1667-x

           Empirical Formula: C7 H12 N2  =    21 atoms



      MOLECULAR POINT GROUP   :   C1  


      RHF CALCULATION, NO. OF DOUBLY OCCUPIED LEVELS = 25

  SCF CRITERION =    0.1000E-07

 -------------------------------------------------------------------------------
 PM7 1SCF GRADIENTS DISP RELSCF=0.0001
 Title: ASE calculation



     1SCF WAS SPECIFIED, SO BFGS WAS NOT USED                 
     SCF FIELD WAS ACHIEVED                                   


                              PM7 CALCULATION
                                                       MOPAC v23.2 Linux
                                                       Fri Sep 19 21:30:47 2025




          FINAL HEAT OF FORMATION =         41.57028 KCAL/MOL =     173.93006 KJ/MOL

          TOTAL ENERGY            =     -32121.33767 KCAL/MOL = ELECTRONIC ENERGY + CORE-CORE REPULSION
          ENERGY OF ATOMS         =      32165.36403 KCAL/MOL
                              SUM =         44.02635 KCAL/MOL
          DISPERSION ENERGY       =         -2.45607 KCAL/MOL
                              SUM =         41.57028 KCAL/MOL = FINAL HEAT OF FORMATION



          TOTAL ENERGY            =      -1392.91304 EV
          ELECTRONIC ENERGY       =      -7292.83012 EV 
          CORE-CORE REPULSION     =       5899.91709 EV
          COSMO AREA              =        173.24 SQUARE ANGSTROMS
          COSMO VOLUME            =        180.00 CUBIC ANGSTROMS

          GRADIENT NORM           =          0.96134          =       0.20978 PER ATOM
          IONIZATION POTENTIAL    =          9.231636 EV
          HOMO LUMO ENERGIES (EV) =         -9.232  1.051
          NO. OF FILLED LEVELS    =         25
          MOLECULAR WEIGHT        =        124.1852         POINT GROUP:  C1  

          MOLECULAR DIMENSIONS (Angstroms)

            Atom       Atom       Distance
            H    10    N     9     5.78188
            H    13    H    19     5.48208
            H    17    H    11     4.10531


          SCF CALCULATIONS        =          1

          WALL-CLOCK TIME         =      0.375 SECONDS
          COMPUTATION TIME        =      0.679 SECONDS

          LARGEST ATOMIC GRADIENTS

          Atom     Label                     Cartesian Gradients           Cartesian Coordinates       |Gradient|
                                           X          Y          Z        X          Y          Z

             8       C                   0.256      0.160      0.150    1.40695    1.63545    0.70550      0.337
             2       N                   0.233      0.121      0.165   -0.65610   -0.15674   -0.24824      0.310
            21       H                   0.033      0.166     -0.237    2.20996   -0.04979    1.69923      0.291
             1       C                   0.154      0.081      0.222   -1.24518   -1.01536   -1.29555      0.283
             4       C                  -0.035      0.061      0.267    0.52581   -0.76375    0.34495      0.276
            15       H                  -0.195     -0.086     -0.171   -1.18861    0.87005    1.52263      0.273
             9       N                  -0.117     -0.240      0.009    1.24409    2.77937    0.64132      0.267
            18       H                  -0.140     -0.002      0.181    1.29459   -2.40565    1.55747      0.229
            17       H                  -0.079      0.185     -0.099   -0.29948   -1.82434    2.04473      0.225
            16       H                  -0.102     -0.045     -0.155   -0.12056   -2.81477    0.58593      0.191



       FINAL  POINT  AND  DERIVATIVES

   PARAMETER     ATOM    TYPE            VALUE        GRADIENT
      1          1  C    CARTESIAN X    -1.245176      0.154033  KCAL/ANGSTROM
      2          1  C    CARTESIAN Y    -1.015358      0.081202  KCAL/ANGSTROM
      3          1  C    CARTESIAN Z    -1.295545      0.222456  KCAL/ANGSTROM
      4          2  N    CARTESIAN X    -0.656103      0.232856  KCAL/ANGSTROM
      5          2  N    CARTESIAN Y    -0.156743      0.120537  KCAL/ANGSTROM
      6          2  N    CARTESIAN Z    -0.248237      0.165116  KCAL/ANGSTROM
      7          3  C    CARTESIAN X    -1.661698      0.047538  KCAL/ANGSTROM
      8          3  C    CARTESIAN Y     0.224602     -0.146309  KCAL/ANGSTROM
      9          3  C    CARTESIAN Z     0.762933      0.001074  KCAL/ANGSTROM
     10          4  C    CARTESIAN X     0.525809     -0.035485  KCAL/ANGSTROM
     11          4  C    CARTESIAN Y    -0.763746      0.061277  KCAL/ANGSTROM
     12          4  C    CARTESIAN Z     0.344952      0.266909  KCAL/ANGSTROM
     13          5  C    CARTESIAN X     0.344759     -0.087144  KCAL/ANGSTROM
     14          5  C    CARTESIAN Y    -2.012772     -0.027406  KCAL/ANGSTROM
     15          5  C    CARTESIAN Z     1.175282      0.027204  KCAL/ANGSTROM
     16          6  C    CARTESIAN X     1.802953     -0.113616  KCAL/ANGSTROM
     17          6  C    CARTESIAN Y    -0.593417     -0.059920  KCAL/ANGSTROM
     18          6  C    CARTESIAN Z    -0.454715      0.000403  KCAL/ANGSTROM
     19          7  C    CARTESIAN X     1.620933      0.017653  KCAL/ANGSTROM
     20          7  C    CARTESIAN Y     0.228859      0.001256  KCAL/ANGSTROM
     21          7  C    CARTESIAN Z     0.809470     -0.160442  KCAL/ANGSTROM
     22          8  C    CARTESIAN X     1.406955      0.256067  KCAL/ANGSTROM
     23          8  C    CARTESIAN Y     1.635446      0.159755  KCAL/ANGSTROM
     24          8  C    CARTESIAN Z     0.705505      0.149933  KCAL/ANGSTROM
     25          9  N    CARTESIAN X     1.244091     -0.116664  KCAL/ANGSTROM
     26          9  N    CARTESIAN Y     2.779370     -0.239526  KCAL/ANGSTROM
     27          9  N    CARTESIAN Z     0.641324      0.008733  KCAL/ANGSTROM
     28         10  H    CARTESIAN X    -1.689858      0.067724  KCAL/ANGSTROM
     29         10  H    CARTESIAN Y    -1.950318      0.000646  KCAL/ANGSTROM
     30         10  H    CARTESIAN Z    -0.924599     -0.084270  KCAL/ANGSTROM
     31         11  H    CARTESIAN X    -2.028429     -0.021843  KCAL/ANGSTROM
     32         11  H    CARTESIAN Y    -0.438620     -0.072252  KCAL/ANGSTROM
     33         11  H    CARTESIAN Z    -1.818055      0.019249  KCAL/ANGSTROM
     34         12  H    CARTESIAN X    -0.472189     -0.163843  KCAL/ANGSTROM
     35         12  H    CARTESIAN Y    -1.266296      0.063604  KCAL/ANGSTROM
     36         12  H    CARTESIAN Z    -2.040805     -0.025577  KCAL/ANGSTROM
     37         13  H    CARTESIAN X    -2.440662      0.049000  KCAL/ANGSTROM
     38         13  H    CARTESIAN Y     0.829628     -0.169108  KCAL/ANGSTROM
     39         13  H    CARTESIAN Z     0.266239      0.026550  KCAL/ANGSTROM
     40         14  H    CARTESIAN X    -2.146886      0.082317  KCAL/ANGSTROM
     41         14  H    CARTESIAN Y    -0.621390      0.014185  KCAL/ANGSTROM
     42         14  H    CARTESIAN Z     1.270360     -0.011726  KCAL/ANGSTROM
     43         15  H    CARTESIAN X    -1.188613     -0.194614  KCAL/ANGSTROM
     44         15  H    CARTESIAN Y     0.870046     -0.086407  KCAL/ANGSTROM
     45         15  H    CARTESIAN Z     1.522633     -0.170511  KCAL/ANGSTROM
     46         16  H    CARTESIAN X    -0.120558     -0.101543  KCAL/ANGSTROM
     47         16  H    CARTESIAN Y    -2.814767     -0.044825  KCAL/ANGSTROM
     48         16  H    CARTESIAN Z     0.585931     -0.155011  KCAL/ANGSTROM
     49         17  H    CARTESIAN X    -0.299476     -0.078878  KCAL/ANGSTROM
     50         17  H    CARTESIAN Y    -1.824339      0.185397  KCAL/ANGSTROM
     51         17  H    CARTESIAN Z     2.044729     -0.099342  KCAL/ANGSTROM
     52         18  H    CARTESIAN X     1.294595     -0.140183  KCAL/ANGSTROM
     53         18  H    CARTESIAN Y    -2.405648     -0.002249  KCAL/ANGSTROM
     54         18  H    CARTESIAN Z     1.557471      0.181192  KCAL/ANGSTROM
     55         19  H    CARTESIAN X     2.545928      0.053243  KCAL/ANGSTROM
     56         19  H    CARTESIAN Y    -1.384558     -0.060347  KCAL/ANGSTROM
     57         19  H    CARTESIAN Z    -0.477163     -0.110357  KCAL/ANGSTROM
     58         20  H    CARTESIAN X     1.758090      0.060314  KCAL/ANGSTROM
     59         20  H    CARTESIAN Y    -0.086883      0.054802  KCAL/ANGSTROM
     60         20  H    CARTESIAN Z    -1.420288     -0.014341  KCAL/ANGSTROM
     61         21  H    CARTESIAN X     2.209961      0.033071  KCAL/ANGSTROM
     62         21  H    CARTESIAN Y    -0.049791      0.165685  KCAL/ANGSTROM
     63         21  H    CARTESIAN Z     1.699226     -0.237246  KCAL/ANGSTROM




   ATOM   CHEMICAL          X               Y               Z
  NUMBER   SYMBOL      (ANGSTROMS)     (ANGSTROMS)     (ANGSTROMS)

     1       C         -1.24517638  *  -1.01535826  *  -1.29554535  *
     2       N         -0.65610258  *  -0.15674269  *  -0.24823670  *
     3       C         -1.66169846  *   0.22460242  *   0.76293333  *
     4       C          0.52580924  *  -0.76374576  *   0.34495211  *
     5       C          0.34475899  *  -2.01277208  *   1.17528224  *
     6       C          1.80295340  *  -0.59341726  *  -0.45471520  *
     7       C          1.62093267  *   0.22885856  *   0.80946993  *
     8       C          1.40695474  *   1.63544627  *   0.70550478  *
     9       N          1.24409092  *   2.77936950  *   0.64132438  *
    10       H         -1.68985794  *  -1.95031760  *  -0.92459928  *
    11       H         -2.02842865  *  -0.43861970  *  -1.81805516  *
    12       H         -0.47218860  *  -1.26629586  *  -2.04080456  *
    13       H         -2.44066157  *   0.82962768  *   0.26623906  *
    14       H         -2.14688594  *  -0.62138964  *   1.27036047  *
    15       H         -1.18861295  *   0.87004600  *   1.52263278  *
    16       H         -0.12055771  *  -2.81476699  *   0.58593126  *
    17       H         -0.29947622  *  -1.82433942  *   2.04472852  *
    18       H          1.29459482  *  -2.40564846  *   1.55747070  *
    19       H          2.54592753  *  -1.38455815  *  -0.47716270  *
    20       H          1.75808962  *  -0.08688305  *  -1.42028757  *
    21       H          2.20996148  *  -0.04979119  *   1.69922556  *

                             CARTESIAN COORDINATES

   1    C       -1.245176385    -1.015358265    -1.295545351
   2    N       -0.656102576    -0.156742686    -0.248236705
   3    C       -1.661698459     0.224602422     0.762933330
   4    C        0.525809240    -0.763745756     0.344952115
   5    C        0.344758995    -2.012772081     1.175282238
   6    C        1.802953401    -0.593417257    -0.454715199
   7    C        1.620932666     0.228858558     0.809469933
   8    C        1.406954741     1.635446272     0.705504775
   9    N        1.244090925     2.779369504     0.641324380
  10    H       -1.689857940    -1.950317603    -0.924599285
  11    H       -2.028428648    -0.438619701    -1.818055164
  12    H       -0.472188596    -1.266295862    -2.040804558
  13    H       -2.440661571     0.829627679     0.266239057
  14    H       -2.146885940    -0.621389637     1.270360471
  15    H       -1.188612954     0.870045998     1.522632778
  16    H       -0.120557707    -2.814766989     0.585931265
  17    H       -0.299476223    -1.824339416     2.044728516
  18    H        1.294594818    -2.405648459     1.557470695
  19    H        2.545927529    -1.384558155    -0.477162698
  20    H        1.758089617    -0.086883053    -1.420287568
  21    H        2.209961481    -0.049791186     1.699225555


           Empirical Formula: C7 H12 N2  =    21 atoms



      MOLECULAR POINT GROUP   :   C1  


                  EIGENVALUES  
 -35.71348 -34.56787 -30.57194 -25.72086 -24.93386 -23.44340 -22.53673 -19.56509
 -18.51506 -16.78186 -16.00882 -15.60029 -15.35830 -14.71253 -14.08998 -13.92162
 -13.63702 -13.39511 -13.19277 -12.79625 -12.75565 -12.58030 -11.59185 -10.95188
  -9.23164   1.05123   1.56122   2.31325   2.39733   3.29244   3.53731   3.65543
   3.88343   4.56736   4.68042   5.14453   5.20190   5.23704   5.41547   5.44500
   5.50956   5.63533   5.73610   6.02334   6.17721   6.23657   6.44406   6.49616


              NET ATOMIC CHARGES AND DIPOLE CONTRIBUTIONS

  ATOM NO.   TYPE          CHARGE      No. of ELECS.   s-Pop       p-Pop       
    1          C          -0.268023        4.2680     1.06141     3.20662
    2          N          -0.396392        5.3964     1.67098     3.72542
    3          C          -0.272749        4.2727     1.06186     3.21089
    4          C           0.191193        3.8088     1.04146     2.76735
    5          C          -0.481198        4.4812     1.05608     3.42512
    6          C          -0.313902        4.3139     1.06297     3.25093
    7          C          -0.211097        4.2111     1.03738     3.17372
    8          C           0.151334        3.8487     1.10372     2.74494
    9          N          -0.266423        5.2664     1.83139     3.43503
   10          H           0.121063        0.8789     0.87894
   11          H           0.152855        0.8471     0.84715
   12          H           0.148547        0.8515     0.85145
   13          H           0.154741        0.8453     0.84526
   14          H           0.121498        0.8785     0.87850
   15          H           0.153406        0.8466     0.84659
   16          H           0.161541        0.8385     0.83846
   17          H           0.161761        0.8382     0.83824
   18          H           0.159544        0.8405     0.84046
   19          H           0.164586        0.8354     0.83541
   20          H           0.181059        0.8189     0.81894
   21          H           0.186658        0.8133     0.81334
 DIPOLE           X         Y         Z       TOTAL
 POINT-CHG.    -0.779    -4.567     0.179     4.637
 HYBRID        -0.098    -0.921     0.381     1.002
 SUM           -0.876    -5.489     0.560     5.587


          ATOMIC ORBITAL ELECTRON POPULATIONS

     Atom    s        px        py        pz   
    1  C   1.06141   1.12609   1.06455   1.01598
    2  N   1.67098   1.11407   1.43776   1.17358
    3  C   1.06186   1.03985   1.12910   1.04194
    4  C   1.04146   0.85677   0.92121   0.98937
    5  C   1.05608   1.19142   1.08873   1.14497
    6  C   1.06297   1.08502   1.12075   1.04515
    7  C   1.03738   1.15420   0.93178   1.08774
    8  C   1.10372   0.91476   0.91286   0.91732
    9  N   1.83139   1.11016   1.22262   1.10226
   10  H   0.87894
   11  H   0.84715
   12  H   0.85145
   13  H   0.84526
   14  H   0.87850
   15  H   0.84659
   16  H   0.83846
   17  H   0.83824
   18  H   0.84046
   19  H   0.83541
   20  H   0.81894
   21  H   0.81334

 **********************
 *                    *
 * JOB ENDED NORMALLY *
 *                    *
 **********************



 TOTAL JOB TIME:             0.67 SECONDS

 == MOPAC DONE ==
