 *******************************************************************************
 **                                                                           **
 **                              MOPAC v23.2                                  **
 **                                                                           **
 *******************************************************************************
 **          Digital Object Identifier (DOI): 10.5281/zenodo.6511958          **
 **    Visit the DOI location for information on how to cite this program.    **
 *******************************************************************************

                              PM7 CALCULATION RESULTS

 *******************************************************************************
 *  CALCULATION DONE: (MAX THREADS = 40)             Fri Sep 19 21:33:44 2025  *
 *  PM7        - The PM7 Hamiltonian to be used
 *  EPS=37.5   - USE ANDREAS KLAMT'S COSMO IMPLICIT SOLVATION MODEL
 *  1SCF       - DO 1 SCF AND THEN STOP 
 *  T=         - A TIME OF 172800.0 SECONDS REQUESTED
 *  DUMP=N     - RESTART FILE WRITTEN EVERY 7200.0 SECONDS REQUESTED
 *  RELSCF     - DEFAULT SCF CRITERION MULTIPLIED BY 0.0001
 *              (DEFAULT SCF CRITERION = 0.00010)
 *  GRADIENTS  - ALL GRADIENTS TO BE PRINTED
 *  DISP       - PRINT DISPERSION AND HYDROGEN BOND ENERGIES
 *******************************************************************************
PM7 1SCF GRADIENTS EPS=37.5 DISP RELSCF=0.0001
 Title: ASE calculation

   ATOM   CHEMICAL          X               Y               Z
  NUMBER   SYMBOL      (ANGSTROMS)     (ANGSTROMS)     (ANGSTROMS)

     1       C         -0.85969155  *   1.86897344  *   0.02169167  *
     2       N         -0.18977284  *   0.61392916  *   0.35761292  *
     3       C          0.16782449  *  -0.27574038  *  -0.77832064  *
     4       C          1.05030889  *  -1.38869379  *  -0.17790427  *
     5       C          2.51915896  *  -1.43372291  *  -0.14446927  *
     6       O          0.29812839  *  -2.60515298  *  -0.27289682  *
     7       C         -0.05619857  *  -1.75054410  *   0.81793208  *
     8       C         -0.96584342  *  -0.64645679  *   0.23298136  *
     9       C         -2.42842827  *  -0.78328509  *   0.09519735  *
    10       H         -1.35738398  *   2.24696168  *   0.93383648  *
    11       H         -0.08634157  *   2.60515298  *  -0.26432305  *
    12       H         -1.60570433  *   1.81922200  *  -0.78454039  *
    13       H          0.15691300  *  -0.00135639  *  -1.80770697  *
    14       H          2.94058192  *  -1.56347305  *  -1.15392751  *
    15       H          2.93515481  *  -0.50234904  *   0.27598637  *
    16       H          2.89026113  *  -2.26939710  *   0.46897499  *
    17       H         -0.07669089  *  -2.13589190  *   1.80770697  *
    18       H         -2.94058192  *  -0.56621233  *   1.04620813  *
    19       H         -2.70418691  *  -1.81122482  *  -0.19560677  *
    20       H         -2.84976006  *  -0.11313797  *  -0.66617886  *



          CARTESIAN COORDINATES 

    NO.       ATOM           X           Y           Z

     1         C         -0.8597      1.8690      0.0217
     2         N         -0.1898      0.6139      0.3576
     3         C          0.1678     -0.2757     -0.7783
     4         C          1.0503     -1.3887     -0.1779
     5         C          2.5192     -1.4337     -0.1445
     6         O          0.2981     -2.6052     -0.2729
     7         C         -0.0562     -1.7505      0.8179
     8         C         -0.9658     -0.6465      0.2330
     9         C         -2.4284     -0.7833      0.0952
    10         H         -1.3574      2.2470      0.9338
    11         H         -0.0863      2.6052     -0.2643
    12         H         -1.6057      1.8192     -0.7845
    13         H          0.1569     -0.0014     -1.8077
    14         H          2.9406     -1.5635     -1.1539
    15         H          2.9352     -0.5023      0.2760
    16         H          2.8903     -2.2694      0.4690
    17         H         -0.0767     -2.1359      1.8077
    18         H         -2.9406     -0.5662      1.0462
    19         H         -2.7042     -1.8112     -0.1956
    20         H         -2.8498     -0.1131     -0.6662

 General Reference for PM7:
 "Optimization of Parameters for Semiempirical Methods VI: More Modifications to the 
 NDDO Approximations and Re-optimization of Parameters", J. J. P. Stewart, J. Mol. Mod., 1:32, 19 (2013)
 https://link.springer.com/article/10.1007/s00894-012-1667-x

           Empirical Formula: C7 H11 N O  =    20 atoms



      MOLECULAR POINT GROUP   :   C1  


      RHF CALCULATION, NO. OF DOUBLY OCCUPIED LEVELS = 25

  SCF CRITERION =    0.1000E-07

 -------------------------------------------------------------------------------
 PM7 1SCF GRADIENTS EPS=37.5 DISP RELSCF=0.0001
 Title: ASE calculation



     1SCF WAS SPECIFIED, SO BFGS WAS NOT USED                 
     SCF FIELD WAS ACHIEVED                                   


                              PM7 CALCULATION
                                                       MOPAC v23.2 Linux
                                                       Fri Sep 19 21:33:44 2025




          FINAL HEAT OF FORMATION =         44.29974 KCAL/MOL =     185.35012 KJ/MOL

          TOTAL ENERGY            =     -34277.77226 KCAL/MOL = ELECTRONIC ENERGY + CORE-CORE REPULSION + SOLVATION ENERGY
          ENERGY OF ATOMS         =      34323.93363 KCAL/MOL
                              SUM =         46.16138 KCAL/MOL
          DISPERSION ENERGY       =         -1.86163 KCAL/MOL
                              SUM =         44.29974 KCAL/MOL = FINAL HEAT OF FORMATION

          VAN DER WAALS AREA      =        165.37 SQUARE ANGSTROMS


          TOTAL ENERGY            =      -1486.42489 EV
          ELECTRONIC ENERGY       =      -2350.41387 EV 
          CORE-CORE REPULSION     =        863.98898 EV

          DIELECTRIC ENERGY       =         -0.41337 EV
          COSMO AREA              =        165.37 SQUARE ANGSTROMS
          COSMO VOLUME            =        164.00 CUBIC ANGSTROMS

          GRADIENT NORM           =         12.07527          =       2.70011 PER ATOM
          IONIZATION POTENTIAL    =          9.658515 EV
          HOMO LUMO ENERGIES (EV) =         -9.659  1.393
          NO. OF FILLED LEVELS    =         25
          MOLECULAR WEIGHT        =        125.1700         POINT GROUP:  C1  

          MOLECULAR DIMENSIONS (Angstroms)

            Atom       Atom       Distance
            H    18    H    14     6.35793
            H    11    H    17     5.17394
            H    15    H    19     3.02774


          SCF CALCULATIONS        =          2

          WALL-CLOCK TIME         =      0.648 SECONDS
          COMPUTATION TIME        =      0.988 SECONDS

          LARGEST ATOMIC GRADIENTS

          Atom     Label                     Cartesian Gradients           Cartesian Coordinates       |Gradient|
                                           X          Y          Z        X          Y          Z

             5       C                   4.724      0.913     -0.140    2.51916   -1.43372   -0.14447      4.813
             4       C                  -2.987     -3.262     -1.402    1.05031   -1.38869   -0.17790      4.640
             9       C                  -4.237      0.878     -0.897   -2.42843   -0.78329    0.09520      4.419
             6       O                   0.776      3.098      1.620    0.29813   -2.60515   -0.27290      3.581
             1       C                  -2.348      0.214     -2.457   -0.85969    1.86897    0.02169      3.405
             7       C                  -0.340     -2.684     -0.316   -0.05620   -1.75054    0.81793      2.724
             3       C                  -0.280      1.918     -1.903    0.16782   -0.27574   -0.77832      2.716
            17       H                   0.101      1.854     -1.707   -0.07669   -2.13589    1.80771      2.522
            13       H                   0.148     -1.336      2.039    0.15691   -0.00136   -1.80771      2.442
             8       C                   2.058      0.832      0.810   -0.96584   -0.64646    0.23298      2.363



       FINAL  POINT  AND  DERIVATIVES

   PARAMETER     ATOM    TYPE            VALUE        GRADIENT
      1          1  C    CARTESIAN X    -0.859692     -2.347802  KCAL/ANGSTROM
      2          1  C    CARTESIAN Y     1.868973      0.213839  KCAL/ANGSTROM
      3          1  C    CARTESIAN Z     0.021692     -2.457127  KCAL/ANGSTROM
      4          2  N    CARTESIAN X    -0.189773      0.494885  KCAL/ANGSTROM
      5          2  N    CARTESIAN Y     0.613929      1.126594  KCAL/ANGSTROM
      6          2  N    CARTESIAN Z     0.357613      1.135616  KCAL/ANGSTROM
      7          3  C    CARTESIAN X     0.167824     -0.279756  KCAL/ANGSTROM
      8          3  C    CARTESIAN Y    -0.275740      1.917881  KCAL/ANGSTROM
      9          3  C    CARTESIAN Z    -0.778321     -1.902621  KCAL/ANGSTROM
     10          4  C    CARTESIAN X     1.050309     -2.986972  KCAL/ANGSTROM
     11          4  C    CARTESIAN Y    -1.388694     -3.262346  KCAL/ANGSTROM
     12          4  C    CARTESIAN Z    -0.177904     -1.402335  KCAL/ANGSTROM
     13          5  C    CARTESIAN X     2.519159      4.723963  KCAL/ANGSTROM
     14          5  C    CARTESIAN Y    -1.433723      0.913131  KCAL/ANGSTROM
     15          5  C    CARTESIAN Z    -0.144469     -0.140443  KCAL/ANGSTROM
     16          6  O    CARTESIAN X     0.298128      0.776252  KCAL/ANGSTROM
     17          6  O    CARTESIAN Y    -2.605153      3.097636  KCAL/ANGSTROM
     18          6  O    CARTESIAN Z    -0.272897      1.619742  KCAL/ANGSTROM
     19          7  C    CARTESIAN X    -0.056199     -0.340389  KCAL/ANGSTROM
     20          7  C    CARTESIAN Y    -1.750544     -2.683751  KCAL/ANGSTROM
     21          7  C    CARTESIAN Z     0.817932     -0.316222  KCAL/ANGSTROM
     22          8  C    CARTESIAN X    -0.965843      2.057895  KCAL/ANGSTROM
     23          8  C    CARTESIAN Y    -0.646457      0.831959  KCAL/ANGSTROM
     24          8  C    CARTESIAN Z     0.232981      0.809657  KCAL/ANGSTROM
     25          9  C    CARTESIAN X    -2.428428     -4.236836  KCAL/ANGSTROM
     26          9  C    CARTESIAN Y    -0.783285      0.877534  KCAL/ANGSTROM
     27          9  C    CARTESIAN Z     0.095197     -0.897165  KCAL/ANGSTROM
     28         10  H    CARTESIAN X    -1.357384      1.654705  KCAL/ANGSTROM
     29         10  H    CARTESIAN Y     2.246962     -0.603409  KCAL/ANGSTROM
     30         10  H    CARTESIAN Z     0.933836      0.434718  KCAL/ANGSTROM
     31         11  H    CARTESIAN X    -0.086342      0.515786  KCAL/ANGSTROM
     32         11  H    CARTESIAN Y     2.605153     -1.326123  KCAL/ANGSTROM
     33         11  H    CARTESIAN Z    -0.264323      1.322796  KCAL/ANGSTROM
     34         12  H    CARTESIAN X    -1.605704      0.356879  KCAL/ANGSTROM
     35         12  H    CARTESIAN Y     1.819222     -0.170423  KCAL/ANGSTROM
     36         12  H    CARTESIAN Z    -0.784540      0.604309  KCAL/ANGSTROM
     37         13  H    CARTESIAN X     0.156913      0.147917  KCAL/ANGSTROM
     38         13  H    CARTESIAN Y    -0.001356     -1.336335  KCAL/ANGSTROM
     39         13  H    CARTESIAN Z    -1.807707      2.038876  KCAL/ANGSTROM
     40         14  H    CARTESIAN X     2.940582     -1.491324  KCAL/ANGSTROM
     41         14  H    CARTESIAN Y    -1.563473     -0.637313  KCAL/ANGSTROM
     42         14  H    CARTESIAN Z    -1.153928      0.845736  KCAL/ANGSTROM
     43         15  H    CARTESIAN X     2.935155     -1.176296  KCAL/ANGSTROM
     44         15  H    CARTESIAN Y    -0.502349      0.288947  KCAL/ANGSTROM
     45         15  H    CARTESIAN Z     0.275986      0.420071  KCAL/ANGSTROM
     46         16  H    CARTESIAN X     2.890261     -1.487267  KCAL/ANGSTROM
     47         16  H    CARTESIAN Y    -2.269397      0.415072  KCAL/ANGSTROM
     48         16  H    CARTESIAN Z     0.468975     -0.718622  KCAL/ANGSTROM
     49         17  H    CARTESIAN X    -0.076691      0.100879  KCAL/ANGSTROM
     50         17  H    CARTESIAN Y    -2.135892      1.854052  KCAL/ANGSTROM
     51         17  H    CARTESIAN Z     1.807707     -1.707335  KCAL/ANGSTROM
     52         18  H    CARTESIAN X    -2.940582      1.310543  KCAL/ANGSTROM
     53         18  H    CARTESIAN Y    -0.566212     -0.307593  KCAL/ANGSTROM
     54         18  H    CARTESIAN Z     1.046208     -0.391792  KCAL/ANGSTROM
     55         19  H    CARTESIAN X    -2.704187      0.999504  KCAL/ANGSTROM
     56         19  H    CARTESIAN Y    -1.811225     -0.086997  KCAL/ANGSTROM
     57         19  H    CARTESIAN Z    -0.195607     -0.000278  KCAL/ANGSTROM
     58         20  H    CARTESIAN X    -2.849760      1.207430  KCAL/ANGSTROM
     59         20  H    CARTESIAN Y    -0.113138     -1.122358  KCAL/ANGSTROM
     60         20  H    CARTESIAN Z    -0.666179      0.702414  KCAL/ANGSTROM




   ATOM   CHEMICAL          X               Y               Z
  NUMBER   SYMBOL      (ANGSTROMS)     (ANGSTROMS)     (ANGSTROMS)

     1       C         -0.85969155  *   1.86897344  *   0.02169167  *
     2       N         -0.18977284  *   0.61392916  *   0.35761292  *
     3       C          0.16782449  *  -0.27574038  *  -0.77832064  *
     4       C          1.05030889  *  -1.38869379  *  -0.17790427  *
     5       C          2.51915896  *  -1.43372291  *  -0.14446927  *
     6       O          0.29812839  *  -2.60515298  *  -0.27289682  *
     7       C         -0.05619857  *  -1.75054410  *   0.81793208  *
     8       C         -0.96584342  *  -0.64645679  *   0.23298136  *
     9       C         -2.42842827  *  -0.78328509  *   0.09519735  *
    10       H         -1.35738398  *   2.24696168  *   0.93383648  *
    11       H         -0.08634157  *   2.60515298  *  -0.26432305  *
    12       H         -1.60570433  *   1.81922200  *  -0.78454039  *
    13       H          0.15691300  *  -0.00135639  *  -1.80770697  *
    14       H          2.94058192  *  -1.56347305  *  -1.15392751  *
    15       H          2.93515481  *  -0.50234904  *   0.27598637  *
    16       H          2.89026113  *  -2.26939710  *   0.46897499  *
    17       H         -0.07669089  *  -2.13589190  *   1.80770697  *
    18       H         -2.94058192  *  -0.56621233  *   1.04620813  *
    19       H         -2.70418691  *  -1.81122482  *  -0.19560677  *
    20       H         -2.84976006  *  -0.11313797  *  -0.66617886  *

                             CARTESIAN COORDINATES

   1    C       -0.859691555     1.868973438     0.021691669
   2    N       -0.189772839     0.613929163     0.357612916
   3    C        0.167824486    -0.275740381    -0.778320645
   4    C        1.050308892    -1.388693787    -0.177904272
   5    C        2.519158963    -1.433722912    -0.144469270
   6    O        0.298128388    -2.605152982    -0.272896817
   7    C       -0.056198568    -1.750544099     0.817932077
   8    C       -0.965843418    -0.646456785     0.232981365
   9    C       -2.428428268    -0.783285090     0.095197355
  10    H       -1.357383981     2.246961683     0.933836477
  11    H       -0.086341575     2.605152982    -0.264323048
  12    H       -1.605704331     1.819222005    -0.784540391
  13    H        0.156912996    -0.001356388    -1.807706974
  14    H        2.940581924    -1.563473046    -1.153927511
  15    H        2.935154810    -0.502349036     0.275986373
  16    H        2.890261126    -2.269397101     0.468974994
  17    H       -0.076690887    -2.135891901     1.807706974
  18    H       -2.940581924    -0.566212329     1.046208128
  19    H       -2.704186909    -1.811224823    -0.195606774
  20    H       -2.849760064    -0.113137973    -0.666178857


           Empirical Formula: C7 H11 N O  =    20 atoms



      MOLECULAR POINT GROUP   :   C1  


                  EIGENVALUES  
 -37.15757 -32.30045 -27.08842 -26.73815 -25.60053 -23.02375 -22.27282 -19.48824
 -18.86140 -17.07100 -16.72375 -16.38525 -15.34873 -15.19447 -14.45796 -14.28146
 -13.87227 -13.77983 -13.20700 -12.51567 -12.24581 -11.91361 -11.68720 -10.62171
  -9.65852   1.39305   1.70140   1.91641   2.52695   2.88518   2.90922   3.49517
   3.82200   4.00703   4.30547   4.54049   5.43726   5.47656   5.50151   5.52492
   5.55893   5.62961   5.65288   5.77548   6.33516   6.64768   6.71788


              NET ATOMIC CHARGES AND DIPOLE CONTRIBUTIONS

  ATOM NO.   TYPE          CHARGE      No. of ELECS.   s-Pop       p-Pop       
    1          C          -0.292756        4.2928     1.06212     3.23063
    2          N          -0.410223        5.4102     1.74664     3.66358
    3          C          -0.149985        4.1500     1.09302     3.05697
    4          C           0.197327        3.8027     1.07958     2.72310
    5          C          -0.466029        4.4660     1.04780     3.41823
    6          O          -0.413662        6.4137     1.91783     4.49583
    7          C          -0.013941        4.0139     1.10804     2.90590
    8          C           0.074003        3.9260     1.06940     2.85659
    9          C          -0.458803        4.4588     1.04639     3.41242
   10          H           0.167180        0.8328     0.83282
   11          H           0.166852        0.8331     0.83315
   12          H           0.151139        0.8489     0.84886
   13          H           0.186191        0.8138     0.81381
   14          H           0.182177        0.8178     0.81782
   15          H           0.182494        0.8175     0.81751
   16          H           0.181163        0.8188     0.81884
   17          H           0.185512        0.8145     0.81449
   18          H           0.178676        0.8213     0.82132
   19          H           0.178492        0.8215     0.82151
   20          H           0.174192        0.8258     0.82581
 DIPOLE           X         Y         Z       TOTAL
 POINT-CHG.    -0.580     2.436     0.116     2.506
 HYBRID        -0.622    -0.329    -0.827     1.086
 SUM           -1.202     2.106    -0.710     2.527


          ATOMIC ORBITAL ELECTRON POPULATIONS

     Atom    s        px        py        pz   
    1  C   1.06212   1.12307   0.93836   1.16920
    2  N   1.74664   1.30494   1.04871   1.30994
    3  C   1.09302   1.03593   1.01588   1.00516
    4  C   1.07958   0.91483   0.81945   0.98882
    5  C   1.04780   1.00640   1.20509   1.20674
    6  O   1.91783   1.63101   1.34550   1.51932
    7  C   1.10804   1.01434   0.93647   0.95509
    8  C   1.06940   0.93533   0.90276   1.01850
    9  C   1.04639   1.00884   1.20323   1.20034
   10  H   0.83282
   11  H   0.83315
   12  H   0.84886
   13  H   0.81381
   14  H   0.81782
   15  H   0.81751
   16  H   0.81884
   17  H   0.81449
   18  H   0.82132
   19  H   0.82151
   20  H   0.82581

 **********************
 *                    *
 * JOB ENDED NORMALLY *
 *                    *
 **********************



 TOTAL JOB TIME:             1.09 SECONDS

 == MOPAC DONE ==
