 *******************************************************************************
 **                                                                           **
 **                              MOPAC v23.2                                  **
 **                                                                           **
 *******************************************************************************
 **          Digital Object Identifier (DOI): 10.5281/zenodo.6511958          **
 **    Visit the DOI location for information on how to cite this program.    **
 *******************************************************************************

                              PM7 CALCULATION RESULTS

 *******************************************************************************
 *  CALCULATION DONE: (MAX THREADS = 40)             Fri Sep 19 21:32:00 2025  *
 *  PM7        - The PM7 Hamiltonian to be used
 *
 *
 *
 *                 CHARGE ON SYSTEM = +1
 *
 *
 *
 *  EPS=37.5   - USE ANDREAS KLAMT'S COSMO IMPLICIT SOLVATION MODEL
 *  1SCF       - DO 1 SCF AND THEN STOP 
 *  T=         - A TIME OF 172800.0 SECONDS REQUESTED
 *  DUMP=N     - RESTART FILE WRITTEN EVERY 7200.0 SECONDS REQUESTED
 *  RELSCF     - DEFAULT SCF CRITERION MULTIPLIED BY 0.0001
 *              (DEFAULT SCF CRITERION = 0.00010)
 *  GRADIENTS  - ALL GRADIENTS TO BE PRINTED
 *  DISP       - PRINT DISPERSION AND HYDROGEN BOND ENERGIES
 *******************************************************************************
PM7 1SCF GRADIENTS EPS=37.5 DISP RELSCF=0.0001 CHARGE=1
 Title: ASE calculation

   ATOM   CHEMICAL          X               Y               Z
  NUMBER   SYMBOL      (ANGSTROMS)     (ANGSTROMS)     (ANGSTROMS)

     1       O         -1.79148562  *  -2.10332373  *  -0.39038762  *
     2       C         -1.25663836  *  -0.95096461  *  -0.25090707  *
     3       C         -1.90836274  *   0.24452413  *  -0.85240347  *
     4       O         -1.07008845  *   1.36043066  *  -0.50509100  *
     5       C         -0.02135868  *   0.91504499  *   0.23488957  *
     6       C          0.81748722  *   1.91095005  *   0.86510938  *
     7       C          2.30898913  *   1.79495267  *   0.81035206  *
     8       O          1.57495277  *   1.39932399  *   1.96980714  *
     9       C         -0.02618923  *  -0.55875233  *   0.44905091  *
    10       H         -1.30425829  *  -2.89972966  *   0.04917644  *
    11       H         -2.93292284  *   0.46950859  *  -0.46091003  *
    12       H         -1.97844246  *   0.23132152  *  -1.96980714  *
    13       H          0.35312791  *   2.89972966  *   1.02874471  *
    14       H          2.79840063  *   0.99159238  *   0.26667273  *
    15       H          2.93292284  *   2.68402818  *   0.93378218  *
    16       H          0.91454360  *  -1.04058729  *   0.06554380  *
    17       H          0.01194573  *  -0.81089520  *   1.54881927  *



          CARTESIAN COORDINATES 

    NO.       ATOM           X           Y           Z

     1         O         -1.7915     -2.1033     -0.3904
     2         C         -1.2566     -0.9510     -0.2509
     3         C         -1.9084      0.2445     -0.8524
     4         O         -1.0701      1.3604     -0.5051
     5         C         -0.0214      0.9150      0.2349
     6         C          0.8175      1.9110      0.8651
     7         C          2.3090      1.7950      0.8104
     8         O          1.5750      1.3993      1.9698
     9         C         -0.0262     -0.5588      0.4491
    10         H         -1.3043     -2.8997      0.0492
    11         H         -2.9329      0.4695     -0.4609
    12         H         -1.9784      0.2313     -1.9698
    13         H          0.3531      2.8997      1.0287
    14         H          2.7984      0.9916      0.2667
    15         H          2.9329      2.6840      0.9338
    16         H          0.9145     -1.0406      0.0655
    17         H          0.0119     -0.8109      1.5488

 General Reference for PM7:
 "Optimization of Parameters for Semiempirical Methods VI: More Modifications to the 
 NDDO Approximations and Re-optimization of Parameters", J. J. P. Stewart, J. Mol. Mod., 1:32, 19 (2013)
 https://link.springer.com/article/10.1007/s00894-012-1667-x

           Empirical Formula: C6 H8 O3  =    17 atoms



      MOLECULAR POINT GROUP   :   C1  


          UHF CALCULATION, NO. OF ALPHA ELECTRONS =   25
                           NO. OF BETA  ELECTRONS =   24
  SCF CRITERION =    0.1000E-07

 -------------------------------------------------------------------------------
 PM7 1SCF GRADIENTS EPS=37.5 DISP RELSCF=0.0001 CHARGE=1
 Title: ASE calculation



     1SCF WAS SPECIFIED, SO BFGS WAS NOT USED                 
     SCF FIELD WAS ACHIEVED                                   


                              PM7 CALCULATION
                                                       MOPAC v23.2 Linux
                                                       Fri Sep 19 21:32:01 2025




          FINAL HEAT OF FORMATION =         55.98592 KCAL/MOL =     234.24510 KJ/MOL

          TOTAL ENERGY            =     -39740.05737 KCAL/MOL = ELECTRONIC ENERGY + CORE-CORE REPULSION + SOLVATION ENERGY
          ENERGY OF ATOMS         =      39797.54792 KCAL/MOL
                              SUM =         57.49055 KCAL/MOL
          DISPERSION ENERGY       =         -1.50463 KCAL/MOL
                              SUM =         55.98592 KCAL/MOL = FINAL HEAT OF FORMATION

          VAN DER WAALS AREA      =        157.24 SQUARE ANGSTROMS


          TOTAL ENERGY            =      -1723.29199 EV
          ELECTRONIC ENERGY       =      -2310.05764 EV 
          CORE-CORE REPULSION     =        586.76565 EV

          DIELECTRIC ENERGY       =         -3.02533 EV
          COSMO AREA              =        157.24 SQUARE ANGSTROMS
          COSMO VOLUME            =        149.56 CUBIC ANGSTROMS

          GRADIENT NORM           =         29.66076          =       7.19379 PER ATOM
          IONIZATION POTENTIAL    =          9.097938 EV
          ALPHA SOMO LUMO (EV)    =         -9.098 -1.733
          BETA  SOMO LUMO (EV)    =        -11.251 -1.728
          NO. OF ALPHA ELECTRONS  =         25
          NO. OF BETA  ELECTRONS  =         24
          MOLECULAR WEIGHT        =        128.1274         POINT GROUP:  C1  

          MOLECULAR DIMENSIONS (Angstroms)

            Atom       Atom       Distance
            H    15    H    10     7.06503
            H    14    H    11     4.25656
            O     8    H    12     3.39995


          SCF CALCULATIONS        =          2

          WALL-CLOCK TIME         =      1.250 SECONDS
          COMPUTATION TIME        =      0.743 SECONDS

          LARGEST ATOMIC GRADIENTS

          Atom     Label                     Cartesian Gradients           Cartesian Coordinates       |Gradient|
                                           X          Y          Z        X          Y          Z

             1       O                  -1.138    -16.943      2.104   -1.79149   -2.10332   -0.39039     17.111
             2       C                   4.674     15.308      0.195   -1.25664   -0.95096   -0.25091     16.007
             9       C                  -1.760    -12.105      0.012   -0.02619   -0.55875    0.44905     12.232
             8       O                  -1.523     -0.863     -5.843    1.57495    1.39932    1.96981      6.100
            10       H                  -3.795      3.277     -2.661   -1.30426   -2.89973    0.04918      5.676
            17       H                   1.658      3.721      1.512    0.01195   -0.81090    1.54882      4.345
             4       O                  -3.066     -1.616     -2.532   -1.07009    1.36043   -0.50509      4.292
             5       C                   1.046      3.959      0.770   -0.02136    0.91504    0.23489      4.166
             3       C                   2.989     -0.251      2.468   -1.90836    0.24452   -0.85240      3.884
             6       C                   0.992     -0.316      3.651    0.81749    1.91095    0.86511      3.797



       FINAL  POINT  AND  DERIVATIVES

   PARAMETER     ATOM    TYPE            VALUE        GRADIENT
      1          1  O    CARTESIAN X    -1.791486     -1.138427  KCAL/ANGSTROM
      2          1  O    CARTESIAN Y    -2.103324    -16.943315  KCAL/ANGSTROM
      3          1  O    CARTESIAN Z    -0.390388      2.104278  KCAL/ANGSTROM
      4          2  C    CARTESIAN X    -1.256638      4.674360  KCAL/ANGSTROM
      5          2  C    CARTESIAN Y    -0.950965     15.308354  KCAL/ANGSTROM
      6          2  C    CARTESIAN Z    -0.250907      0.195135  KCAL/ANGSTROM
      7          3  C    CARTESIAN X    -1.908363      2.988637  KCAL/ANGSTROM
      8          3  C    CARTESIAN Y     0.244524     -0.251327  KCAL/ANGSTROM
      9          3  C    CARTESIAN Z    -0.852403      2.468062  KCAL/ANGSTROM
     10          4  O    CARTESIAN X    -1.070088     -3.065774  KCAL/ANGSTROM
     11          4  O    CARTESIAN Y     1.360431     -1.615574  KCAL/ANGSTROM
     12          4  O    CARTESIAN Z    -0.505091     -2.531951  KCAL/ANGSTROM
     13          5  C    CARTESIAN X    -0.021359      1.045540  KCAL/ANGSTROM
     14          5  C    CARTESIAN Y     0.915045      3.958811  KCAL/ANGSTROM
     15          5  C    CARTESIAN Z     0.234890      0.769508  KCAL/ANGSTROM
     16          6  C    CARTESIAN X     0.817487      0.992106  KCAL/ANGSTROM
     17          6  C    CARTESIAN Y     1.910950     -0.316245  KCAL/ANGSTROM
     18          6  C    CARTESIAN Z     0.865109      3.651132  KCAL/ANGSTROM
     19          7  C    CARTESIAN X     2.308989      0.161506  KCAL/ANGSTROM
     20          7  C    CARTESIAN Y     1.794953     -2.149019  KCAL/ANGSTROM
     21          7  C    CARTESIAN Z     0.810352      1.570119  KCAL/ANGSTROM
     22          8  O    CARTESIAN X     1.574953     -1.522971  KCAL/ANGSTROM
     23          8  O    CARTESIAN Y     1.399324     -0.863457  KCAL/ANGSTROM
     24          8  O    CARTESIAN Z     1.969807     -5.842913  KCAL/ANGSTROM
     25          9  C    CARTESIAN X    -0.026189     -1.759590  KCAL/ANGSTROM
     26          9  C    CARTESIAN Y    -0.558752    -12.104785  KCAL/ANGSTROM
     27          9  C    CARTESIAN Z     0.449051      0.011789  KCAL/ANGSTROM
     28         10  H    CARTESIAN X    -1.304258     -3.795117  KCAL/ANGSTROM
     29         10  H    CARTESIAN Y    -2.899730      3.276978  KCAL/ANGSTROM
     30         10  H    CARTESIAN Z     0.049176     -2.660899  KCAL/ANGSTROM
     31         11  H    CARTESIAN X    -2.932923     -1.266131  KCAL/ANGSTROM
     32         11  H    CARTESIAN Y     0.469509      0.974520  KCAL/ANGSTROM
     33         11  H    CARTESIAN Z    -0.460910     -0.562567  KCAL/ANGSTROM
     34         12  H    CARTESIAN X    -1.978442     -0.573257  KCAL/ANGSTROM
     35         12  H    CARTESIAN Y     0.231322      1.258824  KCAL/ANGSTROM
     36         12  H    CARTESIAN Z    -1.969807     -1.041103  KCAL/ANGSTROM
     37         13  H    CARTESIAN X     0.353128     -0.418198  KCAL/ANGSTROM
     38         13  H    CARTESIAN Y     2.899730      0.638231  KCAL/ANGSTROM
     39         13  H    CARTESIAN Z     1.028745     -0.432785  KCAL/ANGSTROM
     40         14  H    CARTESIAN X     2.798401      0.115733  KCAL/ANGSTROM
     41         14  H    CARTESIAN Y     0.991592      1.479176  KCAL/ANGSTROM
     42         14  H    CARTESIAN Z     0.266673      0.388947  KCAL/ANGSTROM
     43         15  H    CARTESIAN X     2.932923      0.689515  KCAL/ANGSTROM
     44         15  H    CARTESIAN Y     2.684028      0.640996  KCAL/ANGSTROM
     45         15  H    CARTESIAN Z     0.933782      0.027619  KCAL/ANGSTROM
     46         16  H    CARTESIAN X     0.914544      1.214232  KCAL/ANGSTROM
     47         16  H    CARTESIAN Y    -1.040587      2.986520  KCAL/ANGSTROM
     48         16  H    CARTESIAN Z     0.065544      0.374113  KCAL/ANGSTROM
     49         17  H    CARTESIAN X     0.011946      1.657834  KCAL/ANGSTROM
     50         17  H    CARTESIAN Y    -0.810895      3.721308  KCAL/ANGSTROM
     51         17  H    CARTESIAN Z     1.548819      1.511512  KCAL/ANGSTROM




   ATOM   CHEMICAL          X               Y               Z
  NUMBER   SYMBOL      (ANGSTROMS)     (ANGSTROMS)     (ANGSTROMS)

     1       O         -1.79148562  *  -2.10332373  *  -0.39038762  *
     2       C         -1.25663836  *  -0.95096461  *  -0.25090707  *
     3       C         -1.90836274  *   0.24452413  *  -0.85240347  *
     4       O         -1.07008845  *   1.36043066  *  -0.50509100  *
     5       C         -0.02135868  *   0.91504499  *   0.23488957  *
     6       C          0.81748722  *   1.91095005  *   0.86510938  *
     7       C          2.30898913  *   1.79495267  *   0.81035206  *
     8       O          1.57495277  *   1.39932399  *   1.96980714  *
     9       C         -0.02618923  *  -0.55875233  *   0.44905091  *
    10       H         -1.30425829  *  -2.89972966  *   0.04917644  *
    11       H         -2.93292284  *   0.46950859  *  -0.46091003  *
    12       H         -1.97844246  *   0.23132152  *  -1.96980714  *
    13       H          0.35312791  *   2.89972966  *   1.02874471  *
    14       H          2.79840063  *   0.99159238  *   0.26667273  *
    15       H          2.93292284  *   2.68402818  *   0.93378218  *
    16       H          0.91454360  *  -1.04058729  *   0.06554380  *
    17       H          0.01194573  *  -0.81089520  *   1.54881927  *

                             CARTESIAN COORDINATES

   1    O       -1.791485616    -2.103323731    -0.390387625
   2    C       -1.256638358    -0.950964612    -0.250907071
   3    C       -1.908362736     0.244524128    -0.852403466
   4    O       -1.070088449     1.360430664    -0.505090998
   5    C       -0.021358685     0.915044993     0.234889565
   6    C        0.817487222     1.910950051     0.865109380
   7    C        2.308989130     1.794952671     0.810352064
   8    O        1.574952767     1.399323991     1.969807145
   9    C       -0.026189228    -0.558752332     0.449050911
  10    H       -1.304258294    -2.899729663     0.049176442
  11    H       -2.932922841     0.469508591    -0.460910031
  12    H       -1.978442458     0.231321516    -1.969807145
  13    H        0.353127908     2.899729663     1.028744711
  14    H        2.798400633     0.991592376     0.266672730
  15    H        2.932922841     2.684028179     0.933782182
  16    H        0.914543604    -1.040587294     0.065543797
  17    H        0.011945735    -0.810895198     1.548819271


           Empirical Formula: C6 H8 O3  =    17 atoms



      MOLECULAR POINT GROUP   :   C1  


          ALPHA EIGENVALUES  
 -33.80381 -32.82228 -32.45421 -28.77486 -26.96134 -24.78379 -23.18615 -22.34897
 -20.44171 -19.50623 -18.04801 -17.71053 -17.45882 -16.26498 -15.89208 -15.61084
 -15.07407 -14.78261 -14.45605 -14.12317 -13.37084 -13.24796 -12.34411 -11.30857
  -9.09794  -1.73256   0.11907   0.63043   1.57668   1.70538   1.84907   1.99869
   2.91093   3.12114   3.56607   3.77157   4.07562   4.19646   4.27445   4.78138
   4.97374   5.14678   5.34167   5.50338


           BETA EIGENVALUES 
 -33.79201 -32.55133 -32.31252 -28.51689 -26.83452 -24.68812 -23.09036 -22.30733
 -20.29410 -19.45420 -17.88597 -17.65399 -17.40456 -16.18025 -15.80706 -15.43892
 -14.88940 -14.64887 -14.36260 -14.07550 -13.24042 -12.93943 -11.91919 -11.25133
  -1.72800  -0.28563   0.19934   0.73822   1.62382   1.88784   2.01030   2.06412
   3.13564   3.30404   3.79391   3.90888   4.08757   4.26080   4.29894   4.79767
   4.99597   5.18883   5.35339   5.51489


              NET ATOMIC CHARGES AND DIPOLE CONTRIBUTIONS

  ATOM NO.   TYPE          CHARGE      No. of ELECS.   s-Pop       p-Pop       
    1          O          -0.289780        6.2898     1.82427     4.46551
    2          C           0.558495        3.4415     1.17122     2.27028
    3          C          -0.146533        4.1465     1.10950     3.03703
    4          O          -0.244759        6.2448     1.87571     4.36905
    5          C          -0.001990        4.0020     1.09566     2.90633
    6          C           0.020629        3.9794     1.07166     2.90771
    7          C          -0.104369        4.1044     1.09872     3.00564
    8          O          -0.389155        6.3892     1.91915     4.47001
    9          C          -0.408531        4.4085     1.06996     3.33857
   10          H           0.450605        0.5494     0.54939
   11          H           0.240606        0.7594     0.75939
   12          H           0.239467        0.7605     0.76053
   13          H           0.197333        0.8027     0.80267
   14          H           0.167893        0.8321     0.83211
   15          H           0.177199        0.8228     0.82280
   16          H           0.263230        0.7368     0.73677
   17          H           0.269659        0.7303     0.73034
 DIPOLE           X         Y         Z       TOTAL
 POINT-CHG.    -3.693    -7.634    -3.705     9.255
 HYBRID        -0.232    -0.934     0.653     1.163
 SUM           -3.925    -8.568    -3.052     9.906


          ATOMIC ORBITAL ELECTRON POPULATIONS

     Atom    s        px        py        pz   
    1  O   1.82427   1.54902   1.29563   1.62086
    2  C   1.17122   0.81471   0.81911   0.63646
    3  C   1.10950   1.03788   0.84066   1.15849
    4  O   1.87571   1.38977   1.31326   1.66602
    5  C   1.09566   0.93001   0.91923   1.05709
    6  C   1.07166   0.95371   1.04445   0.90955
    7  C   1.09872   0.96815   1.13429   0.90321
    8  O   1.91915   1.36213   1.85675   1.25112
    9  C   1.06996   1.07969   1.06036   1.19852
   10  H   0.54939
   11  H   0.75939
   12  H   0.76053
   13  H   0.80267
   14  H   0.83211
   15  H   0.82280
   16  H   0.73677
   17  H   0.73034


                    (SZ)    =    0.500000
                    (S**2)  =    0.754676


          ATOMIC ORBITAL SPIN POPULATIONS

    Atom   Total    s     px     py     pz   
         Atomic
    1  O -0.0024 -0.000 -0.001 -0.000 -0.001
    2  C  0.0004  0.000 -0.000  0.000  0.000
    3  C -0.0061 -0.001 -0.001 -0.003 -0.002
    4  O  0.1321  0.005  0.041  0.007  0.079
    5  C  0.8360  0.026  0.261  0.027  0.522
    6  C -0.0724 -0.006 -0.021 -0.011 -0.034
    7  C  0.0627  0.007  0.037  0.005  0.014
    8  O  0.0359  0.000  0.017 -0.001  0.019
    9  C -0.0295 -0.004 -0.002 -0.023  0.000
   10  H  0.0001  0.000
   11  H  0.0033  0.003
   12  H  0.0019  0.002
   13  H  0.0077  0.008
   14  H -0.0014 -0.001
   15  H -0.0007 -0.001
   16  H  0.0162  0.016
   17  H  0.0161  0.016

 **********************
 *                    *
 * JOB ENDED NORMALLY *
 *                    *
 **********************



 TOTAL JOB TIME:             1.71 SECONDS

 == MOPAC DONE ==
