 *******************************************************************************
 **                                                                           **
 **                              MOPAC v23.2                                  **
 **                                                                           **
 *******************************************************************************
 **          Digital Object Identifier (DOI): 10.5281/zenodo.6511958          **
 **    Visit the DOI location for information on how to cite this program.    **
 *******************************************************************************

                              PM7 CALCULATION RESULTS

 *******************************************************************************
 *  CALCULATION DONE: (MAX THREADS = 40)             Fri Sep 19 21:31:15 2025  *
 *  PM7        - The PM7 Hamiltonian to be used
 *
 *
 *
 *                 CHARGE ON SYSTEM = +1
 *
 *
 *
 *  EPS=37.5   - USE ANDREAS KLAMT'S COSMO IMPLICIT SOLVATION MODEL
 *  1SCF       - DO 1 SCF AND THEN STOP 
 *  T=         - A TIME OF 172800.0 SECONDS REQUESTED
 *  DUMP=N     - RESTART FILE WRITTEN EVERY 7200.0 SECONDS REQUESTED
 *  RELSCF     - DEFAULT SCF CRITERION MULTIPLIED BY 0.0001
 *              (DEFAULT SCF CRITERION = 0.00010)
 *  GRADIENTS  - ALL GRADIENTS TO BE PRINTED
 *  DISP       - PRINT DISPERSION AND HYDROGEN BOND ENERGIES
 *******************************************************************************
PM7 1SCF GRADIENTS EPS=37.5 DISP RELSCF=0.0001 CHARGE=1
 Title: ASE calculation

   ATOM   CHEMICAL          X               Y               Z
  NUMBER   SYMBOL      (ANGSTROMS)     (ANGSTROMS)     (ANGSTROMS)

     1       C         -2.66211941  *  -1.05457309  *  -0.75830912  *
     2       C         -1.36579785  *  -0.57050953  *  -0.25883799  *
     3       C         -1.30390505  *   0.74356881  *   0.23062831  *
     4       C         -0.19270526  *   1.51795819  *   0.53940215  *
     5       C          1.15743993  *   1.19327061  *   0.52346988  *
     6       C          1.78392297  *  -0.14248467  *   0.46555239  *
     7       C          2.51075704  *  -0.26799037  *  -0.88354103  *
     8       C          0.83550762  *  -1.31195440  *   0.74219683  *
     9       C         -0.24030392  *  -1.51403629  *  -0.32206033  *
    10       H         -2.59691087  *  -1.93598893  *  -1.42358250  *
    11       H         -3.24485520  *  -0.28863662  *  -1.30813218  *
    12       H         -3.32487682  *  -1.36811269  *   0.08129623  *
    13       H         -2.28172149  *   1.25982318  *   0.33594073  *
    14       H         -0.42086219  *   2.57499036  *   0.80523761  *
    15       H          1.87977170  *   2.02800426  *   0.58434833  *
    16       H          2.58536273  *  -0.17988927  *   1.27291442  *
    17       H          3.32487682  *   0.46612641  *  -0.98172442  *
    18       H          1.84462483  *  -0.12754127  *  -1.74180537  *
    19       H          2.97573097  *  -1.26061893  *  -0.98618046  *
    20       H          0.36691818  *  -1.19022954  *   1.74180537  *
    21       H          1.43791066  *  -2.24723639  *   0.82954310  *
    22       H          0.22095907  *  -1.46854860  *  -1.34814169  *
    23       H         -0.60282360  *  -2.57499036  *  -0.27026029  *



          CARTESIAN COORDINATES 

    NO.       ATOM           X           Y           Z

     1         C         -2.6621     -1.0546     -0.7583
     2         C         -1.3658     -0.5705     -0.2588
     3         C         -1.3039      0.7436      0.2306
     4         C         -0.1927      1.5180      0.5394
     5         C          1.1574      1.1933      0.5235
     6         C          1.7839     -0.1425      0.4656
     7         C          2.5108     -0.2680     -0.8835
     8         C          0.8355     -1.3120      0.7422
     9         C         -0.2403     -1.5140     -0.3221
    10         H         -2.5969     -1.9360     -1.4236
    11         H         -3.2449     -0.2886     -1.3081
    12         H         -3.3249     -1.3681      0.0813
    13         H         -2.2817      1.2598      0.3359
    14         H         -0.4209      2.5750      0.8052
    15         H          1.8798      2.0280      0.5843
    16         H          2.5854     -0.1799      1.2729
    17         H          3.3249      0.4661     -0.9817
    18         H          1.8446     -0.1275     -1.7418
    19         H          2.9757     -1.2606     -0.9862
    20         H          0.3669     -1.1902      1.7418
    21         H          1.4379     -2.2472      0.8295
    22         H          0.2210     -1.4685     -1.3481
    23         H         -0.6028     -2.5750     -0.2703

 General Reference for PM7:
 "Optimization of Parameters for Semiempirical Methods VI: More Modifications to the 
 NDDO Approximations and Re-optimization of Parameters", J. J. P. Stewart, J. Mol. Mod., 1:32, 19 (2013)
 https://link.springer.com/article/10.1007/s00894-012-1667-x

           Empirical Formula: C9 H14  =    23 atoms



      MOLECULAR POINT GROUP   :   C1  


          UHF CALCULATION, NO. OF ALPHA ELECTRONS =   25
                           NO. OF BETA  ELECTRONS =   24
  SCF CRITERION =    0.1000E-07

 -------------------------------------------------------------------------------
 PM7 1SCF GRADIENTS EPS=37.5 DISP RELSCF=0.0001 CHARGE=1
 Title: ASE calculation



     1SCF WAS SPECIFIED, SO BFGS WAS NOT USED                 
     SCF FIELD WAS ACHIEVED                                   


                              PM7 CALCULATION
                                                       MOPAC v23.2 Linux
                                                       Fri Sep 19 21:31:17 2025




          FINAL HEAT OF FORMATION =        137.71894 KCAL/MOL =     576.21603 KJ/MOL

          TOTAL ENERGY            =     -29712.06347 KCAL/MOL = ELECTRONIC ENERGY + CORE-CORE REPULSION + SOLVATION ENERGY
          ENERGY OF ATOMS         =      29852.41387 KCAL/MOL
                              SUM =        140.35040 KCAL/MOL
          DISPERSION ENERGY       =         -2.63146 KCAL/MOL
                              SUM =        137.71894 KCAL/MOL = FINAL HEAT OF FORMATION

          VAN DER WAALS AREA      =        174.05 SQUARE ANGSTROMS


          TOTAL ENERGY            =      -1288.43702 EV
          ELECTRONIC ENERGY       =      -2151.87735 EV 
          CORE-CORE REPULSION     =        863.44033 EV

          DIELECTRIC ENERGY       =         -2.00192 EV
          COSMO AREA              =        174.05 SQUARE ANGSTROMS
          COSMO VOLUME            =        179.18 CUBIC ANGSTROMS

          GRADIENT NORM           =          7.42103          =       1.54739 PER ATOM
          IONIZATION POTENTIAL    =          9.902143 EV
          ALPHA SOMO LUMO (EV)    =         -9.902 -1.701
          BETA  SOMO LUMO (EV)    =        -11.623 -2.961
          NO. OF ALPHA ELECTRONS  =         25
          NO. OF BETA  ELECTRONS  =         24
          MOLECULAR WEIGHT        =        122.2096         POINT GROUP:  C1  

          MOLECULAR DIMENSIONS (Angstroms)

            Atom       Atom       Distance
            H    17    H    12     6.97952
            H    14    H    21     5.14388
            H    10    H    20     3.59175


          SCF CALCULATIONS        =          2

          WALL-CLOCK TIME         =      1.531 SECONDS
          COMPUTATION TIME        =      0.776 SECONDS

          LARGEST ATOMIC GRADIENTS

          Atom     Label                     Cartesian Gradients           Cartesian Coordinates       |Gradient|
                                           X          Y          Z        X          Y          Z

             7       C                  -3.179      1.342      0.548    2.51076   -0.26799   -0.88354      3.494
             2       C                  -0.081      2.218      1.204   -1.36580   -0.57051   -0.25884      2.525
             9       C                  -0.099     -0.853     -2.061   -0.24030   -1.51404   -0.32206      2.233
             5       C                   1.930     -1.108     -0.066    1.15744    1.19327    0.52347      2.227
            17       H                   1.547     -0.235     -0.800    3.32488    0.46613   -0.98172      1.757
             6       C                  -1.235      0.605      1.052    1.78392   -0.14248    0.46555      1.731
             3       C                  -0.718     -1.114     -0.925   -1.30391    0.74357    0.23063      1.617
            19       H                   1.514     -0.417     -0.214    2.97573   -1.26062   -0.98618      1.585
             1       C                  -0.477     -0.031      1.274   -2.66212   -1.05457   -0.75831      1.361
            21       H                   0.787     -0.885      0.382    1.43791   -2.24724    0.82954      1.244



       FINAL  POINT  AND  DERIVATIVES

   PARAMETER     ATOM    TYPE            VALUE        GRADIENT
      1          1  C    CARTESIAN X    -2.662119     -0.477124  KCAL/ANGSTROM
      2          1  C    CARTESIAN Y    -1.054573     -0.031430  KCAL/ANGSTROM
      3          1  C    CARTESIAN Z    -0.758309      1.274111  KCAL/ANGSTROM
      4          2  C    CARTESIAN X    -1.365798     -0.081079  KCAL/ANGSTROM
      5          2  C    CARTESIAN Y    -0.570510      2.217792  KCAL/ANGSTROM
      6          2  C    CARTESIAN Z    -0.258838      1.203872  KCAL/ANGSTROM
      7          3  C    CARTESIAN X    -1.303905     -0.718247  KCAL/ANGSTROM
      8          3  C    CARTESIAN Y     0.743569     -1.114405  KCAL/ANGSTROM
      9          3  C    CARTESIAN Z     0.230628     -0.925329  KCAL/ANGSTROM
     10          4  C    CARTESIAN X    -0.192705     -0.741143  KCAL/ANGSTROM
     11          4  C    CARTESIAN Y     1.517958      0.951112  KCAL/ANGSTROM
     12          4  C    CARTESIAN Z     0.539402      0.020954  KCAL/ANGSTROM
     13          5  C    CARTESIAN X     1.157440      1.930367  KCAL/ANGSTROM
     14          5  C    CARTESIAN Y     1.193271     -1.108001  KCAL/ANGSTROM
     15          5  C    CARTESIAN Z     0.523470     -0.065669  KCAL/ANGSTROM
     16          6  C    CARTESIAN X     1.783923     -1.234975  KCAL/ANGSTROM
     17          6  C    CARTESIAN Y    -0.142485      0.604610  KCAL/ANGSTROM
     18          6  C    CARTESIAN Z     0.465552      1.051550  KCAL/ANGSTROM
     19          7  C    CARTESIAN X     2.510757     -3.179301  KCAL/ANGSTROM
     20          7  C    CARTESIAN Y    -0.267990      1.342203  KCAL/ANGSTROM
     21          7  C    CARTESIAN Z    -0.883541      0.547860  KCAL/ANGSTROM
     22          8  C    CARTESIAN X     0.835508     -0.745384  KCAL/ANGSTROM
     23          8  C    CARTESIAN Y    -1.311954      0.825019  KCAL/ANGSTROM
     24          8  C    CARTESIAN Z     0.742197      0.169986  KCAL/ANGSTROM
     25          9  C    CARTESIAN X    -0.240304     -0.098784  KCAL/ANGSTROM
     26          9  C    CARTESIAN Y    -1.514036     -0.853030  KCAL/ANGSTROM
     27          9  C    CARTESIAN Z    -0.322060     -2.061410  KCAL/ANGSTROM
     28         10  H    CARTESIAN X    -2.596911     -0.608036  KCAL/ANGSTROM
     29         10  H    CARTESIAN Y    -1.935989     -0.593713  KCAL/ANGSTROM
     30         10  H    CARTESIAN Z    -1.423582     -0.755369  KCAL/ANGSTROM
     31         11  H    CARTESIAN X    -3.244855     -0.702096  KCAL/ANGSTROM
     32         11  H    CARTESIAN Y    -0.288637      0.023765  KCAL/ANGSTROM
     33         11  H    CARTESIAN Z    -1.308132     -0.842531  KCAL/ANGSTROM
     34         12  H    CARTESIAN X    -3.324877     -0.544099  KCAL/ANGSTROM
     35         12  H    CARTESIAN Y    -1.368113     -0.221497  KCAL/ANGSTROM
     36         12  H    CARTESIAN Z     0.081296     -0.457868  KCAL/ANGSTROM
     37         13  H    CARTESIAN X    -2.281721     -0.117817  KCAL/ANGSTROM
     38         13  H    CARTESIAN Y     1.259823      0.154764  KCAL/ANGSTROM
     39         13  H    CARTESIAN Z     0.335941      0.236204  KCAL/ANGSTROM
     40         14  H    CARTESIAN X    -0.420862     -0.386052  KCAL/ANGSTROM
     41         14  H    CARTESIAN Y     2.574990      0.407384  KCAL/ANGSTROM
     42         14  H    CARTESIAN Z     0.805238      0.374404  KCAL/ANGSTROM
     43         15  H    CARTESIAN X     1.879772      0.628241  KCAL/ANGSTROM
     44         15  H    CARTESIAN Y     2.028004      0.631102  KCAL/ANGSTROM
     45         15  H    CARTESIAN Z     0.584348     -0.076978  KCAL/ANGSTROM
     46         16  H    CARTESIAN X     2.585363      1.060181  KCAL/ANGSTROM
     47         16  H    CARTESIAN Y    -0.179889     -0.599653  KCAL/ANGSTROM
     48         16  H    CARTESIAN Z     1.272914      0.006682  KCAL/ANGSTROM
     49         17  H    CARTESIAN X     3.324877      1.546507  KCAL/ANGSTROM
     50         17  H    CARTESIAN Y     0.466126     -0.234823  KCAL/ANGSTROM
     51         17  H    CARTESIAN Z    -0.981724     -0.800007  KCAL/ANGSTROM
     52         18  H    CARTESIAN X     1.844625      1.003248  KCAL/ANGSTROM
     53         18  H    CARTESIAN Y    -0.127541     -0.005994  KCAL/ANGSTROM
     54         18  H    CARTESIAN Z    -1.741805     -0.612462  KCAL/ANGSTROM
     55         19  H    CARTESIAN X     2.975731      1.513801  KCAL/ANGSTROM
     56         19  H    CARTESIAN Y    -1.260619     -0.417391  KCAL/ANGSTROM
     57         19  H    CARTESIAN Z    -0.986180     -0.214179  KCAL/ANGSTROM
     58         20  H    CARTESIAN X     0.366918      0.218884  KCAL/ANGSTROM
     59         20  H    CARTESIAN Y    -1.190230     -0.531337  KCAL/ANGSTROM
     60         20  H    CARTESIAN Z     1.741805      0.214898  KCAL/ANGSTROM
     61         21  H    CARTESIAN X     1.437911      0.786872  KCAL/ANGSTROM
     62         21  H    CARTESIAN Y    -2.247236     -0.884759  KCAL/ANGSTROM
     63         21  H    CARTESIAN Z     0.829543      0.381751  KCAL/ANGSTROM
     64         22  H    CARTESIAN X     0.220959      0.676394  KCAL/ANGSTROM
     65         22  H    CARTESIAN Y    -1.468549     -0.254705  KCAL/ANGSTROM
     66         22  H    CARTESIAN Z    -1.348142      0.644987  KCAL/ANGSTROM
     67         23  H    CARTESIAN X    -0.602824      0.269644  KCAL/ANGSTROM
     68         23  H    CARTESIAN Y    -2.574990     -0.307013  KCAL/ANGSTROM
     69         23  H    CARTESIAN Z    -0.270260      0.684541  KCAL/ANGSTROM




   ATOM   CHEMICAL          X               Y               Z
  NUMBER   SYMBOL      (ANGSTROMS)     (ANGSTROMS)     (ANGSTROMS)

     1       C         -2.66211941  *  -1.05457309  *  -0.75830912  *
     2       C         -1.36579785  *  -0.57050953  *  -0.25883799  *
     3       C         -1.30390505  *   0.74356881  *   0.23062831  *
     4       C         -0.19270526  *   1.51795819  *   0.53940215  *
     5       C          1.15743993  *   1.19327061  *   0.52346988  *
     6       C          1.78392297  *  -0.14248467  *   0.46555239  *
     7       C          2.51075704  *  -0.26799037  *  -0.88354103  *
     8       C          0.83550762  *  -1.31195440  *   0.74219683  *
     9       C         -0.24030392  *  -1.51403629  *  -0.32206033  *
    10       H         -2.59691087  *  -1.93598893  *  -1.42358250  *
    11       H         -3.24485520  *  -0.28863662  *  -1.30813218  *
    12       H         -3.32487682  *  -1.36811269  *   0.08129623  *
    13       H         -2.28172149  *   1.25982318  *   0.33594073  *
    14       H         -0.42086219  *   2.57499036  *   0.80523761  *
    15       H          1.87977170  *   2.02800426  *   0.58434833  *
    16       H          2.58536273  *  -0.17988927  *   1.27291442  *
    17       H          3.32487682  *   0.46612641  *  -0.98172442  *
    18       H          1.84462483  *  -0.12754127  *  -1.74180537  *
    19       H          2.97573097  *  -1.26061893  *  -0.98618046  *
    20       H          0.36691818  *  -1.19022954  *   1.74180537  *
    21       H          1.43791066  *  -2.24723639  *   0.82954310  *
    22       H          0.22095907  *  -1.46854860  *  -1.34814169  *
    23       H         -0.60282360  *  -2.57499036  *  -0.27026029  *

                             CARTESIAN COORDINATES

   1    C       -2.662119412    -1.054573090    -0.758309125
   2    C       -1.365797851    -0.570509527    -0.258837989
   3    C       -1.303905048     0.743568815     0.230628307
   4    C       -0.192705258     1.517958194     0.539402145
   5    C        1.157439930     1.193270610     0.523469883
   6    C        1.783922974    -0.142484667     0.465552386
   7    C        2.510757035    -0.267990374    -0.883541029
   8    C        0.835507622    -1.311954402     0.742196832
   9    C       -0.240303917    -1.514036294    -0.322060332
  10    H       -2.596910866    -1.935988930    -1.423582495
  11    H       -3.244855196    -0.288636616    -1.308132175
  12    H       -3.324876817    -1.368112687     0.081296230
  13    H       -2.281721486     1.259823177     0.335940727
  14    H       -0.420862193     2.574990363     0.805237614
  15    H        1.879771699     2.028004258     0.584348333
  16    H        2.585362727    -0.179889266     1.272914418
  17    H        3.324876817     0.466126414    -0.981724421
  18    H        1.844624832    -0.127541270    -1.741805372
  19    H        2.975730971    -1.260618931    -0.986180465
  20    H        0.366918183    -1.190229537     1.741805372
  21    H        1.437910664    -2.247236394     0.829543102
  22    H        0.220959067    -1.468548598    -1.348141687
  23    H       -0.602823601    -2.574990363    -0.270260289


           Empirical Formula: C9 H14  =    23 atoms



      MOLECULAR POINT GROUP   :   C1  


          ALPHA EIGENVALUES  
 -31.39917 -29.29401 -27.97753 -25.84583 -24.44824 -23.17195 -22.12105 -19.12220
 -18.21143 -17.82747 -16.93385 -15.68820 -15.42830 -15.34416 -14.80296 -14.43532
 -13.93648 -13.52104 -13.38490 -13.11929 -12.63131 -12.21864 -12.06827 -11.91767
  -9.90214  -1.70075   0.41050   2.81564   3.04379   3.20045   3.25053   3.34443
   3.53623   3.96001   4.10802   4.18633   4.72133   4.89052   4.89820   5.02667
   5.17831   5.26874   5.28217   5.34159   5.46996   5.55511   5.73634   6.07452
   6.18966   6.64367


           BETA EIGENVALUES 
 -31.30780 -29.18464 -27.91691 -25.81189 -24.29382 -23.12603 -22.03370 -19.04728
 -18.13183 -17.75288 -16.83645 -15.61405 -15.34165 -15.13499 -14.58007 -14.38159
 -13.84406 -13.47408 -13.32311 -12.92858 -12.38429 -12.17406 -11.95015 -11.62264
  -2.96133  -0.53223   1.08475   2.87947   3.14500   3.27443   3.32889   3.41531
   3.58260   4.03355   4.15205   4.28272   4.76068   4.92603   4.95146   5.04311
   5.26446   5.27563   5.31949   5.36582   5.48106   5.56569   5.75347   6.07656
   6.20398   6.64800


              NET ATOMIC CHARGES AND DIPOLE CONTRIBUTIONS

  ATOM NO.   TYPE          CHARGE      No. of ELECS.   s-Pop       p-Pop       
    1          C          -0.534630        4.5346     1.06000     3.47463
    2          C           0.344196        3.6558     1.13115     2.52465
    3          C          -0.189785        4.1898     1.10010     3.08968
    4          C          -0.115657        4.1157     1.09696     3.01870
    5          C           0.039743        3.9603     1.14205     2.81820
    6          C          -0.144762        4.1448     1.05873     3.08603
    7          C          -0.443398        4.4434     1.05594     3.38746
    8          C          -0.273232        4.2732     1.06031     3.21292
    9          C          -0.359970        4.3600     1.06289     3.29708
   10          H           0.202005        0.7980     0.79799
   11          H           0.208435        0.7916     0.79156
   12          H           0.230382        0.7696     0.76962
   13          H           0.204479        0.7955     0.79552
   14          H           0.198804        0.8012     0.80120
   15          H           0.183739        0.8163     0.81626
   16          H           0.195196        0.8048     0.80480
   17          H           0.165925        0.8341     0.83408
   18          H           0.156363        0.8436     0.84364
   19          H           0.169066        0.8309     0.83093
   20          H           0.163311        0.8367     0.83669
   21          H           0.170575        0.8294     0.82942
   22          H           0.223647        0.7764     0.77635
   23          H           0.205567        0.7944     0.79443
 DIPOLE           X         Y         Z       TOTAL
 POINT-CHG.    -1.954     0.388    -0.139     1.997
 HYBRID        -0.186    -0.009    -0.131     0.228
 SUM           -2.140     0.380    -0.271     2.190


          ATOMIC ORBITAL ELECTRON POPULATIONS

     Atom    s        px        py        pz   
    1  C   1.06000   1.06633   1.21267   1.19563
    2  C   1.13115   0.95364   0.92134   0.64967
    3  C   1.10010   1.10206   1.00142   0.98620
    4  C   1.09696   0.97925   1.10458   0.93487
    5  C   1.14205   1.01781   1.06419   0.73620
    6  C   1.05873   1.05899   0.96103   1.06601
    7  C   1.05594   1.14543   1.19931   1.04273
    8  C   1.06031   1.04414   1.09330   1.07548
    9  C   1.06289   1.04427   1.11914   1.13366
   10  H   0.79799
   11  H   0.79156
   12  H   0.76962
   13  H   0.79552
   14  H   0.80120
   15  H   0.81626
   16  H   0.80480
   17  H   0.83408
   18  H   0.84364
   19  H   0.83093
   20  H   0.83669
   21  H   0.82942
   22  H   0.77635
   23  H   0.79443


                    (SZ)    =    0.500000
                    (S**2)  =    0.802359


          ATOMIC ORBITAL SPIN POPULATIONS

    Atom   Total    s     px     py     pz   
         Atomic
    1  C -0.0010 -0.002 -0.005  0.000  0.006
    2  C  0.2797  0.005  0.028  0.030  0.217
    3  C  0.2230  0.005  0.008  0.027  0.183
    4  C -0.0778 -0.005 -0.013 -0.003 -0.056
    5  C  0.5232  0.013  0.016  0.017  0.478
    6  C -0.0202 -0.003 -0.007 -0.010  0.000
    7  C  0.0285  0.005  0.007  0.002  0.014
    8  C  0.0044  0.001  0.002  0.001  0.001
    9  C -0.0038 -0.002 -0.001 -0.004  0.003
   10  H  0.0019  0.002
   11  H  0.0063  0.006
   12  H  0.0183  0.018
   13  H -0.0065 -0.006
   14  H  0.0042  0.004
   15  H -0.0152 -0.015
   16  H  0.0134  0.013
   17  H -0.0007 -0.001
   18  H -0.0010 -0.001
   19  H  0.0007  0.001
   20  H -0.0004 -0.000
   21  H -0.0006 -0.001
   22  H  0.0184  0.018
   23  H  0.0054  0.005

 **********************
 *                    *
 * JOB ENDED NORMALLY *
 *                    *
 **********************



 TOTAL JOB TIME:             2.12 SECONDS

 == MOPAC DONE ==
