 *******************************************************************************
 **                                                                           **
 **                              MOPAC v23.2                                  **
 **                                                                           **
 *******************************************************************************
 **          Digital Object Identifier (DOI): 10.5281/zenodo.6511958          **
 **    Visit the DOI location for information on how to cite this program.    **
 *******************************************************************************

                              PM7 CALCULATION RESULTS

 *******************************************************************************
 *  CALCULATION DONE: (MAX THREADS = 40)             Fri Sep 19 21:41:07 2025  *
 *  PM7        - The PM7 Hamiltonian to be used
 *  1SCF       - DO 1 SCF AND THEN STOP 
 *  T=         - A TIME OF 172800.0 SECONDS REQUESTED
 *  DUMP=N     - RESTART FILE WRITTEN EVERY 7200.0 SECONDS REQUESTED
 *  RELSCF     - DEFAULT SCF CRITERION MULTIPLIED BY 0.0001
 *              (DEFAULT SCF CRITERION = 0.00010)
 *  GRADIENTS  - ALL GRADIENTS TO BE PRINTED
 *  DISP       - PRINT DISPERSION AND HYDROGEN BOND ENERGIES
 *******************************************************************************
PM7 1SCF GRADIENTS DISP RELSCF=0.0001
 Title: ASE calculation

   ATOM   CHEMICAL          X               Y               Z
  NUMBER   SYMBOL      (ANGSTROMS)     (ANGSTROMS)     (ANGSTROMS)

     1       C         -1.44956564  *   1.53299585  *  -0.53490081  *
     2       C         -0.72400150  *   0.30919465  *  -0.13252565  *
     3       C         -1.17414015  *  -1.10002803  *  -0.57307651  *
     4       C          0.31880337  *  -1.50138385  *  -0.82468696  *
     5       C          0.77215820  *  -0.09686519  *  -0.37373734  *
     6       C          1.82380000  *   0.59622524  *  -1.00321279  *
     7       N          2.68996140  *   1.16284467  *  -1.52248590  *
     8       C          0.25101755  *   0.23760460  *   1.01593553  *
     9       H         -1.51981138  *   1.62959253  *  -1.62979049  *
    10       H         -2.47889594  *   1.53152810  *  -0.14195567  *
    11       H         -0.96490147  *   2.44999911  *  -0.16660724  *
    12       H         -1.79306013  *  -1.10553077  *  -1.47406748  *
    13       H         -1.68328369  *  -1.68090426  *   0.19971624  *
    14       H          0.68971958  *  -2.32265210  *  -0.20576218  *
    15       H          0.54881436  *  -1.72393255  *  -1.87133655  *
    16       H          0.57902001  *   1.16617067  *   1.48172686  *
    17       H          0.17899713  *  -0.54707995  *   1.76555622  *



          CARTESIAN COORDINATES 

    NO.       ATOM           X           Y           Z

     1         C         -1.4496      1.5330     -0.5349
     2         C         -0.7240      0.3092     -0.1325
     3         C         -1.1741     -1.1000     -0.5731
     4         C          0.3188     -1.5014     -0.8247
     5         C          0.7722     -0.0969     -0.3737
     6         C          1.8238      0.5962     -1.0032
     7         N          2.6900      1.1628     -1.5225
     8         C          0.2510      0.2376      1.0159
     9         H         -1.5198      1.6296     -1.6298
    10         H         -2.4789      1.5315     -0.1420
    11         H         -0.9649      2.4500     -0.1666
    12         H         -1.7931     -1.1055     -1.4741
    13         H         -1.6833     -1.6809      0.1997
    14         H          0.6897     -2.3227     -0.2058
    15         H          0.5488     -1.7239     -1.8713
    16         H          0.5790      1.1662      1.4817
    17         H          0.1790     -0.5471      1.7656

 General Reference for PM7:
 "Optimization of Parameters for Semiempirical Methods VI: More Modifications to the 
 NDDO Approximations and Re-optimization of Parameters", J. J. P. Stewart, J. Mol. Mod., 1:32, 19 (2013)
 https://link.springer.com/article/10.1007/s00894-012-1667-x

           Empirical Formula: C7 H9 N  =    17 atoms



      MOLECULAR POINT GROUP   :   C1  


      RHF CALCULATION, NO. OF DOUBLY OCCUPIED LEVELS = 21

  SCF CRITERION =    0.1000E-07

 -------------------------------------------------------------------------------
 PM7 1SCF GRADIENTS DISP RELSCF=0.0001
 Title: ASE calculation



     1SCF WAS SPECIFIED, SO BFGS WAS NOT USED                 
     SCF FIELD WAS ACHIEVED                                   


                              PM7 CALCULATION
                                                       MOPAC v23.2 Linux
                                                       Fri Sep 19 21:41:07 2025




          FINAL HEAT OF FORMATION =         58.98253 KCAL/MOL =     246.78290 KJ/MOL

          TOTAL ENERGY            =     -26880.10959 KCAL/MOL = ELECTRONIC ENERGY + CORE-CORE REPULSION
          ENERGY OF ATOMS         =      26940.56889 KCAL/MOL
                              SUM =         60.45930 KCAL/MOL
          DISPERSION ENERGY       =         -1.47677 KCAL/MOL
                              SUM =         58.98253 KCAL/MOL = FINAL HEAT OF FORMATION



          TOTAL ENERGY            =      -1165.63187 EV
          ELECTRONIC ENERGY       =      -5513.14752 EV 
          CORE-CORE REPULSION     =       4347.51565 EV
          COSMO AREA              =        155.65 SQUARE ANGSTROMS
          COSMO VOLUME            =        152.21 CUBIC ANGSTROMS

          GRADIENT NORM           =          0.99676          =       0.24175 PER ATOM
          IONIZATION POTENTIAL    =         10.398599 EV
          HOMO LUMO ENERGIES (EV) =        -10.399  0.722
          NO. OF FILLED LEVELS    =         21
          MOLECULAR WEIGHT        =        107.1548         POINT GROUP:  C1  

          MOLECULAR DIMENSIONS (Angstroms)

            Atom       Atom       Distance
            H    13    N     7     5.49347
            H    14    H    10     4.95977
            H    12    H    16     3.83145


          SCF CALCULATIONS        =          1

          WALL-CLOCK TIME         =      0.641 SECONDS
          COMPUTATION TIME        =      0.725 SECONDS

          LARGEST ATOMIC GRADIENTS

          Atom     Label                     Cartesian Gradients           Cartesian Coordinates       |Gradient|
                                           X          Y          Z        X          Y          Z

             9       H                   0.114      0.400     -0.155   -1.51981    1.62959   -1.62979      0.444
             5       C                   0.271     -0.289      0.161    0.77216   -0.09687   -0.37374      0.428
             6       C                   0.019      0.218     -0.248    1.82380    0.59623   -1.00321      0.331
            13       H                   0.186     -0.027      0.249   -1.68328   -1.68090    0.19972      0.312
            16       H                  -0.104      0.115     -0.219    0.57902    1.16617    1.48173      0.269
            10       H                  -0.232     -0.018      0.059   -2.47890    1.53153   -0.14196      0.240
             7       N                  -0.068      0.048      0.221    2.68996    1.16284   -1.52249      0.236
            11       H                   0.113      0.170      0.111   -0.96490    2.45000   -0.16661      0.233
            15       H                   0.008     -0.176     -0.119    0.54881   -1.72393   -1.87134      0.213
             2       C                  -0.122     -0.126      0.054   -0.72400    0.30919   -0.13253      0.183



       FINAL  POINT  AND  DERIVATIVES

   PARAMETER     ATOM    TYPE            VALUE        GRADIENT
      1          1  C    CARTESIAN X    -1.449566     -0.032502  KCAL/ANGSTROM
      2          1  C    CARTESIAN Y     1.532996      0.033453  KCAL/ANGSTROM
      3          1  C    CARTESIAN Z    -0.534901     -0.013830  KCAL/ANGSTROM
      4          2  C    CARTESIAN X    -0.724001     -0.122020  KCAL/ANGSTROM
      5          2  C    CARTESIAN Y     0.309195     -0.125653  KCAL/ANGSTROM
      6          2  C    CARTESIAN Z    -0.132526      0.053922  KCAL/ANGSTROM
      7          3  C    CARTESIAN X    -1.174140      0.005059  KCAL/ANGSTROM
      8          3  C    CARTESIAN Y    -1.100028     -0.124206  KCAL/ANGSTROM
      9          3  C    CARTESIAN Z    -0.573077     -0.028587  KCAL/ANGSTROM
     10          4  C    CARTESIAN X     0.318803      0.031230  KCAL/ANGSTROM
     11          4  C    CARTESIAN Y    -1.501384     -0.142264  KCAL/ANGSTROM
     12          4  C    CARTESIAN Z    -0.824687     -0.078272  KCAL/ANGSTROM
     13          5  C    CARTESIAN X     0.772158      0.271292  KCAL/ANGSTROM
     14          5  C    CARTESIAN Y    -0.096865     -0.288698  KCAL/ANGSTROM
     15          5  C    CARTESIAN Z    -0.373737      0.161249  KCAL/ANGSTROM
     16          6  C    CARTESIAN X     1.823800      0.018882  KCAL/ANGSTROM
     17          6  C    CARTESIAN Y     0.596225      0.218470  KCAL/ANGSTROM
     18          6  C    CARTESIAN Z    -1.003213     -0.248346  KCAL/ANGSTROM
     19          7  N    CARTESIAN X     2.689961     -0.068144  KCAL/ANGSTROM
     20          7  N    CARTESIAN Y     1.162845      0.048470  KCAL/ANGSTROM
     21          7  N    CARTESIAN Z    -1.522486      0.220931  KCAL/ANGSTROM
     22          8  C    CARTESIAN X     0.251018     -0.098147  KCAL/ANGSTROM
     23          8  C    CARTESIAN Y     0.237605     -0.014126  KCAL/ANGSTROM
     24          8  C    CARTESIAN Z     1.015936     -0.011744  KCAL/ANGSTROM
     25          9  H    CARTESIAN X    -1.519811      0.113649  KCAL/ANGSTROM
     26          9  H    CARTESIAN Y     1.629593      0.399962  KCAL/ANGSTROM
     27          9  H    CARTESIAN Z    -1.629790     -0.155424  KCAL/ANGSTROM
     28         10  H    CARTESIAN X    -2.478896     -0.232354  KCAL/ANGSTROM
     29         10  H    CARTESIAN Y     1.531528     -0.017560  KCAL/ANGSTROM
     30         10  H    CARTESIAN Z    -0.141956      0.059349  KCAL/ANGSTROM
     31         11  H    CARTESIAN X    -0.964901      0.113084  KCAL/ANGSTROM
     32         11  H    CARTESIAN Y     2.449999      0.170261  KCAL/ANGSTROM
     33         11  H    CARTESIAN Z    -0.166607      0.111292  KCAL/ANGSTROM
     34         12  H    CARTESIAN X    -1.793060     -0.033156  KCAL/ANGSTROM
     35         12  H    CARTESIAN Y    -1.105531      0.008778  KCAL/ANGSTROM
     36         12  H    CARTESIAN Z    -1.474067     -0.053988  KCAL/ANGSTROM
     37         13  H    CARTESIAN X    -1.683284      0.186162  KCAL/ANGSTROM
     38         13  H    CARTESIAN Y    -1.680904     -0.026718  KCAL/ANGSTROM
     39         13  H    CARTESIAN Z     0.199716      0.249069  KCAL/ANGSTROM
     40         14  H    CARTESIAN X     0.689720     -0.070475  KCAL/ANGSTROM
     41         14  H    CARTESIAN Y    -2.322652     -0.125356  KCAL/ANGSTROM
     42         14  H    CARTESIAN Z    -0.205762      0.005196  KCAL/ANGSTROM
     43         15  H    CARTESIAN X     0.548814      0.007934  KCAL/ANGSTROM
     44         15  H    CARTESIAN Y    -1.723933     -0.175980  KCAL/ANGSTROM
     45         15  H    CARTESIAN Z    -1.871337     -0.119048  KCAL/ANGSTROM
     46         16  H    CARTESIAN X     0.579020     -0.104269  KCAL/ANGSTROM
     47         16  H    CARTESIAN Y     1.166171      0.114840  KCAL/ANGSTROM
     48         16  H    CARTESIAN Z     1.481727     -0.219306  KCAL/ANGSTROM
     49         17  H    CARTESIAN X     0.178997      0.013775  KCAL/ANGSTROM
     50         17  H    CARTESIAN Y    -0.547080      0.046325  KCAL/ANGSTROM
     51         17  H    CARTESIAN Z     1.765556      0.067534  KCAL/ANGSTROM




   ATOM   CHEMICAL          X               Y               Z
  NUMBER   SYMBOL      (ANGSTROMS)     (ANGSTROMS)     (ANGSTROMS)

     1       C         -1.44956564  *   1.53299585  *  -0.53490081  *
     2       C         -0.72400150  *   0.30919465  *  -0.13252565  *
     3       C         -1.17414015  *  -1.10002803  *  -0.57307651  *
     4       C          0.31880337  *  -1.50138385  *  -0.82468696  *
     5       C          0.77215820  *  -0.09686519  *  -0.37373734  *
     6       C          1.82380000  *   0.59622524  *  -1.00321279  *
     7       N          2.68996140  *   1.16284467  *  -1.52248590  *
     8       C          0.25101755  *   0.23760460  *   1.01593553  *
     9       H         -1.51981138  *   1.62959253  *  -1.62979049  *
    10       H         -2.47889594  *   1.53152810  *  -0.14195567  *
    11       H         -0.96490147  *   2.44999911  *  -0.16660724  *
    12       H         -1.79306013  *  -1.10553077  *  -1.47406748  *
    13       H         -1.68328369  *  -1.68090426  *   0.19971624  *
    14       H          0.68971958  *  -2.32265210  *  -0.20576218  *
    15       H          0.54881436  *  -1.72393255  *  -1.87133655  *
    16       H          0.57902001  *   1.16617067  *   1.48172686  *
    17       H          0.17899713  *  -0.54707995  *   1.76555622  *

                             CARTESIAN COORDINATES

   1    C       -1.449565639     1.532995852    -0.534900815
   2    C       -0.724001497     0.309194651    -0.132525652
   3    C       -1.174140148    -1.100028032    -0.573076515
   4    C        0.318803368    -1.501383851    -0.824686956
   5    C        0.772158205    -0.096865191    -0.373737340
   6    C        1.823800004     0.596225239    -1.003212795
   7    N        2.689961396     1.162844674    -1.522485896
   8    C        0.251017553     0.237604600     1.015935531
   9    H       -1.519811377     1.629592533    -1.629790491
  10    H       -2.478895943     1.531528100    -0.141955667
  11    H       -0.964901466     2.449999108    -0.166607243
  12    H       -1.793060135    -1.105530771    -1.474067481
  13    H       -1.683283694    -1.680904263     0.199716242
  14    H        0.689719580    -2.322652100    -0.205762183
  15    H        0.548814360    -1.723932548    -1.871336549
  16    H        0.579020007     1.166170675     1.481726863
  17    H        0.178997133    -0.547079954     1.765556218


           Empirical Formula: C7 H9 N  =    17 atoms



      MOLECULAR POINT GROUP   :   C1  


                  EIGENVALUES  
 -34.79527 -32.82403 -26.49023 -25.74186 -23.48238 -21.13628 -19.68911 -17.13126
 -16.37500 -16.21943 -14.80430 -14.51215 -14.22489 -13.79626 -13.73111 -13.30577
 -13.06871 -12.47206 -12.12246 -11.47259 -10.39860   0.72238   1.13702   2.17719
   2.89390   2.91545   3.15778   3.53727   3.73351   3.99826   4.51334   5.07404
   5.28059   5.31194   5.34853   5.63306   5.86457   5.91411   5.98696   6.04799
   6.45684


              NET ATOMIC CHARGES AND DIPOLE CONTRIBUTIONS

  ATOM NO.   TYPE          CHARGE      No. of ELECS.   s-Pop       p-Pop       
    1          C          -0.448642        4.4486     1.04611     3.40254
    2          C           0.066350        3.9337     1.05749     2.87616
    3          C          -0.284552        4.2846     1.07261     3.21194
    4          C          -0.236712        4.2367     1.06913     3.16758
    5          C          -0.117857        4.1179     1.02548     3.09237
    6          C           0.139392        3.8606     1.09985     2.76076
    7          N          -0.257426        5.2574     1.83189     3.42553
    8          C          -0.302134        4.3021     1.06277     3.23936
    9          H           0.164272        0.8357     0.83573
   10          H           0.165933        0.8341     0.83407
   11          H           0.162587        0.8374     0.83741
   12          H           0.153444        0.8466     0.84656
   13          H           0.151440        0.8486     0.84856
   14          H           0.151732        0.8483     0.84827
   15          H           0.154598        0.8454     0.84540
   16          H           0.168789        0.8312     0.83121
   17          H           0.168788        0.8312     0.83121
 DIPOLE           X         Y         Z       TOTAL
 POINT-CHG.    -3.721    -1.412     1.402     4.219
 HYBRID        -0.055    -0.054     0.128     0.149
 SUM           -3.775    -1.466     1.530     4.329


          ATOMIC ORBITAL ELECTRON POPULATIONS

     Atom    s        px        py        pz   
    1  C   1.04611   1.15028   1.07341   1.17884
    2  C   1.05749   0.88479   0.97303   1.01835
    3  C   1.07261   1.03290   1.02432   1.15472
    4  C   1.06913   1.00360   1.01041   1.15358
    5  C   1.02548   1.00376   1.03299   1.05562
    6  C   1.09985   0.91923   0.92116   0.92037
    7  N   1.83189   1.17385   1.12344   1.12824
    8  C   1.06277   1.08420   1.17605   0.97911
    9  H   0.83573
   10  H   0.83407
   11  H   0.83741
   12  H   0.84656
   13  H   0.84856
   14  H   0.84827
   15  H   0.84540
   16  H   0.83121
   17  H   0.83121

 **********************
 *                    *
 * JOB ENDED NORMALLY *
 *                    *
 **********************



 TOTAL JOB TIME:             1.02 SECONDS

 == MOPAC DONE ==
