 *******************************************************************************
 **                                                                           **
 **                              MOPAC v23.2                                  **
 **                                                                           **
 *******************************************************************************
 **          Digital Object Identifier (DOI): 10.5281/zenodo.6511958          **
 **    Visit the DOI location for information on how to cite this program.    **
 *******************************************************************************

                              PM7 CALCULATION RESULTS

 *******************************************************************************
 *  CALCULATION DONE: (MAX THREADS = 40)             Fri Sep 19 21:41:18 2025  *
 *  PM7        - The PM7 Hamiltonian to be used
 *  1SCF       - DO 1 SCF AND THEN STOP 
 *  T=         - A TIME OF 172800.0 SECONDS REQUESTED
 *  DUMP=N     - RESTART FILE WRITTEN EVERY 7200.0 SECONDS REQUESTED
 *  RELSCF     - DEFAULT SCF CRITERION MULTIPLIED BY 0.0001
 *              (DEFAULT SCF CRITERION = 0.00010)
 *  GRADIENTS  - ALL GRADIENTS TO BE PRINTED
 *  DISP       - PRINT DISPERSION AND HYDROGEN BOND ENERGIES
 *******************************************************************************
PM7 1SCF GRADIENTS DISP RELSCF=0.0001
 Title: ASE calculation

   ATOM   CHEMICAL          X               Y               Z
  NUMBER   SYMBOL      (ANGSTROMS)     (ANGSTROMS)     (ANGSTROMS)

     1       C         -3.18337183  *   0.78556714  *   0.36887676  *
     2       N         -2.03469555  *   0.28693870  *  -0.39042128  *
     3       C         -1.05404013  *  -0.41479404  *   0.27768936  *
     4       O         -1.14731601  *  -0.61574783  *   1.47301881  *
     5       C          0.08268724  *  -0.95901878  *  -0.55856136  *
     6       C          1.42100585  *  -0.72113109  *   0.14878421  *
     7       O          1.96793987  *   0.41036263  *  -0.52077803  *
     8       C          3.05581910  *   0.98896903  *   0.17257072  *
     9       H         -3.86399256  *  -0.04806847  *   0.62459028  *
    10       H         -2.85371925  *   1.23948925  *   1.32429216  *
    11       H         -3.73768634  *   1.53889330  *  -0.20902390  *
    12       H         -1.97130744  *   0.52900353  *  -1.35888277  *
    13       H          0.12369270  *  -0.50856411  *  -1.57215304  *
    14       H         -0.08633283  *  -2.04540080  *  -0.71143910  *
    15       H          2.11391767  *  -1.57019443  *   0.01542752  *
    16       H          1.29285218  *  -0.51829145  *   1.22879366  *
    17       H          2.72149352  *   1.43066799  *   1.11741362  *
    18       H          3.39820013  *   1.77259005  *  -0.51449743  *
    19       H          3.85252764  *   0.25829457  *   0.34214557  *



          CARTESIAN COORDINATES 

    NO.       ATOM           X           Y           Z

     1         C         -3.1834      0.7856      0.3689
     2         N         -2.0347      0.2869     -0.3904
     3         C         -1.0540     -0.4148      0.2777
     4         O         -1.1473     -0.6157      1.4730
     5         C          0.0827     -0.9590     -0.5586
     6         C          1.4210     -0.7211      0.1488
     7         O          1.9679      0.4104     -0.5208
     8         C          3.0558      0.9890      0.1726
     9         H         -3.8640     -0.0481      0.6246
    10         H         -2.8537      1.2395      1.3243
    11         H         -3.7377      1.5389     -0.2090
    12         H         -1.9713      0.5290     -1.3589
    13         H          0.1237     -0.5086     -1.5722
    14         H         -0.0863     -2.0454     -0.7114
    15         H          2.1139     -1.5702      0.0154
    16         H          1.2929     -0.5183      1.2288
    17         H          2.7215      1.4307      1.1174
    18         H          3.3982      1.7726     -0.5145
    19         H          3.8525      0.2583      0.3421

 General Reference for PM7:
 "Optimization of Parameters for Semiempirical Methods VI: More Modifications to the 
 NDDO Approximations and Re-optimization of Parameters", J. J. P. Stewart, J. Mol. Mod., 1:32, 19 (2013)
 https://link.springer.com/article/10.1007/s00894-012-1667-x

           Empirical Formula: C5 H11 N O2  =    19 atoms



      MOLECULAR POINT GROUP   :   C1  


      RHF CALCULATION, NO. OF DOUBLY OCCUPIED LEVELS = 24

  SCF CRITERION =    0.1000E-07

 -------------------------------------------------------------------------------
 PM7 1SCF GRADIENTS DISP RELSCF=0.0001
 Title: ASE calculation



     1SCF WAS SPECIFIED, SO BFGS WAS NOT USED                 
     SCF FIELD WAS ACHIEVED                                   


                              PM7 CALCULATION
                                                       MOPAC v23.2 Linux
                                                       Fri Sep 19 21:41:19 2025




          FINAL HEAT OF FORMATION =        -93.87931 KCAL/MOL =    -392.79103 KJ/MOL

          TOTAL ENERGY            =     -35507.19703 KCAL/MOL = ELECTRONIC ENERGY + CORE-CORE REPULSION
          ENERGY OF ATOMS         =      35414.96735 KCAL/MOL
                              SUM =        -92.22969 KCAL/MOL
          DISPERSION ENERGY       =         -1.66684 KCAL/MOL
          MM CORR. FOR -CO-NH-    =          0.01722 KCAL/MOL
                              SUM =        -93.87931 KCAL/MOL = FINAL HEAT OF FORMATION



          TOTAL ENERGY            =      -1539.73779 EV
          ELECTRONIC ENERGY       =      -6826.43841 EV 
          CORE-CORE REPULSION     =       5286.70061 EV
          COSMO AREA              =        166.14 SQUARE ANGSTROMS
          COSMO VOLUME            =        155.62 CUBIC ANGSTROMS

          GRADIENT NORM           =          1.20140          =       0.27562 PER ATOM
          IONIZATION POTENTIAL    =          9.620594 EV
          HOMO LUMO ENERGIES (EV) =         -9.621  1.514
          NO. OF FILLED LEVELS    =         24
          MOLECULAR WEIGHT        =        117.1474         POINT GROUP:  C1  

          MOLECULAR DIMENSIONS (Angstroms)

            Atom       Atom       Distance
            H    19    H     9     7.72776
            H    14    H    10     3.90671
            O     4    H    12     3.06557


          SCF CALCULATIONS        =          1

          WALL-CLOCK TIME         =      0.594 SECONDS
          COMPUTATION TIME        =      0.279 SECONDS

          LARGEST ATOMIC GRADIENTS

          Atom     Label                     Cartesian Gradients           Cartesian Coordinates       |Gradient|
                                           X          Y          Z        X          Y          Z

             7       O                   0.397     -0.169     -0.154    1.96794    0.41036   -0.52078      0.458
             2       N                  -0.270      0.220     -0.208   -2.03470    0.28694   -0.39042      0.406
             9       H                   0.217     -0.306     -0.074   -3.86399   -0.04807    0.62459      0.383
             8       C                   0.049      0.361      0.006    3.05582    0.98897    0.17257      0.365
             1       C                  -0.248     -0.006      0.198   -3.18337    0.78557    0.36888      0.318
             6       C                   0.296      0.031      0.081    1.42101   -0.72113    0.14878      0.308
             3       C                  -0.037      0.268     -0.138   -1.05404   -0.41479    0.27769      0.304
            18       H                  -0.054     -0.294     -0.025    3.39820    1.77259   -0.51450      0.300
            14       H                  -0.277     -0.042      0.103   -0.08633   -2.04540   -0.71144      0.298
            19       H                  -0.011     -0.276      0.046    3.85253    0.25829    0.34215      0.280



       FINAL  POINT  AND  DERIVATIVES

   PARAMETER     ATOM    TYPE            VALUE        GRADIENT
      1          1  C    CARTESIAN X    -3.183372     -0.248321  KCAL/ANGSTROM
      2          1  C    CARTESIAN Y     0.785567     -0.005850  KCAL/ANGSTROM
      3          1  C    CARTESIAN Z     0.368877      0.198128  KCAL/ANGSTROM
      4          2  N    CARTESIAN X    -2.034696     -0.270130  KCAL/ANGSTROM
      5          2  N    CARTESIAN Y     0.286939      0.220252  KCAL/ANGSTROM
      6          2  N    CARTESIAN Z    -0.390421     -0.207712  KCAL/ANGSTROM
      7          3  C    CARTESIAN X    -1.054040     -0.037360  KCAL/ANGSTROM
      8          3  C    CARTESIAN Y    -0.414794      0.268125  KCAL/ANGSTROM
      9          3  C    CARTESIAN Z     0.277689     -0.138187  KCAL/ANGSTROM
     10          4  O    CARTESIAN X    -1.147316     -0.162882  KCAL/ANGSTROM
     11          4  O    CARTESIAN Y    -0.615748      0.048699  KCAL/ANGSTROM
     12          4  O    CARTESIAN Z     1.473019     -0.076396  KCAL/ANGSTROM
     13          5  C    CARTESIAN X     0.082687      0.235139  KCAL/ANGSTROM
     14          5  C    CARTESIAN Y    -0.959019      0.095418  KCAL/ANGSTROM
     15          5  C    CARTESIAN Z    -0.558561      0.061581  KCAL/ANGSTROM
     16          6  C    CARTESIAN X     1.421006      0.295959  KCAL/ANGSTROM
     17          6  C    CARTESIAN Y    -0.721131      0.031180  KCAL/ANGSTROM
     18          6  C    CARTESIAN Z     0.148784      0.080859  KCAL/ANGSTROM
     19          7  O    CARTESIAN X     1.967940      0.396618  KCAL/ANGSTROM
     20          7  O    CARTESIAN Y     0.410363     -0.168900  KCAL/ANGSTROM
     21          7  O    CARTESIAN Z    -0.520778     -0.154039  KCAL/ANGSTROM
     22          8  C    CARTESIAN X     3.055819      0.048820  KCAL/ANGSTROM
     23          8  C    CARTESIAN Y     0.988969      0.361234  KCAL/ANGSTROM
     24          8  C    CARTESIAN Z     0.172571      0.006278  KCAL/ANGSTROM
     25          9  H    CARTESIAN X    -3.863993      0.217480  KCAL/ANGSTROM
     26          9  H    CARTESIAN Y    -0.048068     -0.306409  KCAL/ANGSTROM
     27          9  H    CARTESIAN Z     0.624590     -0.074033  KCAL/ANGSTROM
     28         10  H    CARTESIAN X    -2.853719      0.113357  KCAL/ANGSTROM
     29         10  H    CARTESIAN Y     1.239489     -0.099626  KCAL/ANGSTROM
     30         10  H    CARTESIAN Z     1.324292     -0.040245  KCAL/ANGSTROM
     31         11  H    CARTESIAN X    -3.737686     -0.151462  KCAL/ANGSTROM
     32         11  H    CARTESIAN Y     1.538893     -0.140237  KCAL/ANGSTROM
     33         11  H    CARTESIAN Z    -0.209024      0.067431  KCAL/ANGSTROM
     34         12  H    CARTESIAN X    -1.971307     -0.129694  KCAL/ANGSTROM
     35         12  H    CARTESIAN Y     0.529004      0.123636  KCAL/ANGSTROM
     36         12  H    CARTESIAN Z    -1.358883      0.027377  KCAL/ANGSTROM
     37         13  H    CARTESIAN X     0.123693      0.044306  KCAL/ANGSTROM
     38         13  H    CARTESIAN Y    -0.508564      0.016501  KCAL/ANGSTROM
     39         13  H    CARTESIAN Z    -1.572153      0.068838  KCAL/ANGSTROM
     40         14  H    CARTESIAN X    -0.086333     -0.276813  KCAL/ANGSTROM
     41         14  H    CARTESIAN Y    -2.045401     -0.042368  KCAL/ANGSTROM
     42         14  H    CARTESIAN Z    -0.711439      0.103042  KCAL/ANGSTROM
     43         15  H    CARTESIAN X     2.113918     -0.079496  KCAL/ANGSTROM
     44         15  H    CARTESIAN Y    -1.570194      0.058598  KCAL/ANGSTROM
     45         15  H    CARTESIAN Z     0.015428      0.015840  KCAL/ANGSTROM
     46         16  H    CARTESIAN X     1.292852      0.022660  KCAL/ANGSTROM
     47         16  H    CARTESIAN Y    -0.518291      0.013501  KCAL/ANGSTROM
     48         16  H    CARTESIAN Z     1.228794     -0.037563  KCAL/ANGSTROM
     49         17  H    CARTESIAN X     2.721494      0.046728  KCAL/ANGSTROM
     50         17  H    CARTESIAN Y     1.430668      0.095997  KCAL/ANGSTROM
     51         17  H    CARTESIAN Z     1.117414      0.077939  KCAL/ANGSTROM
     52         18  H    CARTESIAN X     3.398200     -0.054321  KCAL/ANGSTROM
     53         18  H    CARTESIAN Y     1.772590     -0.293863  KCAL/ANGSTROM
     54         18  H    CARTESIAN Z    -0.514497     -0.024850  KCAL/ANGSTROM
     55         19  H    CARTESIAN X     3.852528     -0.010583  KCAL/ANGSTROM
     56         19  H    CARTESIAN Y     0.258295     -0.275888  KCAL/ANGSTROM
     57         19  H    CARTESIAN Z     0.342146      0.045709  KCAL/ANGSTROM




   ATOM   CHEMICAL          X               Y               Z
  NUMBER   SYMBOL      (ANGSTROMS)     (ANGSTROMS)     (ANGSTROMS)

     1       C         -3.18337183  *   0.78556714  *   0.36887676  *
     2       N         -2.03469555  *   0.28693870  *  -0.39042128  *
     3       C         -1.05404013  *  -0.41479404  *   0.27768936  *
     4       O         -1.14731601  *  -0.61574783  *   1.47301881  *
     5       C          0.08268724  *  -0.95901878  *  -0.55856136  *
     6       C          1.42100585  *  -0.72113109  *   0.14878421  *
     7       O          1.96793987  *   0.41036263  *  -0.52077803  *
     8       C          3.05581910  *   0.98896903  *   0.17257072  *
     9       H         -3.86399256  *  -0.04806847  *   0.62459028  *
    10       H         -2.85371925  *   1.23948925  *   1.32429216  *
    11       H         -3.73768634  *   1.53889330  *  -0.20902390  *
    12       H         -1.97130744  *   0.52900353  *  -1.35888277  *
    13       H          0.12369270  *  -0.50856411  *  -1.57215304  *
    14       H         -0.08633283  *  -2.04540080  *  -0.71143910  *
    15       H          2.11391767  *  -1.57019443  *   0.01542752  *
    16       H          1.29285218  *  -0.51829145  *   1.22879366  *
    17       H          2.72149352  *   1.43066799  *   1.11741362  *
    18       H          3.39820013  *   1.77259005  *  -0.51449743  *
    19       H          3.85252764  *   0.25829457  *   0.34214557  *

                             CARTESIAN COORDINATES

   1    C       -3.183371831     0.785567143     0.368876760
   2    N       -2.034695549     0.286938699    -0.390421285
   3    C       -1.054040128    -0.414794042     0.277689365
   4    O       -1.147316007    -0.615747832     1.473018812
   5    C        0.082687241    -0.959018781    -0.558561357
   6    C        1.421005854    -0.721131091     0.148784214
   7    O        1.967939867     0.410362629    -0.520778030
   8    C        3.055819096     0.988969026     0.172570722
   9    H       -3.863992564    -0.048068473     0.624590282
  10    H       -2.853719252     1.239489250     1.324292155
  11    H       -3.737686337     1.538893302    -0.209023901
  12    H       -1.971307435     0.529003528    -1.358882772
  13    H        0.123692702    -0.508564113    -1.572153040
  14    H       -0.086332835    -2.045400802    -0.711439097
  15    H        2.113917670    -1.570194430     0.015427518
  16    H        1.292852183    -0.518291450     1.228793662
  17    H        2.721493521     1.430667986     1.117413621
  18    H        3.398200135     1.772590049    -0.514497427
  19    H        3.852527639     0.258294569     0.342145570


           Empirical Formula: C5 H11 N O2  =    19 atoms



      MOLECULAR POINT GROUP   :   C1  


                  EIGENVALUES  
 -36.69306 -30.10466 -29.54180 -27.30257 -24.69160 -23.76728 -21.95782 -20.17744
 -17.78752 -16.97139 -16.22129 -15.65454 -15.54196 -14.95610 -14.26801 -13.76425
 -13.34419 -12.97691 -12.85235 -12.39002 -12.02278 -10.32800  -9.97511  -9.62059
   1.51381   2.13643   2.38072   3.39952   3.93675   4.64662   4.70395   5.05342
   5.23882   5.48123   5.52308   5.61035   5.67984   5.71723   5.92070   6.10080
   6.22552   6.31778   6.76724


              NET ATOMIC CHARGES AND DIPOLE CONTRIBUTIONS

  ATOM NO.   TYPE          CHARGE      No. of ELECS.   s-Pop       p-Pop       
    1          C          -0.216950        4.2169     1.05696     3.15999
    2          N          -0.591692        5.5917     1.55211     4.03959
    3          C           0.591377        3.4086     1.07867     2.32996
    4          O          -0.546953        6.5470     1.88036     4.66659
    5          C          -0.383757        4.3838     1.07246     3.31129
    6          C          -0.022632        4.0226     1.08803     2.93460
    7          O          -0.396566        6.3966     1.88144     4.51512
    8          C          -0.195067        4.1951     1.08090     3.11417
    9          H           0.147374        0.8526     0.85263
   10          H           0.161867        0.8381     0.83813
   11          H           0.135853        0.8641     0.86415
   12          H           0.308801        0.6912     0.69120
   13          H           0.176398        0.8236     0.82360
   14          H           0.176001        0.8240     0.82400
   15          H           0.120757        0.8792     0.87924
   16          H           0.146425        0.8536     0.85358
   17          H           0.125808        0.8742     0.87419
   18          H           0.143429        0.8566     0.85657
   19          H           0.119527        0.8805     0.88047
 DIPOLE           X         Y         Z       TOTAL
 POINT-CHG.     0.249     0.460    -1.735     1.813
 HYBRID        -0.151     0.199    -0.477     0.538
 SUM            0.099     0.660    -2.212     2.311


          ATOMIC ORBITAL ELECTRON POPULATIONS

     Atom    s        px        py        pz   
    1  C   1.05696   0.95145   1.12097   1.08757
    2  N   1.55211   1.27033   1.57427   1.19498
    3  C   1.07867   0.78171   0.73617   0.81208
    4  O   1.88036   1.78380   1.62978   1.25301
    5  C   1.07246   1.03103   1.16056   1.11970
    6  C   1.08803   0.95665   0.92640   1.05155
    7  O   1.88144   1.52363   1.50082   1.49067
    8  C   1.08090   0.94987   1.07668   1.08762
    9  H   0.85263
   10  H   0.83813
   11  H   0.86415
   12  H   0.69120
   13  H   0.82360
   14  H   0.82400
   15  H   0.87924
   16  H   0.85358
   17  H   0.87419
   18  H   0.85657
   19  H   0.88047

 **********************
 *                    *
 * JOB ENDED NORMALLY *
 *                    *
 **********************



 TOTAL JOB TIME:             0.97 SECONDS

 == MOPAC DONE ==
