 *******************************************************************************
 **                                                                           **
 **                              MOPAC v23.2                                  **
 **                                                                           **
 *******************************************************************************
 **          Digital Object Identifier (DOI): 10.5281/zenodo.6511958          **
 **    Visit the DOI location for information on how to cite this program.    **
 *******************************************************************************

                              PM7 CALCULATION RESULTS

 *******************************************************************************
 *  CALCULATION DONE: (MAX THREADS = 40)             Fri Sep 19 21:34:32 2025  *
 *  PM7        - The PM7 Hamiltonian to be used
 *  1SCF       - DO 1 SCF AND THEN STOP 
 *  T=         - A TIME OF 172800.0 SECONDS REQUESTED
 *  DUMP=N     - RESTART FILE WRITTEN EVERY 7200.0 SECONDS REQUESTED
 *  RELSCF     - DEFAULT SCF CRITERION MULTIPLIED BY 0.0001
 *              (DEFAULT SCF CRITERION = 0.00010)
 *  GRADIENTS  - ALL GRADIENTS TO BE PRINTED
 *  DISP       - PRINT DISPERSION AND HYDROGEN BOND ENERGIES
 *******************************************************************************
PM7 1SCF GRADIENTS DISP RELSCF=0.0001
 Title: ASE calculation

   ATOM   CHEMICAL          X               Y               Z
  NUMBER   SYMBOL      (ANGSTROMS)     (ANGSTROMS)     (ANGSTROMS)

     1       C         -1.35487797  *  -1.34653388  *   0.69286059  *
     2       C         -1.50346716  *   0.10166749  *   0.21517153  *
     3       C         -2.53909857  *   0.82817434  *   1.07809504  *
     4       O         -2.50274071  *   2.02529480  *   1.20816979  *
     5       N         -0.20147646  *   0.79641998  *   0.34531114  *
     6       C          0.63447040  *   0.66269650  *  -0.86389126  *
     7       C          2.08314730  *   1.04270055  *  -0.55237664  *
     8       N          2.52675793  *   0.89738306  *   0.73927426  *
     9       O          2.83141848  *   1.42942389  *  -1.42807019  *
    10       H         -0.95775835  *  -1.38892826  *   1.71612180  *
    11       H         -2.30761618  *  -1.88469953  *   0.67178013  *
    12       H         -0.64601952  *  -1.90225678  *   0.06550696  *
    13       H         -1.88635047  *   0.11035978  *  -0.84236536  *
    14       H         -3.31664325  *   0.22178299  *   1.55301763  *
    15       H         -0.34641542  *   1.78702283  *   0.57662406  *
    16       H          0.28598870  *   1.28592114  *  -1.71958438  *
    17       H          0.63126244  *  -0.39511089  *  -1.21620492  *
    18       H          3.46280310  *   1.14710960  *   0.98462264  *
    19       H          1.91146073  *   0.59875280  *   1.46941464  *



          CARTESIAN COORDINATES 

    NO.       ATOM           X           Y           Z

     1         C         -1.3549     -1.3465      0.6929
     2         C         -1.5035      0.1017      0.2152
     3         C         -2.5391      0.8282      1.0781
     4         O         -2.5027      2.0253      1.2082
     5         N         -0.2015      0.7964      0.3453
     6         C          0.6345      0.6627     -0.8639
     7         C          2.0831      1.0427     -0.5524
     8         N          2.5268      0.8974      0.7393
     9         O          2.8314      1.4294     -1.4281
    10         H         -0.9578     -1.3889      1.7161
    11         H         -2.3076     -1.8847      0.6718
    12         H         -0.6460     -1.9023      0.0655
    13         H         -1.8864      0.1104     -0.8424
    14         H         -3.3166      0.2218      1.5530
    15         H         -0.3464      1.7870      0.5766
    16         H          0.2860      1.2859     -1.7196
    17         H          0.6313     -0.3951     -1.2162
    18         H          3.4628      1.1471      0.9846
    19         H          1.9115      0.5988      1.4694

 General Reference for PM7:
 "Optimization of Parameters for Semiempirical Methods VI: More Modifications to the 
 NDDO Approximations and Re-optimization of Parameters", J. J. P. Stewart, J. Mol. Mod., 1:32, 19 (2013)
 https://link.springer.com/article/10.1007/s00894-012-1667-x

           Empirical Formula: C5 H10 N2 O2  =    19 atoms



      MOLECULAR POINT GROUP   :   C1  


      RHF CALCULATION, NO. OF DOUBLY OCCUPIED LEVELS = 26

  SCF CRITERION =    0.1000E-07

 -------------------------------------------------------------------------------
 PM7 1SCF GRADIENTS DISP RELSCF=0.0001
 Title: ASE calculation



     1SCF WAS SPECIFIED, SO BFGS WAS NOT USED                 
     SCF FIELD WAS ACHIEVED                                   


                              PM7 CALCULATION
                                                       MOPAC v23.2 Linux
                                                       Fri Sep 19 21:34:33 2025




          FINAL HEAT OF FORMATION =        -79.76061 KCAL/MOL =    -333.71840 KJ/MOL

          TOTAL ENERGY            =     -39487.51965 KCAL/MOL = ELECTRONIC ENERGY + CORE-CORE REPULSION
          ENERGY OF ATOMS         =      39410.22309 KCAL/MOL
                              SUM =        -77.29656 KCAL/MOL
          DISPERSION ENERGY       =         -2.09559 KCAL/MOL
          H-BOND ENERGY           =         -0.37738 KCAL/MOL
          MM CORR. FOR -CO-NH-    =          0.00892 KCAL/MOL
                              SUM =        -79.76061 KCAL/MOL = FINAL HEAT OF FORMATION



          TOTAL ENERGY            =      -1712.34092 EV
          ELECTRONIC ENERGY       =      -7736.83942 EV 
          CORE-CORE REPULSION     =       6024.49850 EV
          COSMO AREA              =        169.78 SQUARE ANGSTROMS
          COSMO VOLUME            =        165.06 CUBIC ANGSTROMS

          GRADIENT NORM           =          1.24144          =       0.28481 PER ATOM
          IONIZATION POTENTIAL    =          9.835908 EV
          HOMO LUMO ENERGIES (EV) =         -9.836  0.137
          NO. OF FILLED LEVELS    =         26
          MOLECULAR WEIGHT        =        130.1462         POINT GROUP:  C1  

          MOLECULAR DIMENSIONS (Angstroms)

            Atom       Atom       Distance
            H    14    O     9     6.93858
            O     4    H    12     4.25075
            H    18    H    13     3.95600


          SCF CALCULATIONS        =          1

          WALL-CLOCK TIME         =      0.680 SECONDS
          COMPUTATION TIME        =      0.737 SECONDS

          LARGEST ATOMIC GRADIENTS

          Atom     Label                     Cartesian Gradients           Cartesian Coordinates       |Gradient|
                                           X          Y          Z        X          Y          Z

             9       O                   0.443      0.004      0.108    2.83142    1.42942   -1.42807      0.456
             3       C                   0.239      0.115      0.256   -2.53910    0.82817    1.07810      0.369
             4       O                  -0.041      0.154     -0.308   -2.50274    2.02529    1.20817      0.347
             7       C                  -0.121      0.103     -0.306    2.08315    1.04270   -0.55238      0.345
            18       H                  -0.008      0.287      0.178    3.46280    1.14711    0.98462      0.337
            14       H                  -0.024     -0.017      0.315   -3.31664    0.22178    1.55302      0.317
             6       C                  -0.294      0.029      0.049    0.63447    0.66270   -0.86389      0.299
            16       H                   0.225      0.181     -0.008    0.28599    1.28592   -1.71958      0.289
             1       C                  -0.126     -0.214     -0.121   -1.35488   -1.34653    0.69286      0.276
            19       H                   0.259     -0.018      0.036    1.91146    0.59875    1.46941      0.262



       FINAL  POINT  AND  DERIVATIVES

   PARAMETER     ATOM    TYPE            VALUE        GRADIENT
      1          1  C    CARTESIAN X    -1.354878     -0.125595  KCAL/ANGSTROM
      2          1  C    CARTESIAN Y    -1.346534     -0.213910  KCAL/ANGSTROM
      3          1  C    CARTESIAN Z     0.692861     -0.120770  KCAL/ANGSTROM
      4          2  C    CARTESIAN X    -1.503467     -0.148588  KCAL/ANGSTROM
      5          2  C    CARTESIAN Y     0.101667     -0.099130  KCAL/ANGSTROM
      6          2  C    CARTESIAN Z     0.215172     -0.016874  KCAL/ANGSTROM
      7          3  C    CARTESIAN X    -2.539099      0.239321  KCAL/ANGSTROM
      8          3  C    CARTESIAN Y     0.828174      0.114956  KCAL/ANGSTROM
      9          3  C    CARTESIAN Z     1.078095      0.256203  KCAL/ANGSTROM
     10          4  O    CARTESIAN X    -2.502741     -0.040938  KCAL/ANGSTROM
     11          4  O    CARTESIAN Y     2.025295      0.153728  KCAL/ANGSTROM
     12          4  O    CARTESIAN Z     1.208170     -0.308138  KCAL/ANGSTROM
     13          5  N    CARTESIAN X    -0.201476     -0.120880  KCAL/ANGSTROM
     14          5  N    CARTESIAN Y     0.796420     -0.054453  KCAL/ANGSTROM
     15          5  N    CARTESIAN Z     0.345311      0.217697  KCAL/ANGSTROM
     16          6  C    CARTESIAN X     0.634470     -0.293673  KCAL/ANGSTROM
     17          6  C    CARTESIAN Y     0.662696      0.028655  KCAL/ANGSTROM
     18          6  C    CARTESIAN Z    -0.863891      0.049478  KCAL/ANGSTROM
     19          7  C    CARTESIAN X     2.083147     -0.121010  KCAL/ANGSTROM
     20          7  C    CARTESIAN Y     1.042701      0.102507  KCAL/ANGSTROM
     21          7  C    CARTESIAN Z    -0.552377     -0.305873  KCAL/ANGSTROM
     22          8  N    CARTESIAN X     2.526758     -0.065626  KCAL/ANGSTROM
     23          8  N    CARTESIAN Y     0.897383     -0.000289  KCAL/ANGSTROM
     24          8  N    CARTESIAN Z     0.739274     -0.209518  KCAL/ANGSTROM
     25          9  O    CARTESIAN X     2.831418      0.442831  KCAL/ANGSTROM
     26          9  O    CARTESIAN Y     1.429424      0.004462  KCAL/ANGSTROM
     27          9  O    CARTESIAN Z    -1.428070      0.108478  KCAL/ANGSTROM
     28         10  H    CARTESIAN X    -0.957758     -0.139619  KCAL/ANGSTROM
     29         10  H    CARTESIAN Y    -1.388928     -0.193543  KCAL/ANGSTROM
     30         10  H    CARTESIAN Z     1.716122     -0.090616  KCAL/ANGSTROM
     31         11  H    CARTESIAN X    -2.307616     -0.176877  KCAL/ANGSTROM
     32         11  H    CARTESIAN Y    -1.884700     -0.119081  KCAL/ANGSTROM
     33         11  H    CARTESIAN Z     0.671780      0.147345  KCAL/ANGSTROM
     34         12  H    CARTESIAN X    -0.646020     -0.040179  KCAL/ANGSTROM
     35         12  H    CARTESIAN Y    -1.902257     -0.246530  KCAL/ANGSTROM
     36         12  H    CARTESIAN Z     0.065507     -0.028357  KCAL/ANGSTROM
     37         13  H    CARTESIAN X    -1.886350      0.005913  KCAL/ANGSTROM
     38         13  H    CARTESIAN Y     0.110360      0.040980  KCAL/ANGSTROM
     39         13  H    CARTESIAN Z    -0.842365     -0.228623  KCAL/ANGSTROM
     40         14  H    CARTESIAN X    -3.316643     -0.024397  KCAL/ANGSTROM
     41         14  H    CARTESIAN Y     0.221783     -0.016988  KCAL/ANGSTROM
     42         14  H    CARTESIAN Z     1.553018      0.315455  KCAL/ANGSTROM
     43         15  H    CARTESIAN X    -0.346415      0.091312  KCAL/ANGSTROM
     44         15  H    CARTESIAN Y     1.787023      0.077646  KCAL/ANGSTROM
     45         15  H    CARTESIAN Z     0.576624     -0.081240  KCAL/ANGSTROM
     46         16  H    CARTESIAN X     0.285989      0.224637  KCAL/ANGSTROM
     47         16  H    CARTESIAN Y     1.285921      0.180971  KCAL/ANGSTROM
     48         16  H    CARTESIAN Z    -1.719584     -0.007902  KCAL/ANGSTROM
     49         17  H    CARTESIAN X     0.631262      0.042319  KCAL/ANGSTROM
     50         17  H    CARTESIAN Y    -0.395111     -0.028799  KCAL/ANGSTROM
     51         17  H    CARTESIAN Z    -1.216205      0.089297  KCAL/ANGSTROM
     52         18  H    CARTESIAN X     3.462803     -0.007851  KCAL/ANGSTROM
     53         18  H    CARTESIAN Y     1.147110      0.286529  KCAL/ANGSTROM
     54         18  H    CARTESIAN Z     0.984623      0.177951  KCAL/ANGSTROM
     55         19  H    CARTESIAN X     1.911461      0.258859  KCAL/ANGSTROM
     56         19  H    CARTESIAN Y     0.598753     -0.017721  KCAL/ANGSTROM
     57         19  H    CARTESIAN Z     1.469415      0.035961  KCAL/ANGSTROM




   ATOM   CHEMICAL          X               Y               Z
  NUMBER   SYMBOL      (ANGSTROMS)     (ANGSTROMS)     (ANGSTROMS)

     1       C         -1.35487797  *  -1.34653388  *   0.69286059  *
     2       C         -1.50346716  *   0.10166749  *   0.21517153  *
     3       C         -2.53909857  *   0.82817434  *   1.07809504  *
     4       O         -2.50274071  *   2.02529480  *   1.20816979  *
     5       N         -0.20147646  *   0.79641998  *   0.34531114  *
     6       C          0.63447040  *   0.66269650  *  -0.86389126  *
     7       C          2.08314730  *   1.04270055  *  -0.55237664  *
     8       N          2.52675793  *   0.89738306  *   0.73927426  *
     9       O          2.83141848  *   1.42942389  *  -1.42807019  *
    10       H         -0.95775835  *  -1.38892826  *   1.71612180  *
    11       H         -2.30761618  *  -1.88469953  *   0.67178013  *
    12       H         -0.64601952  *  -1.90225678  *   0.06550696  *
    13       H         -1.88635047  *   0.11035978  *  -0.84236536  *
    14       H         -3.31664325  *   0.22178299  *   1.55301763  *
    15       H         -0.34641542  *   1.78702283  *   0.57662406  *
    16       H          0.28598870  *   1.28592114  *  -1.71958438  *
    17       H          0.63126244  *  -0.39511089  *  -1.21620492  *
    18       H          3.46280310  *   1.14710960  *   0.98462264  *
    19       H          1.91146073  *   0.59875280  *   1.46941464  *

                             CARTESIAN COORDINATES

   1    C       -1.354877971    -1.346533880     0.692860587
   2    C       -1.503467158     0.101667493     0.215171532
   3    C       -2.539098569     0.828174337     1.078095036
   4    O       -2.502740715     2.025294795     1.208169789
   5    N       -0.201476464     0.796419980     0.345311137
   6    C        0.634470399     0.662696500    -0.863891256
   7    C        2.083147299     1.042700550    -0.552376635
   8    N        2.526757926     0.897383057     0.739274259
   9    O        2.831418477     1.429423891    -1.428070187
  10    H       -0.957758352    -1.388928259     1.716121803
  11    H       -2.307616183    -1.884699529     0.671780133
  12    H       -0.646019523    -1.902256775     0.065506958
  13    H       -1.886350474     0.110359778    -0.842365360
  14    H       -3.316643254     0.221782995     1.553017628
  15    H       -0.346415415     1.787022828     0.576624056
  16    H        0.285988704     1.285921141    -1.719584379
  17    H        0.631262441    -0.395110894    -1.216204925
  18    H        3.462803105     1.147109600     0.984622635
  19    H        1.911460726     0.598752804     1.469414641


           Empirical Formula: C5 H10 N2 O2  =    19 atoms



      MOLECULAR POINT GROUP   :   C1  


                  EIGENVALUES  
 -37.11199 -35.66991 -31.43600 -30.06404 -27.81591 -25.15981 -23.19694 -20.79133
 -20.28113 -18.20941 -17.73021 -17.27207 -16.13386 -15.63481 -15.21523 -15.00762
 -14.40423 -13.98976 -13.57449 -13.46639 -13.32402 -12.82782 -10.72502 -10.46472
 -10.22523  -9.83591   0.13672   1.30262   2.23666   2.42906   2.66628   3.28143
   3.55583   4.30726   4.50225   4.64143   4.76659   4.79616   5.13120   5.17832
   5.26063   5.41901   6.02053   6.20568   6.41322   7.03873


              NET ATOMIC CHARGES AND DIPOLE CONTRIBUTIONS

  ATOM NO.   TYPE          CHARGE      No. of ELECS.   s-Pop       p-Pop       
    1          C          -0.450711        4.4507     1.05597     3.39474
    2          C          -0.040720        4.0407     1.07849     2.96223
    3          C           0.318376        3.6816     1.15924     2.52238
    4          O          -0.426421        6.4264     1.87759     4.54883
    5          N          -0.546635        5.5466     1.66483     3.88181
    6          C          -0.201656        4.2017     1.07946     3.12219
    7          C           0.580407        3.4196     1.08097     2.33863
    8          N          -0.666474        5.6665     1.53580     4.13067
    9          O          -0.540373        6.5404     1.88092     4.65945
   10          H           0.163734        0.8363     0.83627
   11          H           0.144086        0.8559     0.85591
   12          H           0.159178        0.8408     0.84082
   13          H           0.145498        0.8545     0.85450
   14          H           0.119214        0.8808     0.88079
   15          H           0.285229        0.7148     0.71477
   16          H           0.156423        0.8436     0.84358
   17          H           0.168360        0.8316     0.83164
   18          H           0.311875        0.6881     0.68813
   19          H           0.320611        0.6794     0.67939
 DIPOLE           X         Y         Z       TOTAL
 POINT-CHG.    -2.925    -4.307     1.780     5.502
 HYBRID        -0.002     0.835    -0.042     0.836
 SUM           -2.927    -3.472     1.738     4.863


          ATOMIC ORBITAL ELECTRON POPULATIONS

     Atom    s        px        py        pz   
    1  C   1.05597   1.17276   1.03446   1.18752
    2  C   1.07849   0.90388   0.97150   1.08685
    3  C   1.15924   0.88109   0.87051   0.77078
    4  O   1.87759   1.73312   1.26991   1.54580
    5  N   1.66483   1.20423   1.30081   1.37677
    6  C   1.07946   0.98301   1.16727   0.97191
    7  C   1.08097   0.84982   0.72738   0.76142
    8  N   1.53580   1.24862   1.69233   1.18973
    9  O   1.88092   1.61691   1.52079   1.52176
   10  H   0.83627
   11  H   0.85591
   12  H   0.84082
   13  H   0.85450
   14  H   0.88079
   15  H   0.71477
   16  H   0.84358
   17  H   0.83164
   18  H   0.68813
   19  H   0.67939

 **********************
 *                    *
 * JOB ENDED NORMALLY *
 *                    *
 **********************



 TOTAL JOB TIME:             1.19 SECONDS

 == MOPAC DONE ==
