 *******************************************************************************
 **                                                                           **
 **                              MOPAC v23.2                                  **
 **                                                                           **
 *******************************************************************************
 **          Digital Object Identifier (DOI): 10.5281/zenodo.6511958          **
 **    Visit the DOI location for information on how to cite this program.    **
 *******************************************************************************

                              PM7 CALCULATION RESULTS

 *******************************************************************************
 *  CALCULATION DONE: (MAX THREADS = 40)             Fri Sep 19 21:35:41 2025  *
 *  PM7        - The PM7 Hamiltonian to be used
 *  EPS=37.5   - USE ANDREAS KLAMT'S COSMO IMPLICIT SOLVATION MODEL
 *  1SCF       - DO 1 SCF AND THEN STOP 
 *  T=         - A TIME OF 172800.0 SECONDS REQUESTED
 *  DUMP=N     - RESTART FILE WRITTEN EVERY 7200.0 SECONDS REQUESTED
 *  RELSCF     - DEFAULT SCF CRITERION MULTIPLIED BY 0.0001
 *              (DEFAULT SCF CRITERION = 0.00010)
 *  GRADIENTS  - ALL GRADIENTS TO BE PRINTED
 *  DISP       - PRINT DISPERSION AND HYDROGEN BOND ENERGIES
 *******************************************************************************
PM7 1SCF GRADIENTS EPS=37.5 DISP RELSCF=0.0001
 Title: ASE calculation

   ATOM   CHEMICAL          X               Y               Z
  NUMBER   SYMBOL      (ANGSTROMS)     (ANGSTROMS)     (ANGSTROMS)

     1       C          2.10347922  *   1.55295841  *   0.25827565  *
     2       C          1.58580608  *   0.12857882  *   0.45231046  *
     3       C          0.35739375  *  -0.16239375  *  -0.42222468  *
     4       C         -0.01776955  *  -1.62476241  *  -0.27638716  *
     5       O         -0.29248923  *  -2.29687620  *  -1.23841417  *
     6       C         -0.85419486  *   0.72287208  *  -0.06912170  *
     7       C         -1.31793399  *   0.56413857  *   1.37854821  *
     8       C         -2.01693625  *   0.40856269  *  -1.03044807  *
     9       O         -3.05703866  *   1.34951426  *  -0.87213377  *
    10       H          2.27355854  *   1.78203928  *  -0.79972426  *
    11       H          3.05703866  *   1.70039267  *   0.77971708  *
    12       H          1.39978796  *   2.29687620  *   0.65049283  *
    13       H          2.39117732  *  -0.59219887  *   0.20535427  *
    14       H          1.34875652  *  -0.04124592  *   1.52011307  *
    15       H          0.62987825  *   0.02994716  *  -1.49260703  *
    16       H         -0.03085818  *  -2.05207957  *   0.73213159  *
    17       H         -0.55286856  *   1.79050884  *  -0.22491012  *
    18       H         -1.55978114  *  -0.47258889  *   1.63109276  *
    19       H         -2.23156183  *   1.15209089  *   1.55429556  *
    20       H         -0.56079190  *   0.91711115  *   2.08632425  *
    21       H         -1.69499156  *   0.39684264  *  -2.08632425  *
    22       H         -2.51474277  *  -0.55132790  *  -0.79738840  *
    23       H         -2.73908829  *   2.25392687  *  -1.05616034  *



          CARTESIAN COORDINATES 

    NO.       ATOM           X           Y           Z

     1         C          2.1035      1.5530      0.2583
     2         C          1.5858      0.1286      0.4523
     3         C          0.3574     -0.1624     -0.4222
     4         C         -0.0178     -1.6248     -0.2764
     5         O         -0.2925     -2.2969     -1.2384
     6         C         -0.8542      0.7229     -0.0691
     7         C         -1.3179      0.5641      1.3785
     8         C         -2.0169      0.4086     -1.0304
     9         O         -3.0570      1.3495     -0.8721
    10         H          2.2736      1.7820     -0.7997
    11         H          3.0570      1.7004      0.7797
    12         H          1.3998      2.2969      0.6505
    13         H          2.3912     -0.5922      0.2054
    14         H          1.3488     -0.0412      1.5201
    15         H          0.6299      0.0299     -1.4926
    16         H         -0.0309     -2.0521      0.7321
    17         H         -0.5529      1.7905     -0.2249
    18         H         -1.5598     -0.4726      1.6311
    19         H         -2.2316      1.1521      1.5543
    20         H         -0.5608      0.9171      2.0863
    21         H         -1.6950      0.3968     -2.0863
    22         H         -2.5147     -0.5513     -0.7974
    23         H         -2.7391      2.2539     -1.0562

 General Reference for PM7:
 "Optimization of Parameters for Semiempirical Methods VI: More Modifications to the 
 NDDO Approximations and Re-optimization of Parameters", J. J. P. Stewart, J. Mol. Mod., 1:32, 19 (2013)
 https://link.springer.com/article/10.1007/s00894-012-1667-x

           Empirical Formula: C7 H14 O2  =    23 atoms



      MOLECULAR POINT GROUP   :   C1  


      RHF CALCULATION, NO. OF DOUBLY OCCUPIED LEVELS = 27

  SCF CRITERION =    0.1000E-07

 -------------------------------------------------------------------------------
 PM7 1SCF GRADIENTS EPS=37.5 DISP RELSCF=0.0001
 Title: ASE calculation



     1SCF WAS SPECIFIED, SO BFGS WAS NOT USED                 
     SCF FIELD WAS ACHIEVED                                   


                              PM7 CALCULATION
                                                       MOPAC v23.2 Linux
                                                       Fri Sep 19 21:35:42 2025




          FINAL HEAT OF FORMATION =       -114.11895 KCAL/MOL =    -477.47367 KJ/MOL

          TOTAL ENERGY            =     -37823.63124 KCAL/MOL = ELECTRONIC ENERGY + CORE-CORE REPULSION + SOLVATION ENERGY
          ENERGY OF ATOMS         =      37712.04263 KCAL/MOL
                              SUM =       -111.58862 KCAL/MOL
          DISPERSION ENERGY       =         -2.53033 KCAL/MOL
                              SUM =       -114.11895 KCAL/MOL = FINAL HEAT OF FORMATION

          VAN DER WAALS AREA      =        175.66 SQUARE ANGSTROMS


          TOTAL ENERGY            =      -1640.18789 EV
          ELECTRONIC ENERGY       =      -2485.52451 EV 
          CORE-CORE REPULSION     =        845.33663 EV

          DIELECTRIC ENERGY       =         -0.52806 EV
          COSMO AREA              =        175.66 SQUARE ANGSTROMS
          COSMO VOLUME            =        182.48 CUBIC ANGSTROMS

          GRADIENT NORM           =         20.92399          =       4.36295 PER ATOM
          IONIZATION POTENTIAL    =         10.435869 EV
          HOMO LUMO ENERGIES (EV) =        -10.436  0.373
          NO. OF FILLED LEVELS    =         27
          MOLECULAR WEIGHT        =        130.1864         POINT GROUP:  C1  

          MOLECULAR DIMENSIONS (Angstroms)

            Atom       Atom       Distance
            H    11    O     9     6.34300
            O     5    H    19     4.74870
            H    16    H    10     4.04911


          SCF CALCULATIONS        =          2

          WALL-CLOCK TIME         =      0.969 SECONDS
          COMPUTATION TIME        =      0.795 SECONDS

          LARGEST ATOMIC GRADIENTS

          Atom     Label                     Cartesian Gradients           Cartesian Coordinates       |Gradient|
                                           X          Y          Z        X          Y          Z

             4       C                  -3.819    -10.792    -10.093   -0.01777   -1.62476   -0.27639     15.262
             5       O                   2.697      6.349      8.770   -0.29249   -2.29688   -1.23841     11.157
            23       H                  -1.069     -4.398      0.052   -2.73909    2.25393   -1.05616      4.527
             8       C                  -0.587      3.343     -1.205   -2.01694    0.40856   -1.03045      3.601
             3       C                   0.864      2.244      1.982    0.35739   -0.16239   -0.42222      3.117
             7       C                   2.165     -0.390      1.582   -1.31793    0.56414    1.37855      2.710
             9       O                   1.542      1.858      0.774   -3.05704    1.34951   -0.87213      2.536
            16       H                   0.310      1.820     -1.204   -0.03086   -2.05208    0.73213      2.204
             6       C                   1.624      1.328     -0.134   -0.85419    0.72287   -0.06912      2.102
            15       H                  -0.621     -1.406      0.846    0.62988    0.02995   -1.49261      1.754



       FINAL  POINT  AND  DERIVATIVES

   PARAMETER     ATOM    TYPE            VALUE        GRADIENT
      1          1  C    CARTESIAN X     2.103479      0.006746  KCAL/ANGSTROM
      2          1  C    CARTESIAN Y     1.552958      1.150180  KCAL/ANGSTROM
      3          1  C    CARTESIAN Z     0.258276      0.325281  KCAL/ANGSTROM
      4          2  C    CARTESIAN X     1.585806     -0.067839  KCAL/ANGSTROM
      5          2  C    CARTESIAN Y     0.128579     -0.271512  KCAL/ANGSTROM
      6          2  C    CARTESIAN Z     0.452310      0.331607  KCAL/ANGSTROM
      7          3  C    CARTESIAN X     0.357394      0.864468  KCAL/ANGSTROM
      8          3  C    CARTESIAN Y    -0.162394      2.244366  KCAL/ANGSTROM
      9          3  C    CARTESIAN Z    -0.422225      1.982275  KCAL/ANGSTROM
     10          4  C    CARTESIAN X    -0.017770     -3.819069  KCAL/ANGSTROM
     11          4  C    CARTESIAN Y    -1.624762    -10.791782  KCAL/ANGSTROM
     12          4  C    CARTESIAN Z    -0.276387    -10.092932  KCAL/ANGSTROM
     13          5  O    CARTESIAN X    -0.292489      2.696743  KCAL/ANGSTROM
     14          5  O    CARTESIAN Y    -2.296876      6.348930  KCAL/ANGSTROM
     15          5  O    CARTESIAN Z    -1.238414      8.769551  KCAL/ANGSTROM
     16          6  C    CARTESIAN X    -0.854195      1.624071  KCAL/ANGSTROM
     17          6  C    CARTESIAN Y     0.722872      1.328442  KCAL/ANGSTROM
     18          6  C    CARTESIAN Z    -0.069122     -0.133703  KCAL/ANGSTROM
     19          7  C    CARTESIAN X    -1.317934      2.165313  KCAL/ANGSTROM
     20          7  C    CARTESIAN Y     0.564139     -0.389719  KCAL/ANGSTROM
     21          7  C    CARTESIAN Z     1.378548      1.581991  KCAL/ANGSTROM
     22          8  C    CARTESIAN X    -2.016936     -0.586963  KCAL/ANGSTROM
     23          8  C    CARTESIAN Y     0.408563      3.342518  KCAL/ANGSTROM
     24          8  C    CARTESIAN Z    -1.030448     -1.204562  KCAL/ANGSTROM
     25          9  O    CARTESIAN X    -3.057039      1.542070  KCAL/ANGSTROM
     26          9  O    CARTESIAN Y     1.349514      1.858120  KCAL/ANGSTROM
     27          9  O    CARTESIAN Z    -0.872134      0.774318  KCAL/ANGSTROM
     28         10  H    CARTESIAN X     2.273559      0.128227  KCAL/ANGSTROM
     29         10  H    CARTESIAN Y     1.782039     -0.344186  KCAL/ANGSTROM
     30         10  H    CARTESIAN Z    -0.799724      0.412246  KCAL/ANGSTROM
     31         11  H    CARTESIAN X     3.057039      0.054590  KCAL/ANGSTROM
     32         11  H    CARTESIAN Y     1.700393     -0.235067  KCAL/ANGSTROM
     33         11  H    CARTESIAN Z     0.779717     -0.264037  KCAL/ANGSTROM
     34         12  H    CARTESIAN X     1.399788     -0.145092  KCAL/ANGSTROM
     35         12  H    CARTESIAN Y     2.296876     -0.251009  KCAL/ANGSTROM
     36         12  H    CARTESIAN Z     0.650493      0.161333  KCAL/ANGSTROM
     37         13  H    CARTESIAN X     2.391177     -0.573243  KCAL/ANGSTROM
     38         13  H    CARTESIAN Y    -0.592199      0.667418  KCAL/ANGSTROM
     39         13  H    CARTESIAN Z     0.205354     -0.135023  KCAL/ANGSTROM
     40         14  H    CARTESIAN X     1.348757      0.028637  KCAL/ANGSTROM
     41         14  H    CARTESIAN Y    -0.041246      0.345096  KCAL/ANGSTROM
     42         14  H    CARTESIAN Z     1.520113     -1.011497  KCAL/ANGSTROM
     43         15  H    CARTESIAN X     0.629878     -0.621456  KCAL/ANGSTROM
     44         15  H    CARTESIAN Y     0.029947     -1.405548  KCAL/ANGSTROM
     45         15  H    CARTESIAN Z    -1.492607      0.845983  KCAL/ANGSTROM
     46         16  H    CARTESIAN X    -0.030858      0.310363  KCAL/ANGSTROM
     47         16  H    CARTESIAN Y    -2.052080      1.820143  KCAL/ANGSTROM
     48         16  H    CARTESIAN Z     0.732132     -1.203860  KCAL/ANGSTROM
     49         17  H    CARTESIAN X    -0.552869     -0.185480  KCAL/ANGSTROM
     50         17  H    CARTESIAN Y     1.790509     -0.814878  KCAL/ANGSTROM
     51         17  H    CARTESIAN Z    -0.224910      0.406311  KCAL/ANGSTROM
     52         18  H    CARTESIAN X    -1.559781     -0.455816  KCAL/ANGSTROM
     53         18  H    CARTESIAN Y    -0.472589      0.730232  KCAL/ANGSTROM
     54         18  H    CARTESIAN Z     1.631093     -0.449888  KCAL/ANGSTROM
     55         19  H    CARTESIAN X    -2.231562     -0.785226  KCAL/ANGSTROM
     56         19  H    CARTESIAN Y     1.152091     -0.024128  KCAL/ANGSTROM
     57         19  H    CARTESIAN Z     1.554296     -0.359891  KCAL/ANGSTROM
     58         20  H    CARTESIAN X    -0.560792     -0.423695  KCAL/ANGSTROM
     59         20  H    CARTESIAN Y     0.917111      0.085614  KCAL/ANGSTROM
     60         20  H    CARTESIAN Z     2.086324     -0.751212  KCAL/ANGSTROM
     61         21  H    CARTESIAN X    -1.694992     -0.245203  KCAL/ANGSTROM
     62         21  H    CARTESIAN Y     0.396843     -1.492909  KCAL/ANGSTROM
     63         21  H    CARTESIAN Z    -2.086324      0.680428  KCAL/ANGSTROM
     64         22  H    CARTESIAN X    -2.514743     -0.443182  KCAL/ANGSTROM
     65         22  H    CARTESIAN Y    -0.551328      0.498054  KCAL/ANGSTROM
     66         22  H    CARTESIAN Z    -0.797388     -0.716292  KCAL/ANGSTROM
     67         23  H    CARTESIAN X    -2.739088     -1.068963  KCAL/ANGSTROM
     68         23  H    CARTESIAN Y     2.253927     -4.398378  KCAL/ANGSTROM
     69         23  H    CARTESIAN Z    -1.056160      0.051574  KCAL/ANGSTROM




   ATOM   CHEMICAL          X               Y               Z
  NUMBER   SYMBOL      (ANGSTROMS)     (ANGSTROMS)     (ANGSTROMS)

     1       C          2.10347922  *   1.55295841  *   0.25827565  *
     2       C          1.58580608  *   0.12857882  *   0.45231046  *
     3       C          0.35739375  *  -0.16239375  *  -0.42222468  *
     4       C         -0.01776955  *  -1.62476241  *  -0.27638716  *
     5       O         -0.29248923  *  -2.29687620  *  -1.23841417  *
     6       C         -0.85419486  *   0.72287208  *  -0.06912170  *
     7       C         -1.31793399  *   0.56413857  *   1.37854821  *
     8       C         -2.01693625  *   0.40856269  *  -1.03044807  *
     9       O         -3.05703866  *   1.34951426  *  -0.87213377  *
    10       H          2.27355854  *   1.78203928  *  -0.79972426  *
    11       H          3.05703866  *   1.70039267  *   0.77971708  *
    12       H          1.39978796  *   2.29687620  *   0.65049283  *
    13       H          2.39117732  *  -0.59219887  *   0.20535427  *
    14       H          1.34875652  *  -0.04124592  *   1.52011307  *
    15       H          0.62987825  *   0.02994716  *  -1.49260703  *
    16       H         -0.03085818  *  -2.05207957  *   0.73213159  *
    17       H         -0.55286856  *   1.79050884  *  -0.22491012  *
    18       H         -1.55978114  *  -0.47258889  *   1.63109276  *
    19       H         -2.23156183  *   1.15209089  *   1.55429556  *
    20       H         -0.56079190  *   0.91711115  *   2.08632425  *
    21       H         -1.69499156  *   0.39684264  *  -2.08632425  *
    22       H         -2.51474277  *  -0.55132790  *  -0.79738840  *
    23       H         -2.73908829  *   2.25392687  *  -1.05616034  *

                             CARTESIAN COORDINATES

   1    C        2.103479223     1.552958408     0.258275654
   2    C        1.585806080     0.128578820     0.452310455
   3    C        0.357393751    -0.162393747    -0.422224678
   4    C       -0.017769553    -1.624762407    -0.276387155
   5    O       -0.292489233    -2.296876205    -1.238414167
   6    C       -0.854194858     0.722872078    -0.069121698
   7    C       -1.317933986     0.564138568     1.378548209
   8    C       -2.016936247     0.408562689    -1.030448065
   9    O       -3.057038658     1.349514265    -0.872133773
  10    H        2.273558537     1.782039282    -0.799724261
  11    H        3.057038658     1.700392675     0.779717084
  12    H        1.399787958     2.296876205     0.650492835
  13    H        2.391177323    -0.592198866     0.205354268
  14    H        1.348756515    -0.041245923     1.520113074
  15    H        0.629878250     0.029947157    -1.492607032
  16    H       -0.030858184    -2.052079572     0.732131594
  17    H       -0.552868561     1.790508842    -0.224910123
  18    H       -1.559781135    -0.472588891     1.631092763
  19    H       -2.231561828     1.152090886     1.554295561
  20    H       -0.560791897     0.917111148     2.086324247
  21    H       -1.694991557     0.396842636    -2.086324247
  22    H       -2.514742773    -0.551327902    -0.797388396
  23    H       -2.739088293     2.253926873    -1.056160339


           Empirical Formula: C7 H14 O2  =    23 atoms



      MOLECULAR POINT GROUP   :   C1  


                  EIGENVALUES  
 -31.53744 -30.26347 -29.09065 -26.72828 -24.71805 -23.82646 -21.53252 -20.87314
 -18.93671 -17.26897 -16.73351 -16.55031 -15.73488 -15.30375 -14.56040 -14.39261
 -14.17152 -13.95456 -13.02602 -12.97418 -12.90263 -12.50061 -11.98840 -11.73561
 -11.48213 -10.85323 -10.43587   0.37338   2.66886   3.15881   3.50914   3.79617
   4.07241   4.28717   4.37822   4.73582   5.11495   5.34747   5.41883   5.67730
   5.71302   5.81178   5.83473   5.88713   5.97856   6.10272   6.20246   6.40812
   6.99310   7.02811


              NET ATOMIC CHARGES AND DIPOLE CONTRIBUTIONS

  ATOM NO.   TYPE          CHARGE      No. of ELECS.   s-Pop       p-Pop       
    1          C          -0.444177        4.4442     1.05227     3.39191
    2          C          -0.255618        4.2556     1.05647     3.19915
    3          C          -0.250452        4.2505     1.08042     3.17003
    4          C           0.412805        3.5872     1.15923     2.42796
    5          O          -0.564399        6.5644     1.87063     4.69377
    6          C          -0.130462        4.1305     1.06789     3.06257
    7          C          -0.458466        4.4585     1.05493     3.40354
    8          C          -0.008593        4.0086     1.09219     2.91640
    9          O          -0.616510        6.6165     1.84229     4.77422
   10          H           0.150322        0.8497     0.84968
   11          H           0.147838        0.8522     0.85216
   12          H           0.150354        0.8496     0.84965
   13          H           0.146929        0.8531     0.85307
   14          H           0.150222        0.8498     0.84978
   15          H           0.176823        0.8232     0.82318
   16          H           0.138675        0.8613     0.86133
   17          H           0.160353        0.8396     0.83965
   18          H           0.151640        0.8484     0.84836
   19          H           0.158888        0.8411     0.84111
   20          H           0.153348        0.8467     0.84665
   21          H           0.130370        0.8696     0.86963
   22          H           0.147219        0.8528     0.85278
   23          H           0.352891        0.6471     0.64711
 DIPOLE           X         Y         Z       TOTAL
 POINT-CHG.     3.304     2.653     2.828     5.095
 HYBRID        -0.133     0.307    -0.257     0.421
 SUM            3.172     2.960     2.571     5.043


          ATOMIC ORBITAL ELECTRON POPULATIONS

     Atom    s        px        py        pz   
    1  C   1.05227   1.16092   1.05107   1.17992
    2  C   1.05647   1.04136   1.04536   1.11243
    3  C   1.08042   1.02043   1.01283   1.13677
    4  C   1.15923   0.60809   0.89168   0.92819
    5  O   1.87063   1.44793   1.69923   1.54661
    6  C   1.06789   0.96890   1.10054   0.99314
    7  C   1.05493   1.17059   1.18605   1.04690
    8  C   1.09219   0.89793   0.94460   1.07386
    9  O   1.84229   1.47215   1.35274   1.94932
   10  H   0.84968
   11  H   0.85216
   12  H   0.84965
   13  H   0.85307
   14  H   0.84978
   15  H   0.82318
   16  H   0.86133
   17  H   0.83965
   18  H   0.84836
   19  H   0.84111
   20  H   0.84665
   21  H   0.86963
   22  H   0.85278
   23  H   0.64711

 **********************
 *                    *
 * JOB ENDED NORMALLY *
 *                    *
 **********************



 TOTAL JOB TIME:             1.31 SECONDS

 == MOPAC DONE ==
