 *******************************************************************************
 **                                                                           **
 **                              MOPAC v23.2                                  **
 **                                                                           **
 *******************************************************************************
 **          Digital Object Identifier (DOI): 10.5281/zenodo.6511958          **
 **    Visit the DOI location for information on how to cite this program.    **
 *******************************************************************************

                              PM7 CALCULATION RESULTS

 *******************************************************************************
 *  CALCULATION DONE: (MAX THREADS = 40)             Fri Sep 19 21:33:57 2025  *
 *  PM7        - The PM7 Hamiltonian to be used
 *
 *
 *
 *                 CHARGE ON SYSTEM = +1
 *
 *
 *
 *  EPS=37.5   - USE ANDREAS KLAMT'S COSMO IMPLICIT SOLVATION MODEL
 *  1SCF       - DO 1 SCF AND THEN STOP 
 *  T=         - A TIME OF 172800.0 SECONDS REQUESTED
 *  DUMP=N     - RESTART FILE WRITTEN EVERY 7200.0 SECONDS REQUESTED
 *  RELSCF     - DEFAULT SCF CRITERION MULTIPLIED BY 0.0001
 *              (DEFAULT SCF CRITERION = 0.00010)
 *  GRADIENTS  - ALL GRADIENTS TO BE PRINTED
 *  DISP       - PRINT DISPERSION AND HYDROGEN BOND ENERGIES
 *******************************************************************************
PM7 1SCF GRADIENTS EPS=37.5 DISP RELSCF=0.0001 CHARGE=1
 Title: ASE calculation

   ATOM   CHEMICAL          X               Y               Z
  NUMBER   SYMBOL      (ANGSTROMS)     (ANGSTROMS)     (ANGSTROMS)

     1       N          0.74270664  *   2.77205393  *  -1.71666332  *
     2       C          0.88926770  *   1.63442385  *  -1.58726266  *
     3       C          1.05700820  *   0.21282800  *  -1.46063278  *
     4       C         -1.45953238  *  -1.18485096  *   1.57378419  *
     5       O         -0.86824778  *  -1.48996052  *   0.40318061  *
     6       C          1.48469846  *  -0.23373007  *  -0.03883503  *
     7       C          1.42427160  *  -1.64575874  *   0.10640264  *
     8       O          1.41331141  *  -2.77205393  *   0.20987908  *
     9       O          0.89811647  *  -0.59978143  *  -2.32084824  *
    10       H         -0.78143376  *  -0.85702382  *   2.32084824  *
    11       H         -2.51282025  *  -1.28380363  *   1.68394364  *
    12       H         -1.51551756  *  -1.85400412  *  -0.26043456  *
    13       H          0.81369797  *   0.28760488  *   0.72184532  *
    14       H          2.51282025  *   0.18853125  *   0.18607108  *



          CARTESIAN COORDINATES 

    NO.       ATOM           X           Y           Z

     1         N          0.7427      2.7721     -1.7167
     2         C          0.8893      1.6344     -1.5873
     3         C          1.0570      0.2128     -1.4606
     4         C         -1.4595     -1.1849      1.5738
     5         O         -0.8682     -1.4900      0.4032
     6         C          1.4847     -0.2337     -0.0388
     7         C          1.4243     -1.6458      0.1064
     8         O          1.4133     -2.7721      0.2099
     9         O          0.8981     -0.5998     -2.3208
    10         H         -0.7814     -0.8570      2.3208
    11         H         -2.5128     -1.2838      1.6839
    12         H         -1.5155     -1.8540     -0.2604
    13         H          0.8137      0.2876      0.7218
    14         H          2.5128      0.1885      0.1861

 General Reference for PM7:
 "Optimization of Parameters for Semiempirical Methods VI: More Modifications to the 
 NDDO Approximations and Re-optimization of Parameters", J. J. P. Stewart, J. Mol. Mod., 1:32, 19 (2013)
 https://link.springer.com/article/10.1007/s00894-012-1667-x

           Empirical Formula: C5 H5 N O3  =    14 atoms



      MOLECULAR POINT GROUP   :   C1  


          UHF CALCULATION, NO. OF ALPHA ELECTRONS =   24
                           NO. OF BETA  ELECTRONS =   23
  SCF CRITERION =    0.1000E-07

 -------------------------------------------------------------------------------
 PM7 1SCF GRADIENTS EPS=37.5 DISP RELSCF=0.0001 CHARGE=1
 Title: ASE calculation



     1SCF WAS SPECIFIED, SO BFGS WAS NOT USED                 
     SCF FIELD WAS ACHIEVED                                   


                              PM7 CALCULATION
                                                       MOPAC v23.2 Linux
                                                       Fri Sep 19 21:33:58 2025




          FINAL HEAT OF FORMATION =         74.76569 KCAL/MOL =     312.81965 KJ/MOL

          TOTAL ENERGY            =     -40262.90273 KCAL/MOL = ELECTRONIC ENERGY + CORE-CORE REPULSION + SOLVATION ENERGY
          ENERGY OF ATOMS         =      40339.25331 KCAL/MOL
                              SUM =         76.35058 KCAL/MOL
          DISPERSION ENERGY       =         -1.58489 KCAL/MOL
                              SUM =         74.76569 KCAL/MOL = FINAL HEAT OF FORMATION

          VAN DER WAALS AREA      =        165.29 SQUARE ANGSTROMS


          TOTAL ENERGY            =      -1745.96471 EV
          ELECTRONIC ENERGY       =      -2100.94004 EV 
          CORE-CORE REPULSION     =        354.97533 EV

          DIELECTRIC ENERGY       =         -3.05553 EV
          COSMO AREA              =        165.29 SQUARE ANGSTROMS
          COSMO VOLUME            =        159.01 CUBIC ANGSTROMS

          GRADIENT NORM           =         44.53475          =       11.90241 PER ATOM
          IONIZATION POTENTIAL    =          9.104696 EV
          ALPHA SOMO LUMO (EV)    =         -9.105 -1.645
          BETA  SOMO LUMO (EV)    =        -12.325 -1.645
          NO. OF ALPHA ELECTRONS  =         24
          NO. OF BETA  ELECTRONS  =         23
          MOLECULAR WEIGHT        =        127.0994         POINT GROUP:  C1  

          MOLECULAR DIMENSIONS (Angstroms)

            Atom       Atom       Distance
            H    11    N     1     6.21390
            O     8    H    11     4.02761
            O     9    H    14     3.06201


          SCF CALCULATIONS        =          2

          WALL-CLOCK TIME         =      1.500 SECONDS
          COMPUTATION TIME        =      0.770 SECONDS

          LARGEST ATOMIC GRADIENTS

          Atom     Label                     Cartesian Gradients           Cartesian Coordinates       |Gradient|
                                           X          Y          Z        X          Y          Z

             3       C                  -9.220     13.878    -25.571    1.05701    0.21283   -1.46063     30.520
             6       C                  13.823     -4.437     18.804    1.48470   -0.23373   -0.03884     23.756
             5       O                   3.489     -3.905    -10.103   -0.86825   -1.48996    0.40318     11.380
             9       O                   2.701      0.307      9.358    0.89812   -0.59978   -2.32085      9.744
             2       C                   1.969     -7.083      5.450    0.88927    1.63442   -1.58726      9.151
             4       C                  -1.558      1.996      6.627   -1.45953   -1.18485    1.57378      7.094
             8       O                  -0.476     -6.360     -0.861    1.41331   -2.77205    0.20988      6.436
             7       C                  -2.699      5.024     -0.049    1.42427   -1.64576    0.10640      5.703
            14       H                  -3.382      0.422     -2.863    2.51282    0.18853    0.18607      4.451
            13       H                  -2.518     -0.231     -3.442    0.81370    0.28760    0.72185      4.271



       FINAL  POINT  AND  DERIVATIVES

   PARAMETER     ATOM    TYPE            VALUE        GRADIENT
      1          1  N    CARTESIAN X     0.742707     -0.312836  KCAL/ANGSTROM
      2          1  N    CARTESIAN Y     2.772054     -0.869535  KCAL/ANGSTROM
      3          1  N    CARTESIAN Z    -1.716663     -0.872510  KCAL/ANGSTROM
      4          2  C    CARTESIAN X     0.889268      1.969349  KCAL/ANGSTROM
      5          2  C    CARTESIAN Y     1.634424     -7.083111  KCAL/ANGSTROM
      6          2  C    CARTESIAN Z    -1.587263      5.449589  KCAL/ANGSTROM
      7          3  C    CARTESIAN X     1.057008     -9.220096  KCAL/ANGSTROM
      8          3  C    CARTESIAN Y     0.212828     13.878056  KCAL/ANGSTROM
      9          3  C    CARTESIAN Z    -1.460633    -25.571053  KCAL/ANGSTROM
     10          4  C    CARTESIAN X    -1.459532     -1.557544  KCAL/ANGSTROM
     11          4  C    CARTESIAN Y    -1.184851      1.995784  KCAL/ANGSTROM
     12          4  C    CARTESIAN Z     1.573784      6.627316  KCAL/ANGSTROM
     13          5  O    CARTESIAN X    -0.868248      3.488665  KCAL/ANGSTROM
     14          5  O    CARTESIAN Y    -1.489961     -3.905061  KCAL/ANGSTROM
     15          5  O    CARTESIAN Z     0.403181    -10.103482  KCAL/ANGSTROM
     16          6  C    CARTESIAN X     1.484698     13.823420  KCAL/ANGSTROM
     17          6  C    CARTESIAN Y    -0.233730     -4.436605  KCAL/ANGSTROM
     18          6  C    CARTESIAN Z    -0.038835     18.803816  KCAL/ANGSTROM
     19          7  C    CARTESIAN X     1.424272     -2.699360  KCAL/ANGSTROM
     20          7  C    CARTESIAN Y    -1.645759      5.023549  KCAL/ANGSTROM
     21          7  C    CARTESIAN Z     0.106403     -0.049000  KCAL/ANGSTROM
     22          8  O    CARTESIAN X     1.413311     -0.476428  KCAL/ANGSTROM
     23          8  O    CARTESIAN Y    -2.772054     -6.360479  KCAL/ANGSTROM
     24          8  O    CARTESIAN Z     0.209879     -0.860754  KCAL/ANGSTROM
     25          9  O    CARTESIAN X     0.898116      2.700857  KCAL/ANGSTROM
     26          9  O    CARTESIAN Y    -0.599781      0.306774  KCAL/ANGSTROM
     27          9  O    CARTESIAN Z    -2.320848      9.357607  KCAL/ANGSTROM
     28         10  H    CARTESIAN X    -0.781434     -1.081633  KCAL/ANGSTROM
     29         10  H    CARTESIAN Y    -0.857024     -0.365714  KCAL/ANGSTROM
     30         10  H    CARTESIAN Z     2.320848      0.100125  KCAL/ANGSTROM
     31         11  H    CARTESIAN X    -2.512820     -1.669454  KCAL/ANGSTROM
     32         11  H    CARTESIAN Y    -1.283804      0.137999  KCAL/ANGSTROM
     33         11  H    CARTESIAN Z     1.683944      0.641619  KCAL/ANGSTROM
     34         12  H    CARTESIAN X    -1.515518      0.935409  KCAL/ANGSTROM
     35         12  H    CARTESIAN Y    -1.854004      1.487632  KCAL/ANGSTROM
     36         12  H    CARTESIAN Z    -0.260435      2.781111  KCAL/ANGSTROM
     37         13  H    CARTESIAN X     0.813698     -2.518466  KCAL/ANGSTROM
     38         13  H    CARTESIAN Y     0.287605     -0.231022  KCAL/ANGSTROM
     39         13  H    CARTESIAN Z     0.721845     -3.441631  KCAL/ANGSTROM
     40         14  H    CARTESIAN X     2.512820     -3.381884  KCAL/ANGSTROM
     41         14  H    CARTESIAN Y     0.188531      0.421729  KCAL/ANGSTROM
     42         14  H    CARTESIAN Z     0.186071     -2.862758  KCAL/ANGSTROM




   ATOM   CHEMICAL          X               Y               Z
  NUMBER   SYMBOL      (ANGSTROMS)     (ANGSTROMS)     (ANGSTROMS)

     1       N          0.74270664  *   2.77205393  *  -1.71666332  *
     2       C          0.88926770  *   1.63442385  *  -1.58726266  *
     3       C          1.05700820  *   0.21282800  *  -1.46063278  *
     4       C         -1.45953238  *  -1.18485096  *   1.57378419  *
     5       O         -0.86824778  *  -1.48996052  *   0.40318061  *
     6       C          1.48469846  *  -0.23373007  *  -0.03883503  *
     7       C          1.42427160  *  -1.64575874  *   0.10640264  *
     8       O          1.41331141  *  -2.77205393  *   0.20987908  *
     9       O          0.89811647  *  -0.59978143  *  -2.32084824  *
    10       H         -0.78143376  *  -0.85702382  *   2.32084824  *
    11       H         -2.51282025  *  -1.28380363  *   1.68394364  *
    12       H         -1.51551756  *  -1.85400412  *  -0.26043456  *
    13       H          0.81369797  *   0.28760488  *   0.72184532  *
    14       H          2.51282025  *   0.18853125  *   0.18607108  *

                             CARTESIAN COORDINATES

   1    N        0.742706636     2.772053928    -1.716663321
   2    C        0.889267697     1.634423853    -1.587262657
   3    C        1.057008200     0.212828005    -1.460632778
   4    C       -1.459532379    -1.184850959     1.573784186
   5    O       -0.868247782    -1.489960517     0.403180607
   6    C        1.484698456    -0.233730071    -0.038835029
   7    C        1.424271601    -1.645758736     0.106402639
   8    O        1.413311412    -2.772053928     0.209879082
   9    O        0.898116467    -0.599781432    -2.320848236
  10    H       -0.781433757    -0.857023818     2.320848236
  11    H       -2.512820252    -1.283803635     1.683943636
  12    H       -1.515517556    -1.854004124    -0.260434556
  13    H        0.813697967     0.287604880     0.721845319
  14    H        2.512820252     0.188531247     0.186071085


           Empirical Formula: C5 H5 N O3  =    14 atoms



      MOLECULAR POINT GROUP   :   C1  


          ALPHA EIGENVALUES  
 -36.62056 -36.09801 -33.54628 -30.75180 -29.72586 -25.81695 -23.36660 -21.40248
 -19.59901 -18.89062 -18.26225 -17.70080 -17.37254 -16.78672 -16.16696 -15.86538
 -15.07697 -14.91141 -14.51401 -14.47550 -14.20566 -13.26077 -12.32524  -9.10470
  -1.64506  -1.52396  -1.23401  -0.14882   0.14650   0.72274   0.95763   1.85521
   2.44372   2.78525   3.18241   3.51122   4.36739   4.49673   5.15811   5.64171
   6.11154


           BETA EIGENVALUES 
 -36.62185 -36.09806 -33.54608 -30.30552 -29.71608 -25.81689 -22.96767 -21.40111
 -19.59305 -18.79947 -18.17133 -17.69937 -17.37205 -16.77779 -16.16437 -15.67286
 -15.07447 -14.81733 -14.50986 -14.25033 -13.68966 -13.07522 -12.32503  -1.64501
  -1.52353  -1.22881  -0.14882   0.14629   0.72120   0.78930   0.95784   1.85628
   2.68253   2.91465   3.18289   3.51448   4.36946   4.49676   5.31339   5.87215
   6.29327


              NET ATOMIC CHARGES AND DIPOLE CONTRIBUTIONS

  ATOM NO.   TYPE          CHARGE      No. of ELECS.   s-Pop       p-Pop       
    1          N          -0.167372        5.1674     1.82425     3.34312
    2          C           0.063083        3.9369     1.12229     2.81463
    3          C           0.543729        3.4563     1.08497     2.37130
    4          C          -0.135386        4.1354     1.13523     3.00015
    5          O          -0.562753        6.5628     1.82063     4.74213
    6          C          -0.432673        4.4327     1.07977     3.35290
    7          C           0.632895        3.3671     1.19374     2.17337
    8          O           0.103397        5.8966     1.86729     4.02931
    9          O          -0.349260        6.3493     1.87699     4.47227
   10          H           0.156945        0.8431     0.84305
   11          H           0.150739        0.8493     0.84926
   12          H           0.401773        0.5982     0.59823
   13          H           0.292680        0.7073     0.70732
   14          H           0.302202        0.6978     0.69780
 DIPOLE           X         Y         Z       TOTAL
 POINT-CHG.     2.876    -3.584     5.527     7.187
 HYBRID         0.005    -1.409    -0.414     1.469
 SUM            2.881    -4.993     5.112     7.705


          ATOMIC ORBITAL ELECTRON POPULATIONS

     Atom    s        px        py        pz   
    1  N   1.82425   1.04253   1.22920   1.07139
    2  C   1.12229   0.94476   0.93773   0.93214
    3  C   1.08497   0.69680   0.84687   0.82763
    4  C   1.13523   1.06096   1.10092   0.83827
    5  O   1.82063   1.54389   1.80679   1.39145
    6  C   1.07977   1.27382   0.93939   1.13970
    7  C   1.19374   0.64058   0.88090   0.65189
    8  O   1.86729   1.43020   1.20255   1.39656
    9  O   1.87699   1.39106   1.56348   1.51773
   10  H   0.84305
   11  H   0.84926
   12  H   0.59823
   13  H   0.70732
   14  H   0.69780


                    (SZ)    =    0.500000
                    (S**2)  =    0.751869


          ATOMIC ORBITAL SPIN POPULATIONS

    Atom   Total    s     px     py     pz   
         Atomic
    1  N -0.0000 -0.000 -0.000 -0.000 -0.000
    2  C  0.0000  0.000  0.000  0.000  0.000
    3  C -0.0000  0.000 -0.000 -0.000 -0.000
    4  C  0.9441  0.022  0.038  0.782  0.102
    5  O  0.1135  0.005 -0.003  0.106  0.006
    6  C -0.0001 -0.000 -0.000 -0.000 -0.000
    7  C  0.0002  0.000  0.000  0.000  0.000
    8  O -0.0004 -0.000 -0.000  0.000 -0.000
    9  O  0.0000  0.000  0.000  0.000  0.000
   10  H -0.0260 -0.026
   11  H -0.0265 -0.027
   12  H -0.0047 -0.005
   13  H  0.0000  0.000
   14  H -0.0000 -0.000

 **********************
 *                    *
 * JOB ENDED NORMALLY *
 *                    *
 **********************



 TOTAL JOB TIME:             2.01 SECONDS

 == MOPAC DONE ==
