 *******************************************************************************
 **                                                                           **
 **                              MOPAC v23.2                                  **
 **                                                                           **
 *******************************************************************************
 **          Digital Object Identifier (DOI): 10.5281/zenodo.6511958          **
 **    Visit the DOI location for information on how to cite this program.    **
 *******************************************************************************

                              PM7 CALCULATION RESULTS

 *******************************************************************************
 *  CALCULATION DONE: (MAX THREADS = 40)             Fri Sep 19 21:29:34 2025  *
 *  PM7        - The PM7 Hamiltonian to be used
 *  EPS=37.5   - USE ANDREAS KLAMT'S COSMO IMPLICIT SOLVATION MODEL
 *  1SCF       - DO 1 SCF AND THEN STOP 
 *  T=         - A TIME OF 172800.0 SECONDS REQUESTED
 *  DUMP=N     - RESTART FILE WRITTEN EVERY 7200.0 SECONDS REQUESTED
 *  RELSCF     - DEFAULT SCF CRITERION MULTIPLIED BY 0.0001
 *              (DEFAULT SCF CRITERION = 0.00010)
 *  GRADIENTS  - ALL GRADIENTS TO BE PRINTED
 *  DISP       - PRINT DISPERSION AND HYDROGEN BOND ENERGIES
 *******************************************************************************
PM7 1SCF GRADIENTS EPS=37.5 DISP RELSCF=0.0001
 Title: ASE calculation

   ATOM   CHEMICAL          X               Y               Z
  NUMBER   SYMBOL      (ANGSTROMS)     (ANGSTROMS)     (ANGSTROMS)

     1       C          2.52907216  *  -0.15113237  *   0.76683564  *
     2       C          1.09070184  *  -0.04378738  *   0.44609695  *
     3       C          0.13814375  *  -1.00529608  *   0.42975500  *
     4       C         -1.19703447  *  -0.41212918  *   0.03809381  *
     5       C         -1.71470873  *  -0.99070338  *  -1.27318148  *
     6       C         -2.22291263  *  -0.52863782  *   1.15892648  *
     7       C         -0.84110854  *   1.07966714  *  -0.17104987  *
     8       O         -1.53561564  *   2.00475060  *  -0.49206321  *
     9       N          0.53937803  *   1.21554943  *   0.09159900  *
    10       H          2.80762424  *  -1.18653501  *   1.02168713  *
    11       H          3.16420770  *   0.15107105  *  -0.08127328  *
    12       H          2.80723123  *   0.47606701  *   1.62898214  *
    13       H          0.23959988  *  -2.04315109  *   0.64799149  *
    14       H         -0.99085202  *  -0.86119212  *  -2.08741011  *
    15       H         -1.91336731  *  -2.06453956  *  -1.18022312  *
    16       H         -2.64856419  *  -0.50073696  *  -1.58067083  *
    17       H         -1.86292997  *  -0.06808010  *   2.08741011  *
    18       H         -3.16420770  *  -0.03181562  *   0.88727142  *
    19       H         -2.44847980  *  -1.57801989  *   1.38062625  *
    20       H          1.05808651  *   2.06453956  *   0.03855443  *



          CARTESIAN COORDINATES 

    NO.       ATOM           X           Y           Z

     1         C          2.5291     -0.1511      0.7668
     2         C          1.0907     -0.0438      0.4461
     3         C          0.1381     -1.0053      0.4298
     4         C         -1.1970     -0.4121      0.0381
     5         C         -1.7147     -0.9907     -1.2732
     6         C         -2.2229     -0.5286      1.1589
     7         C         -0.8411      1.0797     -0.1710
     8         O         -1.5356      2.0048     -0.4921
     9         N          0.5394      1.2155      0.0916
    10         H          2.8076     -1.1865      1.0217
    11         H          3.1642      0.1511     -0.0813
    12         H          2.8072      0.4761      1.6290
    13         H          0.2396     -2.0432      0.6480
    14         H         -0.9909     -0.8612     -2.0874
    15         H         -1.9134     -2.0645     -1.1802
    16         H         -2.6486     -0.5007     -1.5807
    17         H         -1.8629     -0.0681      2.0874
    18         H         -3.1642     -0.0318      0.8873
    19         H         -2.4485     -1.5780      1.3806
    20         H          1.0581      2.0645      0.0386

 General Reference for PM7:
 "Optimization of Parameters for Semiempirical Methods VI: More Modifications to the 
 NDDO Approximations and Re-optimization of Parameters", J. J. P. Stewart, J. Mol. Mod., 1:32, 19 (2013)
 https://link.springer.com/article/10.1007/s00894-012-1667-x

           Empirical Formula: C7 H11 N O  =    20 atoms



      MOLECULAR POINT GROUP   :   Cs  


      RHF CALCULATION, NO. OF DOUBLY OCCUPIED LEVELS = 25

  SCF CRITERION =    0.1000E-07

 -------------------------------------------------------------------------------
 PM7 1SCF GRADIENTS EPS=37.5 DISP RELSCF=0.0001
 Title: ASE calculation



     1SCF WAS SPECIFIED, SO BFGS WAS NOT USED                 
     SCF FIELD WAS ACHIEVED                                   


                              PM7 CALCULATION
                                                       MOPAC v23.2 Linux
                                                       Fri Sep 19 21:29:34 2025




          FINAL HEAT OF FORMATION =        -56.55862 KCAL/MOL =    -236.64127 KJ/MOL

          TOTAL ENERGY            =     -34378.42407 KCAL/MOL = ELECTRONIC ENERGY + CORE-CORE REPULSION + SOLVATION ENERGY
          ENERGY OF ATOMS         =      34323.93363 KCAL/MOL
                              SUM =        -54.49044 KCAL/MOL
          DISPERSION ENERGY       =         -2.06819 KCAL/MOL
                              SUM =        -56.55862 KCAL/MOL = FINAL HEAT OF FORMATION

          VAN DER WAALS AREA      =        167.15 SQUARE ANGSTROMS


          TOTAL ENERGY            =      -1490.78956 EV
          ELECTRONIC ENERGY       =      -2288.23651 EV 
          CORE-CORE REPULSION     =        797.44694 EV

          DIELECTRIC ENERGY       =         -0.45204 EV
          COSMO AREA              =        167.15 SQUARE ANGSTROMS
          COSMO VOLUME            =        167.49 CUBIC ANGSTROMS

          GRADIENT NORM           =         40.53976          =       9.06497 PER ATOM
          IONIZATION POTENTIAL    =          9.214137 EV
          HOMO LUMO ENERGIES (EV) =         -9.214  0.249
          NO. OF FILLED LEVELS    =         25
          MOLECULAR WEIGHT        =        125.1700         POINT GROUP:  Cs  

          MOLECULAR DIMENSIONS (Angstroms)

            Atom       Atom       Distance
            H    16    H    12     6.40482
            H    17    H    11     4.42693
            H    13    O     8     4.31878


          SCF CALCULATIONS        =          2

          WALL-CLOCK TIME         =      0.812 SECONDS
          COMPUTATION TIME        =      0.672 SECONDS

          LARGEST ATOMIC GRADIENTS

          Atom     Label                     Cartesian Gradients           Cartesian Coordinates       |Gradient|
                                           X          Y          Z        X          Y          Z

             7       C                 -24.174     16.353     -8.296   -0.84111    1.07967   -0.17105     30.342
             8       O                  10.091    -13.922      4.816   -1.53562    2.00475   -0.49206     17.856
             9       N                  16.125      0.252      3.497    0.53938    1.21555    0.09160     16.502
            20       H                  -4.101     -4.451     -0.077    1.05809    2.06454    0.03855      6.053
             1       C                   5.390      0.680      0.976    2.52907   -0.15113    0.76684      5.520
             2       C                  -3.274      3.478     -1.386    1.09070   -0.04379    0.44610      4.974
             5       C                  -0.487     -2.816     -0.514   -1.71471   -0.99070   -1.27318      2.904
             6       C                  -0.893     -2.308      1.165   -2.22291   -0.52864    1.15893      2.735
             3       C                   1.224     -2.080      0.719    0.13814   -1.00530    0.42976      2.518
             4       C                   1.806      0.665      0.249   -1.19703   -0.41213    0.03809      1.941



       FINAL  POINT  AND  DERIVATIVES

   PARAMETER     ATOM    TYPE            VALUE        GRADIENT
      1          1  C    CARTESIAN X     2.529072      5.390254  KCAL/ANGSTROM
      2          1  C    CARTESIAN Y    -0.151132      0.680254  KCAL/ANGSTROM
      3          1  C    CARTESIAN Z     0.766836      0.976398  KCAL/ANGSTROM
      4          2  C    CARTESIAN X     1.090702     -3.274380  KCAL/ANGSTROM
      5          2  C    CARTESIAN Y    -0.043787      3.477903  KCAL/ANGSTROM
      6          2  C    CARTESIAN Z     0.446097     -1.385929  KCAL/ANGSTROM
      7          3  C    CARTESIAN X     0.138144      1.223946  KCAL/ANGSTROM
      8          3  C    CARTESIAN Y    -1.005296     -2.079770  KCAL/ANGSTROM
      9          3  C    CARTESIAN Z     0.429755      0.718761  KCAL/ANGSTROM
     10          4  C    CARTESIAN X    -1.197034      1.806001  KCAL/ANGSTROM
     11          4  C    CARTESIAN Y    -0.412129      0.665048  KCAL/ANGSTROM
     12          4  C    CARTESIAN Z     0.038094      0.249466  KCAL/ANGSTROM
     13          5  C    CARTESIAN X    -1.714709     -0.487189  KCAL/ANGSTROM
     14          5  C    CARTESIAN Y    -0.990703     -2.816243  KCAL/ANGSTROM
     15          5  C    CARTESIAN Z    -1.273181     -0.514126  KCAL/ANGSTROM
     16          6  C    CARTESIAN X    -2.222913     -0.892716  KCAL/ANGSTROM
     17          6  C    CARTESIAN Y    -0.528638     -2.307993  KCAL/ANGSTROM
     18          6  C    CARTESIAN Z     1.158926      1.165209  KCAL/ANGSTROM
     19          7  C    CARTESIAN X    -0.841109    -24.173686  KCAL/ANGSTROM
     20          7  C    CARTESIAN Y     1.079667     16.352900  KCAL/ANGSTROM
     21          7  C    CARTESIAN Z    -0.171050     -8.296112  KCAL/ANGSTROM
     22          8  O    CARTESIAN X    -1.535616     10.090620  KCAL/ANGSTROM
     23          8  O    CARTESIAN Y     2.004751    -13.922377  KCAL/ANGSTROM
     24          8  O    CARTESIAN Z    -0.492063      4.815610  KCAL/ANGSTROM
     25          9  N    CARTESIAN X     0.539378     16.125097  KCAL/ANGSTROM
     26          9  N    CARTESIAN Y     1.215549      0.252078  KCAL/ANGSTROM
     27          9  N    CARTESIAN Z     0.091599      3.496955  KCAL/ANGSTROM
     28         10  H    CARTESIAN X     2.807624     -1.227622  KCAL/ANGSTROM
     29         10  H    CARTESIAN Y    -1.186535      0.238468  KCAL/ANGSTROM
     30         10  H    CARTESIAN Z     1.021687     -0.314820  KCAL/ANGSTROM
     31         11  H    CARTESIAN X     3.164208     -1.071567  KCAL/ANGSTROM
     32         11  H    CARTESIAN Y     0.151071     -0.917346  KCAL/ANGSTROM
     33         11  H    CARTESIAN Z    -0.081273      0.110647  KCAL/ANGSTROM
     34         12  H    CARTESIAN X     2.807231     -1.049885  KCAL/ANGSTROM
     35         12  H    CARTESIAN Y     0.476067     -0.956357  KCAL/ANGSTROM
     36         12  H    CARTESIAN Z     1.628982     -0.164418  KCAL/ANGSTROM
     37         13  H    CARTESIAN X     0.239600     -0.035034  KCAL/ANGSTROM
     38         13  H    CARTESIAN Y    -2.043151      1.432836  KCAL/ANGSTROM
     39         13  H    CARTESIAN Z     0.647991     -0.329254  KCAL/ANGSTROM
     40         14  H    CARTESIAN X    -0.990852     -0.225941  KCAL/ANGSTROM
     41         14  H    CARTESIAN Y    -0.861192      0.740947  KCAL/ANGSTROM
     42         14  H    CARTESIAN Z    -2.087410      0.546055  KCAL/ANGSTROM
     43         15  H    CARTESIAN X    -1.913367      0.376017  KCAL/ANGSTROM
     44         15  H    CARTESIAN Y    -2.064540      0.987028  KCAL/ANGSTROM
     45         15  H    CARTESIAN Z    -1.180223     -0.066124  KCAL/ANGSTROM
     46         16  H    CARTESIAN X    -2.648564      0.385639  KCAL/ANGSTROM
     47         16  H    CARTESIAN Y    -0.500737      0.784491  KCAL/ANGSTROM
     48         16  H    CARTESIAN Z    -1.580671      0.561020  KCAL/ANGSTROM
     49         17  H    CARTESIAN X    -1.862930      0.082856  KCAL/ANGSTROM
     50         17  H    CARTESIAN Y    -0.068080      0.418130  KCAL/ANGSTROM
     51         17  H    CARTESIAN Z     2.087410     -0.804111  KCAL/ANGSTROM
     52         18  H    CARTESIAN X    -3.164208      0.661244  KCAL/ANGSTROM
     53         18  H    CARTESIAN Y    -0.031816      0.526788  KCAL/ANGSTROM
     54         18  H    CARTESIAN Z     0.887271     -0.598349  KCAL/ANGSTROM
     55         19  H    CARTESIAN X    -2.448480      0.397750  KCAL/ANGSTROM
     56         19  H    CARTESIAN Y    -1.578020      0.894580  KCAL/ANGSTROM
     57         19  H    CARTESIAN Z     1.380626     -0.089782  KCAL/ANGSTROM
     58         20  H    CARTESIAN X     1.058087     -4.101408  KCAL/ANGSTROM
     59         20  H    CARTESIAN Y     2.064540     -4.451373  KCAL/ANGSTROM
     60         20  H    CARTESIAN Z     0.038554     -0.077101  KCAL/ANGSTROM




   ATOM   CHEMICAL          X               Y               Z
  NUMBER   SYMBOL      (ANGSTROMS)     (ANGSTROMS)     (ANGSTROMS)

     1       C          2.52907216  *  -0.15113237  *   0.76683564  *
     2       C          1.09070184  *  -0.04378738  *   0.44609695  *
     3       C          0.13814375  *  -1.00529608  *   0.42975500  *
     4       C         -1.19703447  *  -0.41212918  *   0.03809381  *
     5       C         -1.71470873  *  -0.99070338  *  -1.27318148  *
     6       C         -2.22291263  *  -0.52863782  *   1.15892648  *
     7       C         -0.84110854  *   1.07966714  *  -0.17104987  *
     8       O         -1.53561564  *   2.00475060  *  -0.49206321  *
     9       N          0.53937803  *   1.21554943  *   0.09159900  *
    10       H          2.80762424  *  -1.18653501  *   1.02168713  *
    11       H          3.16420770  *   0.15107105  *  -0.08127328  *
    12       H          2.80723123  *   0.47606701  *   1.62898214  *
    13       H          0.23959988  *  -2.04315109  *   0.64799149  *
    14       H         -0.99085202  *  -0.86119212  *  -2.08741011  *
    15       H         -1.91336731  *  -2.06453956  *  -1.18022312  *
    16       H         -2.64856419  *  -0.50073696  *  -1.58067083  *
    17       H         -1.86292997  *  -0.06808010  *   2.08741011  *
    18       H         -3.16420770  *  -0.03181562  *   0.88727142  *
    19       H         -2.44847980  *  -1.57801989  *   1.38062625  *
    20       H          1.05808651  *   2.06453956  *   0.03855443  *

                             CARTESIAN COORDINATES

   1    C        2.529072157    -0.151132366     0.766835637
   2    C        1.090701836    -0.043787382     0.446096953
   3    C        0.138143746    -1.005296080     0.429755004
   4    C       -1.197034472    -0.412129177     0.038093812
   5    C       -1.714708732    -0.990703382    -1.273181481
   6    C       -2.222912630    -0.528637823     1.158926481
   7    C       -0.841108536     1.079667142    -0.171049870
   8    O       -1.535615641     2.004750601    -0.492063206
   9    N        0.539378033     1.215549430     0.091598998
  10    H        2.807624243    -1.186535013     1.021687129
  11    H        3.164207695     0.151071048    -0.081273278
  12    H        2.807231233     0.476067009     1.628982141
  13    H        0.239599880    -2.043151093     0.647991490
  14    H       -0.990852025    -0.861192122    -2.087410114
  15    H       -1.913367306    -2.064539561    -1.180223117
  16    H       -2.648564188    -0.500736963    -1.580670830
  17    H       -1.862929974    -0.068080104     2.087410114
  18    H       -3.164207695    -0.031815615     0.887271419
  19    H       -2.448479804    -1.578019889     1.380626248
  20    H        1.058086514     2.064539561     0.038554433


           Empirical Formula: C7 H11 N O  =    20 atoms



      MOLECULAR POINT GROUP   :   Cs  


                  EIGENVALUES  
 -37.51744 -31.01595 -29.62103 -27.18204 -24.71247 -24.30652 -22.08496 -20.04178
 -19.02847 -17.37610 -16.01700 -15.53849 -15.47655 -14.68601 -14.60250 -14.19777
 -14.03822 -13.61109 -13.40828 -13.00782 -12.54492 -12.07650 -11.80842 -10.81968
  -9.21414   0.24883   1.28217   1.88480   2.73913   3.28257   3.85031   3.95697
   4.42436   4.62626   4.85797   5.10656   5.44679   5.54228   5.67114   5.69712
   5.71207   5.71718   6.38419   6.56876   6.72583   6.77365   6.87401


              NET ATOMIC CHARGES AND DIPOLE CONTRIBUTIONS

  ATOM NO.   TYPE          CHARGE      No. of ELECS.   s-Pop       p-Pop       
    1          C          -0.477111        4.4771     1.04966     3.42745
    2          C           0.232788        3.7672     1.06845     2.69876
    3          C          -0.359634        4.3596     1.08659     3.27305
    4          C           0.042805        3.9572     1.05980     2.89740
    5          C          -0.452252        4.4523     1.05528     3.39698
    6          C          -0.451993        4.4520     1.05527     3.39673
    7          C           0.599819        3.4002     1.11671     2.28347
    8          O          -0.611995        6.6120     1.86845     4.74354
    9          N          -0.582563        5.5826     1.56131     4.02125
   10          H           0.181024        0.8190     0.81898
   11          H           0.185325        0.8147     0.81468
   12          H           0.184820        0.8152     0.81518
   13          H           0.178685        0.8213     0.82131
   14          H           0.159093        0.8409     0.84091
   15          H           0.166627        0.8334     0.83337
   16          H           0.164278        0.8357     0.83572
   17          H           0.159167        0.8408     0.84083
   18          H           0.164838        0.8352     0.83516
   19          H           0.165701        0.8343     0.83430
   20          H           0.350576        0.6494     0.64942
 DIPOLE           X         Y         Z       TOTAL
 POINT-CHG.     3.552    -3.725     1.447     5.347
 HYBRID         0.262     0.959    -0.126     1.002
 SUM            3.813    -2.766     1.321     4.893


          ATOMIC ORBITAL ELECTRON POPULATIONS

     Atom    s        px        py        pz   
    1  C   1.04966   1.02120   1.21105   1.19520
    2  C   1.06845   0.94720   0.82872   0.92284
    3  C   1.08659   0.99229   1.09097   1.18979
    4  C   1.05980   0.97638   0.93310   0.98791
    5  C   1.05528   1.17029   1.17153   1.05515
    6  C   1.05527   1.10839   1.19539   1.09295
    7  C   1.11671   0.74137   0.87359   0.66851
    8  O   1.86845   1.65614   1.52360   1.56380
    9  N   1.56131   1.18946   1.18803   1.64376
   10  H   0.81898
   11  H   0.81468
   12  H   0.81518
   13  H   0.82131
   14  H   0.84091
   15  H   0.83337
   16  H   0.83572
   17  H   0.84083
   18  H   0.83516
   19  H   0.83430
   20  H   0.64942

 **********************
 *                    *
 * JOB ENDED NORMALLY *
 *                    *
 **********************



 TOTAL JOB TIME:             1.32 SECONDS

 == MOPAC DONE ==
