 *******************************************************************************
 **                                                                           **
 **                              MOPAC v23.2                                  **
 **                                                                           **
 *******************************************************************************
 **          Digital Object Identifier (DOI): 10.5281/zenodo.6511958          **
 **    Visit the DOI location for information on how to cite this program.    **
 *******************************************************************************

                              PM7 CALCULATION RESULTS

 *******************************************************************************
 *  CALCULATION DONE: (MAX THREADS = 40)             Fri Sep 19 21:31:25 2025  *
 *  PM7        - The PM7 Hamiltonian to be used
 *
 *
 *
 *                 CHARGE ON SYSTEM = +1
 *
 *
 *
 *  1SCF       - DO 1 SCF AND THEN STOP 
 *  T=         - A TIME OF 172800.0 SECONDS REQUESTED
 *  DUMP=N     - RESTART FILE WRITTEN EVERY 7200.0 SECONDS REQUESTED
 *  RELSCF     - DEFAULT SCF CRITERION MULTIPLIED BY 0.0001
 *              (DEFAULT SCF CRITERION = 0.00010)
 *  GRADIENTS  - ALL GRADIENTS TO BE PRINTED
 *  DISP       - PRINT DISPERSION AND HYDROGEN BOND ENERGIES
 *******************************************************************************
PM7 1SCF GRADIENTS DISP RELSCF=0.0001 CHARGE=1
 Title: ASE calculation

   ATOM   CHEMICAL          X               Y               Z
  NUMBER   SYMBOL      (ANGSTROMS)     (ANGSTROMS)     (ANGSTROMS)

     1       C         -1.68918554  *  -1.98929494  *   0.40163326  *
     2       C         -2.13569608  *  -0.57409424  *   0.05250325  *
     3       C         -0.97452362  *   0.32036046  *  -0.40920670  *
     4       C         -1.48755040  *   1.74961859  *  -0.71224579  *
     5       O         -1.55704656  *   2.39230844  *   0.54439866  *
     6       C          0.05718794  *   0.46000418  *   0.69455103  *
     7       C          1.41506589  *   1.18345702  *   0.47443130  *
     8       N          1.31610297  *  -0.23278963  *   0.59250591  *
     9       C          1.98964939  *  -1.42538556  *   0.30115480  *
    10       H         -2.56156863  *  -2.61122301  *   0.67056070  *
    11       H         -1.20396113  *  -2.49188168  *  -0.44242315  *
    12       H         -1.01846140  *  -2.01863504  *   1.26482857  *
    13       H         -2.90541521  *  -0.61916258  *  -0.74962091  *
    14       H         -2.65076590  *  -0.10922607  *   0.92109321  *
    15       H         -0.53034414  *  -0.10722078  *  -1.34023918  *
    16       H         -2.47158433  *   1.73177232  *  -1.21408740  *
    17       H         -0.77162617  *   2.32315481  *  -1.33166085  *
    18       H         -2.31339534  *   3.01709270  *   0.58870353  *
    19       H         -0.40465916  *   0.53742736  *   1.70981874  *
    20       H          1.69386402  *   1.64203166  *  -0.48662881  *
    21       H          1.85858408  *   1.77032269  *   1.30077621  *
    22       H          2.94032121  *  -1.51199063  *   0.89370355  *
    23       H          1.36515886  *  -2.32576915  *   0.51435885  *
    24       H          2.30473793  *  -1.47530447  *  -0.77607692  *



          CARTESIAN COORDINATES 

    NO.       ATOM           X           Y           Z

     1         C         -1.6892     -1.9893      0.4016
     2         C         -2.1357     -0.5741      0.0525
     3         C         -0.9745      0.3204     -0.4092
     4         C         -1.4876      1.7496     -0.7122
     5         O         -1.5570      2.3923      0.5444
     6         C          0.0572      0.4600      0.6946
     7         C          1.4151      1.1835      0.4744
     8         N          1.3161     -0.2328      0.5925
     9         C          1.9896     -1.4254      0.3012
    10         H         -2.5616     -2.6112      0.6706
    11         H         -1.2040     -2.4919     -0.4424
    12         H         -1.0185     -2.0186      1.2648
    13         H         -2.9054     -0.6192     -0.7496
    14         H         -2.6508     -0.1092      0.9211
    15         H         -0.5303     -0.1072     -1.3402
    16         H         -2.4716      1.7318     -1.2141
    17         H         -0.7716      2.3232     -1.3317
    18         H         -2.3134      3.0171      0.5887
    19         H         -0.4047      0.5374      1.7098
    20         H          1.6939      1.6420     -0.4866
    21         H          1.8586      1.7703      1.3008
    22         H          2.9403     -1.5120      0.8937
    23         H          1.3652     -2.3258      0.5144
    24         H          2.3047     -1.4753     -0.7761

 General Reference for PM7:
 "Optimization of Parameters for Semiempirical Methods VI: More Modifications to the 
 NDDO Approximations and Re-optimization of Parameters", J. J. P. Stewart, J. Mol. Mod., 1:32, 19 (2013)
 https://link.springer.com/article/10.1007/s00894-012-1667-x

           Empirical Formula: C7 H15 N O  =    24 atoms



      MOLECULAR POINT GROUP   :   C1  


          UHF CALCULATION, NO. OF ALPHA ELECTRONS =   27
                           NO. OF BETA  ELECTRONS =   26
  SCF CRITERION =    0.1000E-07

 -------------------------------------------------------------------------------
 PM7 1SCF GRADIENTS DISP RELSCF=0.0001 CHARGE=1
 Title: ASE calculation



     1SCF WAS SPECIFIED, SO BFGS WAS NOT USED                 
     SCF FIELD WAS ACHIEVED                                   


                              PM7 CALCULATION
                                                       MOPAC v23.2 Linux
                                                       Fri Sep 19 21:31:26 2025




          FINAL HEAT OF FORMATION =        154.12549 KCAL/MOL =     644.86105 KJ/MOL

          TOTAL ENERGY            =     -35396.59588 KCAL/MOL = ELECTRONIC ENERGY + CORE-CORE REPULSION
          ENERGY OF ATOMS         =      35553.47302 KCAL/MOL
                              SUM =        156.87714 KCAL/MOL
          DISPERSION ENERGY       =         -2.75165 KCAL/MOL
                              SUM =        154.12549 KCAL/MOL = FINAL HEAT OF FORMATION



          TOTAL ENERGY            =      -1534.94167 EV
          ELECTRONIC ENERGY       =      -8239.11257 EV 
          CORE-CORE REPULSION     =       6704.17090 EV
          COSMO AREA              =        180.08 SQUARE ANGSTROMS
          COSMO VOLUME            =        186.84 CUBIC ANGSTROMS

          GRADIENT NORM           =          1.26280          =       0.25777 PER ATOM
          IONIZATION POTENTIAL    =         14.276280 EV
          ALPHA SOMO LUMO (EV)    =        -14.278 -4.532
          BETA  SOMO LUMO (EV)    =        -14.276 -6.339
          NO. OF ALPHA ELECTRONS  =         27
          NO. OF BETA  ELECTRONS  =         26
          MOLECULAR WEIGHT        =        129.2016         POINT GROUP:  C1  

          MOLECULAR DIMENSIONS (Angstroms)

            Atom       Atom       Distance
            H    22    H    18     6.94314
            H    10    H    21     6.23446
            H    19    H    17     3.06950


          SCF CALCULATIONS        =          1

          WALL-CLOCK TIME         =      1.008 SECONDS
          COMPUTATION TIME        =      0.430 SECONDS

          LARGEST ATOMIC GRADIENTS

          Atom     Label                     Cartesian Gradients           Cartesian Coordinates       |Gradient|
                                           X          Y          Z        X          Y          Z

            10       H                  -0.382     -0.042      0.246   -2.56157   -2.61122    0.67056      0.456
            20       H                  -0.197      0.138      0.320    1.69386    1.64203   -0.48663      0.400
            24       H                  -0.155      0.160     -0.323    2.30474   -1.47530   -0.77608      0.392
             7       C                   0.176     -0.299      0.072    1.41507    1.18346    0.47443      0.354
             6       C                  -0.010      0.292      0.130    0.05719    0.46000    0.69455      0.320
            13       H                   0.023     -0.116     -0.280   -2.90542   -0.61916   -0.74962      0.304
            18       H                  -0.287      0.091     -0.017   -2.31340    3.01709    0.58870      0.302
            21       H                  -0.065     -0.263     -0.046    1.85858    1.77032    1.30078      0.275
            19       H                  -0.134      0.197      0.087   -0.40466    0.53743    1.70982      0.254
            11       H                   0.128     -0.195     -0.038   -1.20396   -2.49188   -0.44242      0.236



       FINAL  POINT  AND  DERIVATIVES

   PARAMETER     ATOM    TYPE            VALUE        GRADIENT
      1          1  C    CARTESIAN X    -1.689186     -0.066007  KCAL/ANGSTROM
      2          1  C    CARTESIAN Y    -1.989295     -0.143143  KCAL/ANGSTROM
      3          1  C    CARTESIAN Z     0.401633      0.073749  KCAL/ANGSTROM
      4          2  C    CARTESIAN X    -2.135696      0.003591  KCAL/ANGSTROM
      5          2  C    CARTESIAN Y    -0.574094      0.024128  KCAL/ANGSTROM
      6          2  C    CARTESIAN Z     0.052503     -0.023304  KCAL/ANGSTROM
      7          3  C    CARTESIAN X    -0.974524      0.141003  KCAL/ANGSTROM
      8          3  C    CARTESIAN Y     0.320360      0.036714  KCAL/ANGSTROM
      9          3  C    CARTESIAN Z    -0.409207      0.004378  KCAL/ANGSTROM
     10          4  C    CARTESIAN X    -1.487550      0.092635  KCAL/ANGSTROM
     11          4  C    CARTESIAN Y     1.749619      0.024952  KCAL/ANGSTROM
     12          4  C    CARTESIAN Z    -0.712246     -0.083072  KCAL/ANGSTROM
     13          5  O    CARTESIAN X    -1.557047      0.168816  KCAL/ANGSTROM
     14          5  O    CARTESIAN Y     2.392308     -0.059417  KCAL/ANGSTROM
     15          5  O    CARTESIAN Z     0.544399      0.092460  KCAL/ANGSTROM
     16          6  C    CARTESIAN X     0.057188     -0.009580  KCAL/ANGSTROM
     17          6  C    CARTESIAN Y     0.460004      0.291548  KCAL/ANGSTROM
     18          6  C    CARTESIAN Z     0.694551      0.130397  KCAL/ANGSTROM
     19          7  C    CARTESIAN X     1.415066      0.175577  KCAL/ANGSTROM
     20          7  C    CARTESIAN Y     1.183457     -0.298999  KCAL/ANGSTROM
     21          7  C    CARTESIAN Z     0.474431      0.072407  KCAL/ANGSTROM
     22          8  N    CARTESIAN X     1.316103     -0.164876  KCAL/ANGSTROM
     23          8  N    CARTESIAN Y    -0.232790     -0.140747  KCAL/ANGSTROM
     24          8  N    CARTESIAN Z     0.592506     -0.042442  KCAL/ANGSTROM
     25          9  C    CARTESIAN X     1.989649      0.196706  KCAL/ANGSTROM
     26          9  C    CARTESIAN Y    -1.425386     -0.045452  KCAL/ANGSTROM
     27          9  C    CARTESIAN Z     0.301155     -0.007679  KCAL/ANGSTROM
     28         10  H    CARTESIAN X    -2.561569     -0.381907  KCAL/ANGSTROM
     29         10  H    CARTESIAN Y    -2.611223     -0.041924  KCAL/ANGSTROM
     30         10  H    CARTESIAN Z     0.670561      0.245730  KCAL/ANGSTROM
     31         11  H    CARTESIAN X    -1.203961      0.127700  KCAL/ANGSTROM
     32         11  H    CARTESIAN Y    -2.491882     -0.194704  KCAL/ANGSTROM
     33         11  H    CARTESIAN Z    -0.442423     -0.037934  KCAL/ANGSTROM
     34         12  H    CARTESIAN X    -1.018461      0.038828  KCAL/ANGSTROM
     35         12  H    CARTESIAN Y    -2.018635     -0.054553  KCAL/ANGSTROM
     36         12  H    CARTESIAN Z     1.264829      0.169141  KCAL/ANGSTROM
     37         13  H    CARTESIAN X    -2.905415      0.023444  KCAL/ANGSTROM
     38         13  H    CARTESIAN Y    -0.619163     -0.115769  KCAL/ANGSTROM
     39         13  H    CARTESIAN Z    -0.749621     -0.279862  KCAL/ANGSTROM
     40         14  H    CARTESIAN X    -2.650766      0.089477  KCAL/ANGSTROM
     41         14  H    CARTESIAN Y    -0.109226      0.097449  KCAL/ANGSTROM
     42         14  H    CARTESIAN Z     0.921093      0.175272  KCAL/ANGSTROM
     43         15  H    CARTESIAN X    -0.530344      0.002377  KCAL/ANGSTROM
     44         15  H    CARTESIAN Y    -0.107221      0.051684  KCAL/ANGSTROM
     45         15  H    CARTESIAN Z    -1.340239     -0.198839  KCAL/ANGSTROM
     46         16  H    CARTESIAN X    -2.471584     -0.029110  KCAL/ANGSTROM
     47         16  H    CARTESIAN Y     1.731772      0.101107  KCAL/ANGSTROM
     48         16  H    CARTESIAN Z    -1.214087     -0.099125  KCAL/ANGSTROM
     49         17  H    CARTESIAN X    -0.771626      0.085988  KCAL/ANGSTROM
     50         17  H    CARTESIAN Y     2.323155      0.034361  KCAL/ANGSTROM
     51         17  H    CARTESIAN Z    -1.331661     -0.193504  KCAL/ANGSTROM
     52         18  H    CARTESIAN X    -2.313395     -0.286837  KCAL/ANGSTROM
     53         18  H    CARTESIAN Y     3.017093      0.091244  KCAL/ANGSTROM
     54         18  H    CARTESIAN Z     0.588704     -0.017396  KCAL/ANGSTROM
     55         19  H    CARTESIAN X    -0.404659     -0.133785  KCAL/ANGSTROM
     56         19  H    CARTESIAN Y     0.537427      0.196919  KCAL/ANGSTROM
     57         19  H    CARTESIAN Z     1.709819      0.087147  KCAL/ANGSTROM
     58         20  H    CARTESIAN X     1.693864     -0.196800  KCAL/ANGSTROM
     59         20  H    CARTESIAN Y     1.642032      0.138343  KCAL/ANGSTROM
     60         20  H    CARTESIAN Z    -0.486629      0.320095  KCAL/ANGSTROM
     61         21  H    CARTESIAN X     1.858584     -0.064784  KCAL/ANGSTROM
     62         21  H    CARTESIAN Y     1.770323     -0.263213  KCAL/ANGSTROM
     63         21  H    CARTESIAN Z     1.300776     -0.046161  KCAL/ANGSTROM
     64         22  H    CARTESIAN X     2.940321      0.158279  KCAL/ANGSTROM
     65         22  H    CARTESIAN Y    -1.511991     -0.020255  KCAL/ANGSTROM
     66         22  H    CARTESIAN Z     0.893704     -0.007597  KCAL/ANGSTROM
     67         23  H    CARTESIAN X     1.365159      0.184742  KCAL/ANGSTROM
     68         23  H    CARTESIAN Y    -2.325769      0.129778  KCAL/ANGSTROM
     69         23  H    CARTESIAN Z     0.514359     -0.010943  KCAL/ANGSTROM
     70         24  H    CARTESIAN X     2.304738     -0.155477  KCAL/ANGSTROM
     71         24  H    CARTESIAN Y    -1.475304      0.159948  KCAL/ANGSTROM
     72         24  H    CARTESIAN Z    -0.776077     -0.322923  KCAL/ANGSTROM




   ATOM   CHEMICAL          X               Y               Z
  NUMBER   SYMBOL      (ANGSTROMS)     (ANGSTROMS)     (ANGSTROMS)

     1       C         -1.68918554  *  -1.98929494  *   0.40163326  *
     2       C         -2.13569608  *  -0.57409424  *   0.05250325  *
     3       C         -0.97452362  *   0.32036046  *  -0.40920670  *
     4       C         -1.48755040  *   1.74961859  *  -0.71224579  *
     5       O         -1.55704656  *   2.39230844  *   0.54439866  *
     6       C          0.05718794  *   0.46000418  *   0.69455103  *
     7       C          1.41506589  *   1.18345702  *   0.47443130  *
     8       N          1.31610297  *  -0.23278963  *   0.59250591  *
     9       C          1.98964939  *  -1.42538556  *   0.30115480  *
    10       H         -2.56156863  *  -2.61122301  *   0.67056070  *
    11       H         -1.20396113  *  -2.49188168  *  -0.44242315  *
    12       H         -1.01846140  *  -2.01863504  *   1.26482857  *
    13       H         -2.90541521  *  -0.61916258  *  -0.74962091  *
    14       H         -2.65076590  *  -0.10922607  *   0.92109321  *
    15       H         -0.53034414  *  -0.10722078  *  -1.34023918  *
    16       H         -2.47158433  *   1.73177232  *  -1.21408740  *
    17       H         -0.77162617  *   2.32315481  *  -1.33166085  *
    18       H         -2.31339534  *   3.01709270  *   0.58870353  *
    19       H         -0.40465916  *   0.53742736  *   1.70981874  *
    20       H          1.69386402  *   1.64203166  *  -0.48662881  *
    21       H          1.85858408  *   1.77032269  *   1.30077621  *
    22       H          2.94032121  *  -1.51199063  *   0.89370355  *
    23       H          1.36515886  *  -2.32576915  *   0.51435885  *
    24       H          2.30473793  *  -1.47530447  *  -0.77607692  *

                             CARTESIAN COORDINATES

   1    C       -1.689185542    -1.989294943     0.401633265
   2    C       -2.135696076    -0.574094240     0.052503253
   3    C       -0.974523618     0.320360459    -0.409206702
   4    C       -1.487550401     1.749618593    -0.712245792
   5    O       -1.557046557     2.392308436     0.544398657
   6    C        0.057187941     0.460004179     0.694551034
   7    C        1.415065892     1.183457019     0.474431302
   8    N        1.316102975    -0.232789634     0.592505914
   9    C        1.989649391    -1.425385555     0.301154800
  10    H       -2.561568632    -2.611223013     0.670560704
  11    H       -1.203961131    -2.491881682    -0.442423150
  12    H       -1.018461398    -2.018635036     1.264828568
  13    H       -2.905415215    -0.619162579    -0.749620915
  14    H       -2.650765902    -0.109226070     0.921093214
  15    H       -0.530344142    -0.107220781    -1.340239178
  16    H       -2.471584327     1.731772321    -1.214087402
  17    H       -0.771626169     2.323154815    -1.331660852
  18    H       -2.313395337     3.017092696     0.588703534
  19    H       -0.404659163     0.537427363     1.709818736
  20    H        1.693864019     1.642031660    -0.486628809
  21    H        1.858584078     1.770322687     1.300776207
  22    H        2.940321208    -1.511990633     0.893703553
  23    H        1.365158858    -2.325769147     0.514358854
  24    H        2.304737926    -1.475304475    -0.776076923


           Empirical Formula: C7 H15 N O  =    24 atoms



      MOLECULAR POINT GROUP   :   C1  


          ALPHA EIGENVALUES  
 -43.69885 -34.09237 -32.79938 -31.97357 -29.17642 -27.24970 -26.69413 -25.13463
 -24.15757 -22.88102 -22.02723 -21.68014 -20.49742 -19.61121 -19.37513 -19.06167
 -18.63518 -18.00973 -17.74063 -17.15413 -16.92868 -16.49341 -16.28443 -15.65264
 -15.57317 -15.30592 -14.27764  -4.53210  -3.11672  -1.85297  -1.15702  -0.76795
  -0.59156  -0.29747  -0.17365   0.10335   0.15400   0.32624   0.71483   0.78302
   0.82809   0.85503   1.45891   1.70438   1.94780   2.04370   2.29445   2.44506
   2.59077   2.96105   3.49602


           BETA EIGENVALUES 
 -42.16208 -33.96206 -32.58658 -31.93804 -29.14780 -27.02119 -26.31317 -25.10389
 -23.79879 -22.56908 -21.55384 -21.21697 -20.32262 -19.47932 -19.11831 -19.02842
 -18.54759 -17.89379 -17.55002 -17.07123 -16.85907 -16.48300 -15.77183 -15.64537
 -15.31517 -14.27628  -6.33894  -3.86646  -2.95304  -1.68504  -1.10680  -0.72570
  -0.32789  -0.12204   0.03484   0.19636   0.25187   0.39929   0.76743   0.80937
   0.86762   0.93508   1.46360   1.70624   1.94860   2.04520   2.29458   2.44549
   2.59142   2.96182   3.49611


              NET ATOMIC CHARGES AND DIPOLE CONTRIBUTIONS

  ATOM NO.   TYPE          CHARGE      No. of ELECS.   s-Pop       p-Pop       
    1          C          -0.450607        4.4506     1.05213     3.39848
    2          C          -0.262973        4.2630     1.05979     3.20319
    3          C          -0.164739        4.1647     1.07603     3.08871
    4          C           0.004885        3.9951     1.08969     2.90542
    5          O          -0.571666        6.5717     1.84678     4.72488
    6          C           0.045936        3.9541     1.10907     2.84499
    7          C          -0.203683        4.2037     1.09613     3.10756
    8          N          -0.036068        5.0361     1.55199     3.48408
    9          C          -0.282252        4.2823     1.06738     3.21487
   10          H           0.178537        0.8215     0.82146
   11          H           0.146792        0.8532     0.85321
   12          H           0.133428        0.8666     0.86657
   13          H           0.167026        0.8330     0.83297
   14          H           0.167306        0.8327     0.83269
   15          H           0.159547        0.8405     0.84045
   16          H           0.146507        0.8535     0.85349
   17          H           0.134178        0.8658     0.86582
   18          H           0.348903        0.6511     0.65110
   19          H           0.233022        0.7670     0.76698
   20          H           0.216070        0.7839     0.78393
   21          H           0.229964        0.7700     0.77004
   22          H           0.227159        0.7728     0.77284
   23          H           0.210545        0.7895     0.78946
   24          H           0.222182        0.7778     0.77782
 DIPOLE           X         Y         Z       TOTAL
 POINT-CHG.     4.547    -1.428    -1.021     4.874
 HYBRID         0.378     0.008     0.256     0.457
 SUM            4.925    -1.420    -0.765     5.182


          ATOMIC ORBITAL ELECTRON POPULATIONS

     Atom    s        px        py        pz   
    1  C   1.05213   1.18815   1.05240   1.15792
    2  C   1.05979   1.03411   0.99532   1.17376
    3  C   1.07603   1.00844   1.05275   1.02752
    4  C   1.08969   1.12831   0.91791   0.85920
    5  O   1.84678   1.63507   1.67786   1.41195
    6  C   1.10907   0.85012   0.85450   1.14037
    7  C   1.09613   1.06079   0.83436   1.21241
    8  N   1.55199   1.22565   1.10437   1.15406
    9  C   1.06738   1.12253   0.91299   1.17936
   10  H   0.82146
   11  H   0.85321
   12  H   0.86657
   13  H   0.83297
   14  H   0.83269
   15  H   0.84045
   16  H   0.85349
   17  H   0.86582
   18  H   0.65110
   19  H   0.76698
   20  H   0.78393
   21  H   0.77004
   22  H   0.77284
   23  H   0.78946
   24  H   0.77782


                    (SZ)    =    0.500000
                    (S**2)  =    0.762480


          ATOMIC ORBITAL SPIN POPULATIONS

    Atom   Total    s     px     py     pz   
         Atomic
    1  C  0.0003  0.000  0.000  0.000  0.000
    2  C -0.0012 -0.000 -0.001 -0.000 -0.000
    3  C  0.0318  0.003  0.014  0.001  0.013
    4  C -0.0011 -0.000  0.000 -0.001 -0.000
    5  O  0.0005 -0.000  0.000 -0.000  0.001
    6  C -0.0574 -0.005 -0.015 -0.037 -0.000
    7  C -0.0516 -0.005 -0.003 -0.046  0.002
    8  N  0.9453  0.050  0.085  0.046  0.765
    9  C -0.0357 -0.006 -0.016 -0.025  0.011
   10  H -0.0000 -0.000
   11  H -0.0000 -0.000
   12  H  0.0000  0.000
   13  H  0.0007  0.001
   14  H  0.0001  0.000
   15  H -0.0020 -0.002
   16  H  0.0013  0.001
   17  H  0.0000  0.000
   18  H -0.0001 -0.000
   19  H  0.0229  0.023
   20  H  0.0259  0.026
   21  H  0.0276  0.028
   22  H  0.0337  0.034
   23  H  0.0031  0.003
   24  H  0.0561  0.056

 **********************
 *                    *
 * JOB ENDED NORMALLY *
 *                    *
 **********************



 TOTAL JOB TIME:             1.41 SECONDS

 == MOPAC DONE ==
