 *******************************************************************************
 **                                                                           **
 **                              MOPAC v23.2                                  **
 **                                                                           **
 *******************************************************************************
 **          Digital Object Identifier (DOI): 10.5281/zenodo.6511958          **
 **    Visit the DOI location for information on how to cite this program.    **
 *******************************************************************************

                              PM7 CALCULATION RESULTS

 *******************************************************************************
 *  CALCULATION DONE: (MAX THREADS = 40)             Fri Sep 19 21:42:50 2025  *
 *  PM7        - The PM7 Hamiltonian to be used
 *  EPS=37.5   - USE ANDREAS KLAMT'S COSMO IMPLICIT SOLVATION MODEL
 *  1SCF       - DO 1 SCF AND THEN STOP 
 *  T=         - A TIME OF 172800.0 SECONDS REQUESTED
 *  DUMP=N     - RESTART FILE WRITTEN EVERY 7200.0 SECONDS REQUESTED
 *  RELSCF     - DEFAULT SCF CRITERION MULTIPLIED BY 0.0001
 *              (DEFAULT SCF CRITERION = 0.00010)
 *  GRADIENTS  - ALL GRADIENTS TO BE PRINTED
 *  DISP       - PRINT DISPERSION AND HYDROGEN BOND ENERGIES
 *******************************************************************************
PM7 1SCF GRADIENTS EPS=37.5 DISP RELSCF=0.0001
 Title: ASE calculation

   ATOM   CHEMICAL          X               Y               Z
  NUMBER   SYMBOL      (ANGSTROMS)     (ANGSTROMS)     (ANGSTROMS)

     1       C          0.82937353  *  -1.90652469  *   0.73369617  *
     2       C          0.66159514  *  -0.48364028  *   0.39372950  *
     3       C          1.58677670  *   0.48645346  *   0.32626603  *
     4       C          0.92602594  *   1.77671502  *  -0.06291136  *
     5       O         -0.47327685  *   1.47152182  *  -0.21623664  *
     6       C         -0.67857468  *   0.09749981  *   0.05346149  *
     7       C         -1.57122158  *  -0.56341930  *  -1.03120094  *
     8       O         -2.64101899  *  -0.76738649  *  -0.06771569  *
     9       C         -1.89314344  *  -0.11699477  *   0.99636025  *
    10       H          0.22782822  *  -2.18586710  *   1.61422251  *
    11       H          1.87387538  *  -2.16722539  *   0.95747722  *
    12       H          0.49951157  *  -2.56082047  *  -0.08989355  *
    13       H          2.64101899  *   0.42667294  *   0.50633335  *
    14       H          1.26001795  *   2.17493175  *  -1.03590825  *
    15       H          0.98439105  *   2.56082047  *   0.71079699  *
    16       H         -1.23969934  *  -1.52644629  *  -1.42062705  *
    17       H         -1.91038641  *   0.10824502  *  -1.82531050  *
    18       H         -1.75500770  *  -0.81180338  *   1.82531050  *
    19       H         -2.40751635  *   0.79765755  *   1.30560418  *



          CARTESIAN COORDINATES 

    NO.       ATOM           X           Y           Z

     1         C          0.8294     -1.9065      0.7337
     2         C          0.6616     -0.4836      0.3937
     3         C          1.5868      0.4865      0.3263
     4         C          0.9260      1.7767     -0.0629
     5         O         -0.4733      1.4715     -0.2162
     6         C         -0.6786      0.0975      0.0535
     7         C         -1.5712     -0.5634     -1.0312
     8         O         -2.6410     -0.7674     -0.0677
     9         C         -1.8931     -0.1170      0.9964
    10         H          0.2278     -2.1859      1.6142
    11         H          1.8739     -2.1672      0.9575
    12         H          0.4995     -2.5608     -0.0899
    13         H          2.6410      0.4267      0.5063
    14         H          1.2600      2.1749     -1.0359
    15         H          0.9844      2.5608      0.7108
    16         H         -1.2397     -1.5264     -1.4206
    17         H         -1.9104      0.1082     -1.8253
    18         H         -1.7550     -0.8118      1.8253
    19         H         -2.4075      0.7977      1.3056

 General Reference for PM7:
 "Optimization of Parameters for Semiempirical Methods VI: More Modifications to the 
 NDDO Approximations and Re-optimization of Parameters", J. J. P. Stewart, J. Mol. Mod., 1:32, 19 (2013)
 https://link.springer.com/article/10.1007/s00894-012-1667-x

           Empirical Formula: C7 H10 O2  =    19 atoms



      MOLECULAR POINT GROUP   :   Cs  


      RHF CALCULATION, NO. OF DOUBLY OCCUPIED LEVELS = 25

  SCF CRITERION =    0.1000E-07

 -------------------------------------------------------------------------------
 PM7 1SCF GRADIENTS EPS=37.5 DISP RELSCF=0.0001
 Title: ASE calculation



     1SCF WAS SPECIFIED, SO BFGS WAS NOT USED                 
     SCF FIELD WAS ACHIEVED                                   


                              PM7 CALCULATION
                                                       MOPAC v23.2 Linux
                                                       Fri Sep 19 21:42:51 2025




          FINAL HEAT OF FORMATION =        -54.86001 KCAL/MOL =    -229.53428 KJ/MOL

          TOTAL ENERGY            =     -36535.40376 KCAL/MOL = ELECTRONIC ENERGY + CORE-CORE REPULSION + SOLVATION ENERGY
          ENERGY OF ATOMS         =      36482.50324 KCAL/MOL
                              SUM =        -52.90053 KCAL/MOL
          DISPERSION ENERGY       =         -1.95949 KCAL/MOL
                              SUM =        -54.86001 KCAL/MOL = FINAL HEAT OF FORMATION

          VAN DER WAALS AREA      =        158.68 SQUARE ANGSTROMS


          TOTAL ENERGY            =      -1584.32506 EV
          ELECTRONIC ENERGY       =      -2411.91067 EV 
          CORE-CORE REPULSION     =        827.58561 EV

          DIELECTRIC ENERGY       =         -0.34924 EV
          COSMO AREA              =        158.68 SQUARE ANGSTROMS
          COSMO VOLUME            =        157.61 CUBIC ANGSTROMS

          GRADIENT NORM           =          7.86511          =       1.80438 PER ATOM
          IONIZATION POTENTIAL    =          9.654949 EV
          HOMO LUMO ENERGIES (EV) =         -9.655  0.445
          NO. OF FILLED LEVELS    =         25
          MOLECULAR WEIGHT        =        126.1548         POINT GROUP:  Cs  

          MOLECULAR DIMENSIONS (Angstroms)

            Atom       Atom       Distance
            H    13    O     8     5.44566
            H    12    H    15     4.92876
            H    18    H    17     3.72470


          SCF CALCULATIONS        =          2

          WALL-CLOCK TIME         =      1.016 SECONDS
          COMPUTATION TIME        =      0.755 SECONDS

          LARGEST ATOMIC GRADIENTS

          Atom     Label                     Cartesian Gradients           Cartesian Coordinates       |Gradient|
                                           X          Y          Z        X          Y          Z

             1       C                   1.199     -3.218      0.875    0.82937   -1.90652    0.73370      3.544
             3       C                   2.688     -0.669      0.557    1.58678    0.48645    0.32627      2.825
             4       C                  -2.663      0.079     -0.383    0.92603    1.77672   -0.06291      2.692
             6       C                   0.984      1.912     -0.221   -0.67857    0.09750    0.05346      2.161
             5       O                   1.625      1.304     -0.142   -0.47328    1.47152   -0.21624      2.088
             8       O                   1.997     -0.345      0.349   -2.64102   -0.76739   -0.06772      2.056
             7       C                  -1.120     -1.232      0.844   -1.57122   -0.56342   -1.03120      1.867
             9       C                  -0.850     -1.466     -0.489   -1.89314   -0.11699    0.99636      1.764
            16       H                  -0.445      1.202      0.772   -1.23970   -1.52645   -1.42063      1.496
            18       H                  -0.154      0.731     -1.286   -1.75501   -0.81180    1.82531      1.488



       FINAL  POINT  AND  DERIVATIVES

   PARAMETER     ATOM    TYPE            VALUE        GRADIENT
      1          1  C    CARTESIAN X     0.829374      1.198597  KCAL/ANGSTROM
      2          1  C    CARTESIAN Y    -1.906525     -3.217811  KCAL/ANGSTROM
      3          1  C    CARTESIAN Z     0.733696      0.875179  KCAL/ANGSTROM
      4          2  C    CARTESIAN X     0.661595     -0.620180  KCAL/ANGSTROM
      5          2  C    CARTESIAN Y    -0.483640      0.368264  KCAL/ANGSTROM
      6          2  C    CARTESIAN Z     0.393729     -0.169299  KCAL/ANGSTROM
      7          3  C    CARTESIAN X     1.586777      2.687735  KCAL/ANGSTROM
      8          3  C    CARTESIAN Y     0.486453     -0.668619  KCAL/ANGSTROM
      9          3  C    CARTESIAN Z     0.326266      0.556789  KCAL/ANGSTROM
     10          4  C    CARTESIAN X     0.926026     -2.663208  KCAL/ANGSTROM
     11          4  C    CARTESIAN Y     1.776715      0.079297  KCAL/ANGSTROM
     12          4  C    CARTESIAN Z    -0.062911     -0.382926  KCAL/ANGSTROM
     13          5  O    CARTESIAN X    -0.473277      1.624811  KCAL/ANGSTROM
     14          5  O    CARTESIAN Y     1.471522      1.304155  KCAL/ANGSTROM
     15          5  O    CARTESIAN Z    -0.216237     -0.141879  KCAL/ANGSTROM
     16          6  C    CARTESIAN X    -0.678575      0.983573  KCAL/ANGSTROM
     17          6  C    CARTESIAN Y     0.097500      1.911549  KCAL/ANGSTROM
     18          6  C    CARTESIAN Z     0.053461     -0.221296  KCAL/ANGSTROM
     19          7  C    CARTESIAN X    -1.571222     -1.120414  KCAL/ANGSTROM
     20          7  C    CARTESIAN Y    -0.563419     -1.231589  KCAL/ANGSTROM
     21          7  C    CARTESIAN Z    -1.031201      0.844319  KCAL/ANGSTROM
     22          8  O    CARTESIAN X    -2.641019      1.996715  KCAL/ANGSTROM
     23          8  O    CARTESIAN Y    -0.767386     -0.344829  KCAL/ANGSTROM
     24          8  O    CARTESIAN Z    -0.067716      0.349313  KCAL/ANGSTROM
     25          9  C    CARTESIAN X    -1.893143     -0.849633  KCAL/ANGSTROM
     26          9  C    CARTESIAN Y    -0.116995     -1.466347  KCAL/ANGSTROM
     27          9  C    CARTESIAN Z     0.996360     -0.489428  KCAL/ANGSTROM
     28         10  H    CARTESIAN X     0.227828     -0.230684  KCAL/ANGSTROM
     29         10  H    CARTESIAN Y    -2.185867      0.879389  KCAL/ANGSTROM
     30         10  H    CARTESIAN Z     1.614223     -0.827572  KCAL/ANGSTROM
     31         11  H    CARTESIAN X     1.873875     -0.470686  KCAL/ANGSTROM
     32         11  H    CARTESIAN Y    -2.167225      0.546668  KCAL/ANGSTROM
     33         11  H    CARTESIAN Z     0.957477     -0.223547  KCAL/ANGSTROM
     34         12  H    CARTESIAN X     0.499512     -0.362123  KCAL/ANGSTROM
     35         12  H    CARTESIAN Y    -2.560820      1.152308  KCAL/ANGSTROM
     36         12  H    CARTESIAN Z    -0.089894      0.333394  KCAL/ANGSTROM
     37         13  H    CARTESIAN X     2.641019     -1.411340  KCAL/ANGSTROM
     38         13  H    CARTESIAN Y     0.426673     -0.197759  KCAL/ANGSTROM
     39         13  H    CARTESIAN Z     0.506333     -0.174573  KCAL/ANGSTROM
     40         14  H    CARTESIAN X     1.260018     -0.535884  KCAL/ANGSTROM
     41         14  H    CARTESIAN Y     2.174932     -0.458657  KCAL/ANGSTROM
     42         14  H    CARTESIAN Z    -1.035908      0.462117  KCAL/ANGSTROM
     43         15  H    CARTESIAN X     0.984391     -0.454452  KCAL/ANGSTROM
     44         15  H    CARTESIAN Y     2.560820     -0.606145  KCAL/ANGSTROM
     45         15  H    CARTESIAN Z     0.710797     -0.364911  KCAL/ANGSTROM
     46         16  H    CARTESIAN X    -1.239699     -0.444748  KCAL/ANGSTROM
     47         16  H    CARTESIAN Y    -1.526446      1.202266  KCAL/ANGSTROM
     48         16  H    CARTESIAN Z    -1.420627      0.771700  KCAL/ANGSTROM
     49         17  H    CARTESIAN X    -1.910386      0.253871  KCAL/ANGSTROM
     50         17  H    CARTESIAN Y     0.108245      0.211543  KCAL/ANGSTROM
     51         17  H    CARTESIAN Z    -1.825310      0.941745  KCAL/ANGSTROM
     52         18  H    CARTESIAN X    -1.755008     -0.153902  KCAL/ANGSTROM
     53         18  H    CARTESIAN Y    -0.811803      0.731285  KCAL/ANGSTROM
     54         18  H    CARTESIAN Z     1.825310     -1.286264  KCAL/ANGSTROM
     55         19  H    CARTESIAN X    -2.407516      0.571950  KCAL/ANGSTROM
     56         19  H    CARTESIAN Y     0.797658     -0.194969  KCAL/ANGSTROM
     57         19  H    CARTESIAN Z     1.305604     -0.852866  KCAL/ANGSTROM




   ATOM   CHEMICAL          X               Y               Z
  NUMBER   SYMBOL      (ANGSTROMS)     (ANGSTROMS)     (ANGSTROMS)

     1       C          0.82937353  *  -1.90652469  *   0.73369617  *
     2       C          0.66159514  *  -0.48364028  *   0.39372950  *
     3       C          1.58677670  *   0.48645346  *   0.32626603  *
     4       C          0.92602594  *   1.77671502  *  -0.06291136  *
     5       O         -0.47327685  *   1.47152182  *  -0.21623664  *
     6       C         -0.67857468  *   0.09749981  *   0.05346149  *
     7       C         -1.57122158  *  -0.56341930  *  -1.03120094  *
     8       O         -2.64101899  *  -0.76738649  *  -0.06771569  *
     9       C         -1.89314344  *  -0.11699477  *   0.99636025  *
    10       H          0.22782822  *  -2.18586710  *   1.61422251  *
    11       H          1.87387538  *  -2.16722539  *   0.95747722  *
    12       H          0.49951157  *  -2.56082047  *  -0.08989355  *
    13       H          2.64101899  *   0.42667294  *   0.50633335  *
    14       H          1.26001795  *   2.17493175  *  -1.03590825  *
    15       H          0.98439105  *   2.56082047  *   0.71079699  *
    16       H         -1.23969934  *  -1.52644629  *  -1.42062705  *
    17       H         -1.91038641  *   0.10824502  *  -1.82531050  *
    18       H         -1.75500770  *  -0.81180338  *   1.82531050  *
    19       H         -2.40751635  *   0.79765755  *   1.30560418  *

                             CARTESIAN COORDINATES

   1    C        0.829373526    -1.906524694     0.733696170
   2    C        0.661595136    -0.483640283     0.393729499
   3    C        1.586776702     0.486453455     0.326266027
   4    C        0.926025940     1.776715024    -0.062911356
   5    O       -0.473276854     1.471521824    -0.216236643
   6    C       -0.678574685     0.097499807     0.053461492
   7    C       -1.571221578    -0.563419304    -1.031200943
   8    O       -2.641018986    -0.767386495    -0.067715688
   9    C       -1.893143443    -0.116994768     0.996360254
  10    H        0.227828220    -2.185867101     1.614222506
  11    H        1.873875383    -2.167225391     0.957477223
  12    H        0.499511567    -2.560820466    -0.089893546
  13    H        2.641018986     0.426672940     0.506333349
  14    H        1.260017953     2.174931754    -1.035908247
  15    H        0.984391051     2.560820466     0.710796989
  16    H       -1.239699340    -1.526446287    -1.420627046
  17    H       -1.910386405     0.108245020    -1.825310499
  18    H       -1.755007702    -0.811803377     1.825310499
  19    H       -2.407516345     0.797657548     1.305604178


           Empirical Formula: C7 H10 O2  =    19 atoms



      MOLECULAR POINT GROUP   :   Cs  


                  EIGENVALUES  
 -31.83709 -30.46233 -27.89561 -26.00918 -24.70414 -23.98454 -22.56791 -20.29212
 -18.72636 -17.07849 -16.80055 -16.43657 -15.61482 -15.25373 -14.57404 -14.45461
 -13.71642 -13.61393 -13.23763 -12.83702 -12.56611 -11.90806 -10.97326 -10.54814
  -9.65495   0.44538   1.63058   1.74045   3.01545   3.47705   3.57616   3.59408
   4.00241   4.28805   4.50839   5.33097   5.41963   5.45695   5.55287   5.58310
   5.71587   5.76341   5.85165   5.85482   6.05988   6.75981


              NET ATOMIC CHARGES AND DIPOLE CONTRIBUTIONS

  ATOM NO.   TYPE          CHARGE      No. of ELECS.   s-Pop       p-Pop       
    1          C          -0.457189        4.4572     1.04513     3.41206
    2          C          -0.025855        4.0259     1.08021     2.94564
    3          C          -0.228346        4.2283     1.10205     3.12630
    4          C          -0.037232        4.0372     1.09312     2.94411
    5          O          -0.449514        6.4495     1.88292     4.56659
    6          C           0.175128        3.8249     1.09985     2.72503
    7          C          -0.074438        4.0744     1.10999     2.96445
    8          O          -0.460236        6.4602     1.90264     4.55759
    9          C          -0.075064        4.0751     1.11014     2.96493
   10          H           0.174811        0.8252     0.82519
   11          H           0.169687        0.8303     0.83031
   12          H           0.175611        0.8244     0.82439
   13          H           0.176756        0.8232     0.82324
   14          H           0.155478        0.8445     0.84452
   15          H           0.155449        0.8446     0.84455
   16          H           0.154508        0.8455     0.84549
   17          H           0.157484        0.8425     0.84252
   18          H           0.154903        0.8451     0.84510
   19          H           0.158060        0.8419     0.84194
 DIPOLE           X         Y         Z       TOTAL
 POINT-CHG.     4.284    -0.672     0.826     4.414
 HYBRID        -0.535     0.018    -0.090     0.543
 SUM            3.748    -0.655     0.736     3.876


          ATOMIC ORBITAL ELECTRON POPULATIONS

     Atom    s        px        py        pz   
    1  C   1.04513   1.19841   1.02765   1.18600
    2  C   1.08021   0.97157   0.97782   0.99625
    3  C   1.10205   1.08486   0.99582   1.04562
    4  C   1.09312   0.77936   1.02719   1.13756
    5  O   1.88292   1.32698   1.32128   1.91832
    6  C   1.09985   0.95323   0.78993   0.98187
    7  C   1.10999   0.87576   1.11709   0.97160
    8  O   1.90264   1.41316   1.82495   1.31948
    9  C   1.11014   0.93873   1.07693   0.94926
   10  H   0.82519
   11  H   0.83031
   12  H   0.82439
   13  H   0.82324
   14  H   0.84452
   15  H   0.84455
   16  H   0.84549
   17  H   0.84252
   18  H   0.84510
   19  H   0.84194

 **********************
 *                    *
 * JOB ENDED NORMALLY *
 *                    *
 **********************



 TOTAL JOB TIME:             1.52 SECONDS

 == MOPAC DONE ==
