 *******************************************************************************
 **                                                                           **
 **                              MOPAC v23.2                                  **
 **                                                                           **
 *******************************************************************************
 **          Digital Object Identifier (DOI): 10.5281/zenodo.6511958          **
 **    Visit the DOI location for information on how to cite this program.    **
 *******************************************************************************

                              PM7 CALCULATION RESULTS

 *******************************************************************************
 *  CALCULATION DONE: (MAX THREADS = 40)             Fri Sep 19 21:40:08 2025  *
 *  PM7        - The PM7 Hamiltonian to be used
 *  1SCF       - DO 1 SCF AND THEN STOP 
 *  T=         - A TIME OF 172800.0 SECONDS REQUESTED
 *  DUMP=N     - RESTART FILE WRITTEN EVERY 7200.0 SECONDS REQUESTED
 *  RELSCF     - DEFAULT SCF CRITERION MULTIPLIED BY 0.0001
 *              (DEFAULT SCF CRITERION = 0.00010)
 *  GRADIENTS  - ALL GRADIENTS TO BE PRINTED
 *  DISP       - PRINT DISPERSION AND HYDROGEN BOND ENERGIES
 *******************************************************************************
PM7 1SCF GRADIENTS DISP RELSCF=0.0001
 Title: ASE calculation

   ATOM   CHEMICAL          X               Y               Z
  NUMBER   SYMBOL      (ANGSTROMS)     (ANGSTROMS)     (ANGSTROMS)

     1       O         -0.76565111  *   2.28575155  *   0.47186236  *
     2       C         -0.78294533  *   1.09473710  *   0.39233765  *
     3       C         -2.01277889  *   0.22922816  *   0.18273744  *
     4       O         -1.56620755  *  -1.12189065  *   0.07718585  *
     5       C         -0.19757227  *  -1.20374627  *   0.21635487  *
     6       O          0.34388100  *  -2.26385943  *   0.10612460  *
     7       C          0.39831194  *   0.15771540  *   0.48329287  *
     8       C          1.51322836  *   0.47854316  *  -0.52490497  *
     9       O          2.63789244  *  -0.31792384  *  -0.25903401  *
    10       H         -2.71945043  *   0.26711864  *   1.03146657  *
    11       H         -2.55010339  *   0.45898002  *  -0.75489252  *
    12       H          0.83996513  *   0.18978359  *   1.51626845  *
    13       H          1.18395608  *   0.32528622  *  -1.56910945  *
    14       H          1.89112720  *   1.51476437  *  -0.39998805  *
    15       H          2.39748483  *  -1.27480585  *  -0.27765835  *



          CARTESIAN COORDINATES 

    NO.       ATOM           X           Y           Z

     1         O         -0.7657      2.2858      0.4719
     2         C         -0.7829      1.0947      0.3923
     3         C         -2.0128      0.2292      0.1827
     4         O         -1.5662     -1.1219      0.0772
     5         C         -0.1976     -1.2037      0.2164
     6         O          0.3439     -2.2639      0.1061
     7         C          0.3983      0.1577      0.4833
     8         C          1.5132      0.4785     -0.5249
     9         O          2.6379     -0.3179     -0.2590
    10         H         -2.7195      0.2671      1.0315
    11         H         -2.5501      0.4590     -0.7549
    12         H          0.8400      0.1898      1.5163
    13         H          1.1840      0.3253     -1.5691
    14         H          1.8911      1.5148     -0.4000
    15         H          2.3975     -1.2748     -0.2777

 General Reference for PM7:
 "Optimization of Parameters for Semiempirical Methods VI: More Modifications to the 
 NDDO Approximations and Re-optimization of Parameters", J. J. P. Stewart, J. Mol. Mod., 1:32, 19 (2013)
 https://link.springer.com/article/10.1007/s00894-012-1667-x

           Empirical Formula: C5 H6 O4  =    15 atoms



      MOLECULAR POINT GROUP   :   C1  


      RHF CALCULATION, NO. OF DOUBLY OCCUPIED LEVELS = 25

  SCF CRITERION =    0.1000E-07

 -------------------------------------------------------------------------------
 PM7 1SCF GRADIENTS DISP RELSCF=0.0001
 Title: ASE calculation



     1SCF WAS SPECIFIED, SO BFGS WAS NOT USED                 
     SCF FIELD WAS ACHIEVED                                   


                              PM7 CALCULATION
                                                       MOPAC v23.2 Linux
                                                       Fri Sep 19 21:40:09 2025




          FINAL HEAT OF FORMATION =       -158.90435 KCAL/MOL =    -664.85579 KJ/MOL

          TOTAL ENERGY            =     -43269.46388 KCAL/MOL = ELECTRONIC ENERGY + CORE-CORE REPULSION
          ENERGY OF ATOMS         =      43112.59261 KCAL/MOL
                              SUM =       -156.87128 KCAL/MOL
          DISPERSION ENERGY       =         -1.28497 KCAL/MOL
          H-BOND ENERGY           =         -0.74810 KCAL/MOL
                              SUM =       -158.90435 KCAL/MOL = FINAL HEAT OF FORMATION



          TOTAL ENERGY            =      -1876.34154 EV
          ELECTRONIC ENERGY       =      -7874.99822 EV 
          CORE-CORE REPULSION     =       5998.65668 EV
          COSMO AREA              =        145.78 SQUARE ANGSTROMS
          COSMO VOLUME            =        139.74 CUBIC ANGSTROMS

          GRADIENT NORM           =          1.15823          =       0.29905 PER ATOM
          IONIZATION POTENTIAL    =         10.953148 EV
          HOMO LUMO ENERGIES (EV) =        -10.953 -0.367
          NO. OF FILLED LEVELS    =         25
          MOLECULAR WEIGHT        =        130.1000         POINT GROUP:  C1  

          MOLECULAR DIMENSIONS (Angstroms)

            Atom       Atom       Distance
            H    10    O     9     5.54155
            O     6    O     1     4.40230
            H    11    H    12     3.00068


          SCF CALCULATIONS        =          1

          WALL-CLOCK TIME         =      0.734 SECONDS
          COMPUTATION TIME        =      0.500 SECONDS

          LARGEST ATOMIC GRADIENTS

          Atom     Label                     Cartesian Gradients           Cartesian Coordinates       |Gradient|
                                           X          Y          Z        X          Y          Z

            14       H                   0.294      0.031     -0.270    1.89113    1.51476   -0.39999      0.400
            12       H                  -0.377     -0.041      0.010    0.83997    0.18978    1.51627      0.380
            13       H                  -0.366     -0.020      0.020    1.18396    0.32529   -1.56911      0.367
             3       C                  -0.025     -0.358      0.024   -2.01278    0.22923    0.18274      0.360
            11       H                   0.177      0.191      0.228   -2.55010    0.45898   -0.75489      0.346
             7       C                   0.076      0.312     -0.123    0.39831    0.15772    0.48329      0.344
             6       O                  -0.319      0.042     -0.053    0.34388   -2.26386    0.10612      0.326
             5       C                   0.214      0.230     -0.028   -0.19757   -1.20375    0.21635      0.315
             8       C                   0.220      0.082     -0.137    1.51323    0.47854   -0.52490      0.272
             9       O                  -0.027     -0.108      0.248    2.63789   -0.31792   -0.25903      0.272



       FINAL  POINT  AND  DERIVATIVES

   PARAMETER     ATOM    TYPE            VALUE        GRADIENT
      1          1  O    CARTESIAN X    -0.765651     -0.059503  KCAL/ANGSTROM
      2          1  O    CARTESIAN Y     2.285752     -0.083378  KCAL/ANGSTROM
      3          1  O    CARTESIAN Z     0.471862      0.146258  KCAL/ANGSTROM
      4          2  C    CARTESIAN X    -0.782945     -0.195891  KCAL/ANGSTROM
      5          2  C    CARTESIAN Y     1.094737     -0.005282  KCAL/ANGSTROM
      6          2  C    CARTESIAN Z     0.392338     -0.050776  KCAL/ANGSTROM
      7          3  C    CARTESIAN X    -2.012779     -0.024889  KCAL/ANGSTROM
      8          3  C    CARTESIAN Y     0.229228     -0.358487  KCAL/ANGSTROM
      9          3  C    CARTESIAN Z     0.182737      0.024045  KCAL/ANGSTROM
     10          4  O    CARTESIAN X    -1.566208      0.166111  KCAL/ANGSTROM
     11          4  O    CARTESIAN Y    -1.121891     -0.189990  KCAL/ANGSTROM
     12          4  O    CARTESIAN Z     0.077186     -0.045321  KCAL/ANGSTROM
     13          5  C    CARTESIAN X    -0.197572      0.213943  KCAL/ANGSTROM
     14          5  C    CARTESIAN Y    -1.203746      0.229802  KCAL/ANGSTROM
     15          5  C    CARTESIAN Z     0.216355     -0.027616  KCAL/ANGSTROM
     16          6  O    CARTESIAN X     0.343881     -0.318987  KCAL/ANGSTROM
     17          6  O    CARTESIAN Y    -2.263859      0.042298  KCAL/ANGSTROM
     18          6  O    CARTESIAN Z     0.106125     -0.052692  KCAL/ANGSTROM
     19          7  C    CARTESIAN X     0.398312      0.076217  KCAL/ANGSTROM
     20          7  C    CARTESIAN Y     0.157715      0.312024  KCAL/ANGSTROM
     21          7  C    CARTESIAN Z     0.483293     -0.123440  KCAL/ANGSTROM
     22          8  C    CARTESIAN X     1.513228      0.220328  KCAL/ANGSTROM
     23          8  C    CARTESIAN Y     0.478543      0.082213  KCAL/ANGSTROM
     24          8  C    CARTESIAN Z    -0.524905     -0.137303  KCAL/ANGSTROM
     25          9  O    CARTESIAN X     2.637892     -0.027178  KCAL/ANGSTROM
     26          9  O    CARTESIAN Y    -0.317924     -0.108499  KCAL/ANGSTROM
     27          9  O    CARTESIAN Z    -0.259034      0.247531  KCAL/ANGSTROM
     28         10  H    CARTESIAN X    -2.719450      0.082403  KCAL/ANGSTROM
     29         10  H    CARTESIAN Y     0.267119     -0.014038  KCAL/ANGSTROM
     30         10  H    CARTESIAN Z     1.031467     -0.057970  KCAL/ANGSTROM
     31         11  H    CARTESIAN X    -2.550103      0.177277  KCAL/ANGSTROM
     32         11  H    CARTESIAN Y     0.458980      0.191185  KCAL/ANGSTROM
     33         11  H    CARTESIAN Z    -0.754893      0.227588  KCAL/ANGSTROM
     34         12  H    CARTESIAN X     0.839965     -0.377429  KCAL/ANGSTROM
     35         12  H    CARTESIAN Y     0.189784     -0.041331  KCAL/ANGSTROM
     36         12  H    CARTESIAN Z     1.516268      0.009870  KCAL/ANGSTROM
     37         13  H    CARTESIAN X     1.183956     -0.366015  KCAL/ANGSTROM
     38         13  H    CARTESIAN Y     0.325286     -0.020361  KCAL/ANGSTROM
     39         13  H    CARTESIAN Z    -1.569109      0.020354  KCAL/ANGSTROM
     40         14  H    CARTESIAN X     1.891127      0.293971  KCAL/ANGSTROM
     41         14  H    CARTESIAN Y     1.514764      0.031060  KCAL/ANGSTROM
     42         14  H    CARTESIAN Z    -0.399988     -0.269564  KCAL/ANGSTROM
     43         15  H    CARTESIAN X     2.397485      0.139639  KCAL/ANGSTROM
     44         15  H    CARTESIAN Y    -1.274806     -0.067229  KCAL/ANGSTROM
     45         15  H    CARTESIAN Z    -0.277658      0.089064  KCAL/ANGSTROM




   ATOM   CHEMICAL          X               Y               Z
  NUMBER   SYMBOL      (ANGSTROMS)     (ANGSTROMS)     (ANGSTROMS)

     1       O         -0.76565111  *   2.28575155  *   0.47186236  *
     2       C         -0.78294533  *   1.09473710  *   0.39233765  *
     3       C         -2.01277889  *   0.22922816  *   0.18273744  *
     4       O         -1.56620755  *  -1.12189065  *   0.07718585  *
     5       C         -0.19757227  *  -1.20374627  *   0.21635487  *
     6       O          0.34388100  *  -2.26385943  *   0.10612460  *
     7       C          0.39831194  *   0.15771540  *   0.48329287  *
     8       C          1.51322836  *   0.47854316  *  -0.52490497  *
     9       O          2.63789244  *  -0.31792384  *  -0.25903401  *
    10       H         -2.71945043  *   0.26711864  *   1.03146657  *
    11       H         -2.55010339  *   0.45898002  *  -0.75489252  *
    12       H          0.83996513  *   0.18978359  *   1.51626845  *
    13       H          1.18395608  *   0.32528622  *  -1.56910945  *
    14       H          1.89112720  *   1.51476437  *  -0.39998805  *
    15       H          2.39748483  *  -1.27480585  *  -0.27765835  *

                             CARTESIAN COORDINATES

   1    O       -0.765651113     2.285751548     0.471862360
   2    C       -0.782945333     1.094737105     0.392337650
   3    C       -2.012778889     0.229228160     0.182737438
   4    O       -1.566207552    -1.121890653     0.077185852
   5    C       -0.197572268    -1.203746269     0.216354866
   6    O        0.343880998    -2.263859433     0.106124598
   7    C        0.398311943     0.157715403     0.483292873
   8    C        1.513228357     0.478543158    -0.524904967
   9    O        2.637892437    -0.317923837    -0.259034008
  10    H       -2.719450433     0.267118642     1.031466575
  11    H       -2.550103389     0.458980024    -0.754892517
  12    H        0.839965126     0.189783588     1.516268446
  13    H        1.183956078     0.325286218    -1.569109451
  14    H        1.891127203     1.514764369    -0.399988050
  15    H        2.397484829    -1.274805846    -0.277658350


           Empirical Formula: C5 H6 O4  =    15 atoms



      MOLECULAR POINT GROUP   :   C1  


                  EIGENVALUES  
 -32.84788 -32.25667 -31.69449 -30.19685 -27.99276 -25.98926 -23.83905 -21.00734
 -20.80340 -18.66310 -17.49502 -17.15875 -16.70846 -16.41018 -15.43274 -15.20628
 -15.08353 -14.55800 -14.51918 -13.66385 -13.00932 -11.85865 -11.71374 -11.33996
 -10.95315  -0.36659   0.21903   0.72282   1.49194   1.92898   2.15016   2.63961
   2.94349   3.55646   4.08602   4.25894   4.31890   4.57479   4.76125   4.88489
   5.02771   5.77028


              NET ATOMIC CHARGES AND DIPOLE CONTRIBUTIONS

  ATOM NO.   TYPE          CHARGE      No. of ELECS.   s-Pop       p-Pop       
    1          O          -0.373367        6.3734     1.87609     4.49728
    2          C           0.431800        3.5682     1.12807     2.44013
    3          C          -0.160593        4.1606     1.10937     3.05123
    4          O          -0.361308        6.3613     1.87781     4.48350
    5          C           0.577374        3.4226     1.12333     2.29930
    6          O          -0.418559        6.4186     1.87613     4.54243
    7          C          -0.409715        4.4097     1.09517     3.31455
    8          C           0.034526        3.9655     1.08204     2.88343
    9          O          -0.527935        6.5279     1.85089     4.67704
   10          H           0.178747        0.8213     0.82125
   11          H           0.179015        0.8210     0.82098
   12          H           0.225427        0.7746     0.77457
   13          H           0.126808        0.8732     0.87319
   14          H           0.164366        0.8356     0.83563
   15          H           0.333414        0.6666     0.66659
 DIPOLE           X         Y         Z       TOTAL
 POINT-CHG.    -2.006     1.912    -0.140     2.774
 HYBRID        -0.072    -0.683     0.170     0.708
 SUM           -2.077     1.229     0.030     2.414


          ATOMIC ORBITAL ELECTRON POPULATIONS

     Atom    s        px        py        pz   
    1  O   1.87609   1.86950   1.24309   1.38469
    2  C   1.12807   0.90089   0.85307   0.68617
    3  C   1.10937   1.05116   0.82432   1.17575
    4  O   1.87781   1.33361   1.30437   1.84552
    5  C   1.12333   0.76766   0.84486   0.68678
    6  O   1.87613   1.68499   1.36745   1.49000
    7  C   1.09517   1.08140   1.05285   1.18030
    8  C   1.08204   0.84230   1.02553   1.01560
    9  O   1.85089   1.38674   1.34272   1.94758
   10  H   0.82125
   11  H   0.82098
   12  H   0.77457
   13  H   0.87319
   14  H   0.83563
   15  H   0.66659

 **********************
 *                    *
 * JOB ENDED NORMALLY *
 *                    *
 **********************



 TOTAL JOB TIME:             1.29 SECONDS

 == MOPAC DONE ==
