 *******************************************************************************
 **                                                                           **
 **                              MOPAC v23.2                                  **
 **                                                                           **
 *******************************************************************************
 **          Digital Object Identifier (DOI): 10.5281/zenodo.6511958          **
 **    Visit the DOI location for information on how to cite this program.    **
 *******************************************************************************

                              PM7 CALCULATION RESULTS

 *******************************************************************************
 *  CALCULATION DONE: (MAX THREADS = 40)             Fri Sep 19 21:37:18 2025  *
 *  PM7        - The PM7 Hamiltonian to be used
 *
 *
 *
 *                 CHARGE ON SYSTEM = +1
 *
 *
 *
 *  1SCF       - DO 1 SCF AND THEN STOP 
 *  T=         - A TIME OF 172800.0 SECONDS REQUESTED
 *  DUMP=N     - RESTART FILE WRITTEN EVERY 7200.0 SECONDS REQUESTED
 *  RELSCF     - DEFAULT SCF CRITERION MULTIPLIED BY 0.0001
 *              (DEFAULT SCF CRITERION = 0.00010)
 *  GRADIENTS  - ALL GRADIENTS TO BE PRINTED
 *  DISP       - PRINT DISPERSION AND HYDROGEN BOND ENERGIES
 *******************************************************************************
PM7 1SCF GRADIENTS DISP RELSCF=0.0001 CHARGE=1
 Title: ASE calculation

   ATOM   CHEMICAL          X               Y               Z
  NUMBER   SYMBOL      (ANGSTROMS)     (ANGSTROMS)     (ANGSTROMS)

     1       C         -2.32829581  *   1.08970124  *  -1.60638683  *
     2       C         -1.85105464  *   0.27727693  *  -0.71309497  *
     3       C         -1.38057393  *  -0.62358609  *   0.21308029  *
     4       C         -2.29140746  *  -1.14928196  *   1.25009358  *
     5       C         -0.24681645  *   0.71568834  *   1.23761294  *
     6       O         -0.91898196  *   1.13045763  *   2.08294889  *
     7       C          1.05529625  *   0.79705423  *   0.60091325  *
     8       C          2.15849862  *  -0.13957429  *   0.99012036  *
     9       O          1.43188180  *  -0.29436403  *  -0.22914590  *
    10       H         -2.70811121  *   1.73475569  *  -2.32371065  *
    11       H         -0.52365821  *  -1.27511984  *  -0.07030990  *
    12       H         -1.78201919  *  -1.58387333  *   2.12526431  *
    13       H         -2.90014422  *  -1.98593716  *   0.82835149  *
    14       H         -3.03261757  *  -0.41959322  *   1.62200278  *
    15       H          1.27636721  *   1.80460463  *   0.18269813  *
    16       H          2.01282991  *  -0.92597829  *   1.73371899  *
    17       H          3.20446303  *   0.17728310  *   0.88286616  *



          CARTESIAN COORDINATES 

    NO.       ATOM           X           Y           Z

     1         C         -2.3283      1.0897     -1.6064
     2         C         -1.8511      0.2773     -0.7131
     3         C         -1.3806     -0.6236      0.2131
     4         C         -2.2914     -1.1493      1.2501
     5         C         -0.2468      0.7157      1.2376
     6         O         -0.9190      1.1305      2.0829
     7         C          1.0553      0.7971      0.6009
     8         C          2.1585     -0.1396      0.9901
     9         O          1.4319     -0.2944     -0.2291
    10         H         -2.7081      1.7348     -2.3237
    11         H         -0.5237     -1.2751     -0.0703
    12         H         -1.7820     -1.5839      2.1253
    13         H         -2.9001     -1.9859      0.8284
    14         H         -3.0326     -0.4196      1.6220
    15         H          1.2764      1.8046      0.1827
    16         H          2.0128     -0.9260      1.7337
    17         H          3.2045      0.1773      0.8829

 General Reference for PM7:
 "Optimization of Parameters for Semiempirical Methods VI: More Modifications to the 
 NDDO Approximations and Re-optimization of Parameters", J. J. P. Stewart, J. Mol. Mod., 1:32, 19 (2013)
 https://link.springer.com/article/10.1007/s00894-012-1667-x

           Empirical Formula: C7 H8 O2  =    17 atoms



      MOLECULAR POINT GROUP   :   C1  


          UHF CALCULATION, NO. OF ALPHA ELECTRONS =   24
                           NO. OF BETA  ELECTRONS =   23
  SCF CRITERION =    0.1000E-07

 -------------------------------------------------------------------------------
 PM7 1SCF GRADIENTS DISP RELSCF=0.0001 CHARGE=1
 Title: ASE calculation



     1SCF WAS SPECIFIED, SO BFGS WAS NOT USED                 
     SCF FIELD WAS ACHIEVED                                   


                              PM7 CALCULATION
                                                       MOPAC v23.2 Linux
                                                       Fri Sep 19 21:37:19 2025




          FINAL HEAT OF FORMATION =        216.11449 KCAL/MOL =     904.22302 KJ/MOL

          TOTAL ENERGY            =     -35652.35230 KCAL/MOL = ELECTRONIC ENERGY + CORE-CORE REPULSION
          ENERGY OF ATOMS         =      35867.73354 KCAL/MOL
                              SUM =        215.38125 KCAL/MOL
          DISPERSION ENERGY       =         -1.86409 KCAL/MOL
                              SUM =        213.51715 KCAL/MOL = FINAL HEAT OF FORMATION

     *    WARNING - An energy term is incorrect or missing!

     *    FINAL HEAT OF FORMATION     =    216.11449 KCAL/MOL
     *    SUM OF CONTRIBUTIONS TO HoF =    213.51715 KCAL/MOL
     *                     DIFFERENCE =      2.59734 KCAL/MOL



          TOTAL ENERGY            =      -1546.03232 EV
          ELECTRONIC ENERGY       =      -6853.87915 EV 
          CORE-CORE REPULSION     =       5307.84683 EV
          COSMO AREA              =        168.51 SQUARE ANGSTROMS
          COSMO VOLUME            =        166.83 CUBIC ANGSTROMS

          GRADIENT NORM           =          0.93821          =       0.22755 PER ATOM
          IONIZATION POTENTIAL    =         14.024315 EV
          ALPHA SOMO LUMO (EV)    =        -14.024 -5.709
          BETA  SOMO LUMO (EV)    =        -15.234 -7.010
          NO. OF ALPHA ELECTRONS  =         24
          NO. OF BETA  ELECTRONS  =         23
          MOLECULAR WEIGHT        =        124.1390         POINT GROUP:  C1  

          MOLECULAR DIMENSIONS (Angstroms)

            Atom       Atom       Distance
            H    17    H    10     6.90409
            H    15    H    13     5.13454
            O     9    O     6     3.31710


          SCF CALCULATIONS        =          1

          WALL-CLOCK TIME         =      1.344 SECONDS
          COMPUTATION TIME        =      0.447 SECONDS

          LARGEST ATOMIC GRADIENTS

          Atom     Label                     Cartesian Gradients           Cartesian Coordinates       |Gradient|
                                           X          Y          Z        X          Y          Z

             9       O                  -0.299     -0.084      0.238    1.43188   -0.29436   -0.22915      0.392
             5       C                   0.196      0.095     -0.310   -0.24682    0.71569    1.23761      0.379
             6       O                  -0.161     -0.086      0.295   -0.91898    1.13046    2.08295      0.347
            12       H                  -0.073      0.292      0.016   -1.78202   -1.58387    2.12526      0.301
            13       H                   0.250     -0.043     -0.148   -2.90014   -1.98594    0.82835      0.293
             7       C                   0.255     -0.040      0.076    1.05530    0.79705    0.60091      0.269
            11       H                  -0.012     -0.227     -0.032   -0.52366   -1.27512   -0.07031      0.230
            14       H                   0.150      0.053     -0.078   -3.03262   -0.41959    1.62200      0.177
             8       C                  -0.065      0.153      0.014    2.15850   -0.13957    0.99012      0.167
            16       H                  -0.042     -0.141     -0.029    2.01283   -0.92598    1.73372      0.150



       FINAL  POINT  AND  DERIVATIVES

   PARAMETER     ATOM    TYPE            VALUE        GRADIENT
      1          1  C    CARTESIAN X    -2.328296     -0.049800  KCAL/ANGSTROM
      2          1  C    CARTESIAN Y     1.089701     -0.094853  KCAL/ANGSTROM
      3          1  C    CARTESIAN Z    -1.606387      0.068650  KCAL/ANGSTROM
      4          2  C    CARTESIAN X    -1.851055      0.033567  KCAL/ANGSTROM
      5          2  C    CARTESIAN Y     0.277277     -0.066461  KCAL/ANGSTROM
      6          2  C    CARTESIAN Z    -0.713095     -0.050014  KCAL/ANGSTROM
      7          3  C    CARTESIAN X    -1.380574     -0.064710  KCAL/ANGSTROM
      8          3  C    CARTESIAN Y    -0.623586      0.032037  KCAL/ANGSTROM
      9          3  C    CARTESIAN Z     0.213080      0.051402  KCAL/ANGSTROM
     10          4  C    CARTESIAN X    -2.291407      0.003356  KCAL/ANGSTROM
     11          4  C    CARTESIAN Y    -1.149282     -0.005546  KCAL/ANGSTROM
     12          4  C    CARTESIAN Z     1.250094     -0.001002  KCAL/ANGSTROM
     13          5  C    CARTESIAN X    -0.246816      0.195942  KCAL/ANGSTROM
     14          5  C    CARTESIAN Y     0.715688      0.095040  KCAL/ANGSTROM
     15          5  C    CARTESIAN Z     1.237613     -0.310208  KCAL/ANGSTROM
     16          6  O    CARTESIAN X    -0.918982     -0.160948  KCAL/ANGSTROM
     17          6  O    CARTESIAN Y     1.130458     -0.085869  KCAL/ANGSTROM
     18          6  O    CARTESIAN Z     2.082949      0.294895  KCAL/ANGSTROM
     19          7  C    CARTESIAN X     1.055296      0.254559  KCAL/ANGSTROM
     20          7  C    CARTESIAN Y     0.797054     -0.040133  KCAL/ANGSTROM
     21          7  C    CARTESIAN Z     0.600913      0.075566  KCAL/ANGSTROM
     22          8  C    CARTESIAN X     2.158499     -0.065296  KCAL/ANGSTROM
     23          8  C    CARTESIAN Y    -0.139574      0.152938  KCAL/ANGSTROM
     24          8  C    CARTESIAN Z     0.990120      0.014059  KCAL/ANGSTROM
     25          9  O    CARTESIAN X     1.431882     -0.299342  KCAL/ANGSTROM
     26          9  O    CARTESIAN Y    -0.294364     -0.084013  KCAL/ANGSTROM
     27          9  O    CARTESIAN Z    -0.229146      0.238424  KCAL/ANGSTROM
     28         10  H    CARTESIAN X    -2.708111     -0.046076  KCAL/ANGSTROM
     29         10  H    CARTESIAN Y     1.734756      0.129183  KCAL/ANGSTROM
     30         10  H    CARTESIAN Z    -2.323711      0.021674  KCAL/ANGSTROM
     31         11  H    CARTESIAN X    -0.523658     -0.011812  KCAL/ANGSTROM
     32         11  H    CARTESIAN Y    -1.275120     -0.227492  KCAL/ANGSTROM
     33         11  H    CARTESIAN Z    -0.070310     -0.032298  KCAL/ANGSTROM
     34         12  H    CARTESIAN X    -1.782019     -0.072589  KCAL/ANGSTROM
     35         12  H    CARTESIAN Y    -1.583873      0.292176  KCAL/ANGSTROM
     36         12  H    CARTESIAN Z     2.125264      0.015725  KCAL/ANGSTROM
     37         13  H    CARTESIAN X    -2.900144      0.249579  KCAL/ANGSTROM
     38         13  H    CARTESIAN Y    -1.985937     -0.043186  KCAL/ANGSTROM
     39         13  H    CARTESIAN Z     0.828351     -0.147622  KCAL/ANGSTROM
     40         14  H    CARTESIAN X    -3.032618      0.150280  KCAL/ANGSTROM
     41         14  H    CARTESIAN Y    -0.419593      0.053342  KCAL/ANGSTROM
     42         14  H    CARTESIAN Z     1.622003     -0.077583  KCAL/ANGSTROM
     43         15  H    CARTESIAN X     1.276367     -0.086513  KCAL/ANGSTROM
     44         15  H    CARTESIAN Y     1.804605     -0.055332  KCAL/ANGSTROM
     45         15  H    CARTESIAN Z     0.182698     -0.079154  KCAL/ANGSTROM
     46         16  H    CARTESIAN X     2.012830     -0.041915  KCAL/ANGSTROM
     47         16  H    CARTESIAN Y    -0.925978     -0.140957  KCAL/ANGSTROM
     48         16  H    CARTESIAN Z     1.733719     -0.028748  KCAL/ANGSTROM
     49         17  H    CARTESIAN X     3.204463      0.011721  KCAL/ANGSTROM
     50         17  H    CARTESIAN Y     0.177283      0.089121  KCAL/ANGSTROM
     51         17  H    CARTESIAN Z     0.882866     -0.053767  KCAL/ANGSTROM




   ATOM   CHEMICAL          X               Y               Z
  NUMBER   SYMBOL      (ANGSTROMS)     (ANGSTROMS)     (ANGSTROMS)

     1       C         -2.32829581  *   1.08970124  *  -1.60638683  *
     2       C         -1.85105464  *   0.27727693  *  -0.71309497  *
     3       C         -1.38057393  *  -0.62358609  *   0.21308029  *
     4       C         -2.29140746  *  -1.14928196  *   1.25009358  *
     5       C         -0.24681645  *   0.71568834  *   1.23761294  *
     6       O         -0.91898196  *   1.13045763  *   2.08294889  *
     7       C          1.05529625  *   0.79705423  *   0.60091325  *
     8       C          2.15849862  *  -0.13957429  *   0.99012036  *
     9       O          1.43188180  *  -0.29436403  *  -0.22914590  *
    10       H         -2.70811121  *   1.73475569  *  -2.32371065  *
    11       H         -0.52365821  *  -1.27511984  *  -0.07030990  *
    12       H         -1.78201919  *  -1.58387333  *   2.12526431  *
    13       H         -2.90014422  *  -1.98593716  *   0.82835149  *
    14       H         -3.03261757  *  -0.41959322  *   1.62200278  *
    15       H          1.27636721  *   1.80460463  *   0.18269813  *
    16       H          2.01282991  *  -0.92597829  *   1.73371899  *
    17       H          3.20446303  *   0.17728310  *   0.88286616  *

                             CARTESIAN COORDINATES

   1    C       -2.328295806     1.089701244    -1.606386828
   2    C       -1.851054643     0.277276926    -0.713094970
   3    C       -1.380573931    -0.623586087     0.213080290
   4    C       -2.291407464    -1.149281964     1.250093582
   5    C       -0.246816451     0.715688337     1.237612945
   6    O       -0.918981960     1.130457629     2.082948888
   7    C        1.055296246     0.797054231     0.600913251
   8    C        2.158498620    -0.139574289     0.990120364
   9    O        1.431881799    -0.294364026    -0.229145901
  10    H       -2.708111207     1.734755689    -2.323710650
  11    H       -0.523658207    -1.275119842    -0.070309896
  12    H       -1.782019193    -1.583873335     2.125264312
  13    H       -2.900144223    -1.985937161     0.828351492
  14    H       -3.032617571    -0.419593217     1.622002779
  15    H        1.276367207     1.804604628     0.182698134
  16    H        2.012829912    -0.925978289     1.733718988
  17    H        3.204463032     0.177283097     0.882866161


           Empirical Formula: C7 H8 O2  =    17 atoms



      MOLECULAR POINT GROUP   :   C1  


          ALPHA EIGENVALUES  
 -39.48137 -37.28736 -33.16004 -30.77175 -30.03643 -28.15140 -26.82077 -24.91767
 -23.04431 -22.43968 -22.01055 -21.17043 -20.83092 -20.24478 -19.49168 -19.27942
 -18.67212 -18.32899 -17.39998 -17.24330 -16.49267 -15.63301 -15.31501 -14.02431
  -5.70925  -5.25982  -3.75696  -3.36946  -3.10566  -2.69518  -2.44295  -1.35487
  -0.90391  -0.61114  -0.45328   0.12512   0.38836   0.73511   0.85268   1.05258
   1.10138   1.27227   1.90357   2.36303


           BETA EIGENVALUES 
 -38.51574 -37.25531 -33.04211 -30.64571 -29.90448 -28.07386 -26.73083 -24.64319
 -22.90302 -22.18045 -21.66027 -20.86906 -20.74852 -20.03738 -19.40908 -19.22676
 -18.43732 -18.04455 -17.37315 -17.09166 -15.91373 -15.58377 -15.23446  -7.01032
  -5.10960  -4.60201  -3.66509  -3.04084  -2.82401  -2.66428  -2.28193  -1.27252
  -0.60739  -0.51655  -0.38824   0.14799   0.44768   0.80510   0.85814   1.09430
   1.10512   1.29067   1.95945   2.37656


              NET ATOMIC CHARGES AND DIPOLE CONTRIBUTIONS

  ATOM NO.   TYPE          CHARGE      No. of ELECS.   s-Pop       p-Pop       
    1          C           0.092927        3.9071     1.19399     2.71308
    2          C          -0.225126        4.2251     1.09961     3.12551
    3          C           0.078312        3.9217     1.11774     2.80395
    4          C          -0.495417        4.4954     1.05396     3.44146
    5          C           0.366673        3.6333     1.22725     2.40608
    6          O          -0.053570        6.0536     1.87040     4.18317
    7          C          -0.114800        4.1148     1.08041     3.03439
    8          C          -0.057029        4.0570     1.10517     2.95186
    9          O          -0.242760        6.2428     1.92528     4.31747
   10          H           0.225352        0.7746     0.77465
   11          H           0.203833        0.7962     0.79617
   12          H           0.187499        0.8125     0.81250
   13          H           0.223606        0.7764     0.77639
   14          H           0.196644        0.8034     0.80336
   15          H           0.234996        0.7650     0.76500
   16          H           0.178734        0.8213     0.82127
   17          H           0.200126        0.7999     0.79987
 DIPOLE           X         Y         Z       TOTAL
 POINT-CHG.     0.202     0.814     0.504     0.978
 HYBRID        -0.640     0.020    -0.132     0.653
 SUM           -0.438     0.834     0.373     1.013


          ATOMIC ORBITAL ELECTRON POPULATIONS

     Atom    s        px        py        pz   
    1  C   1.19399   0.91594   0.86079   0.93635
    2  C   1.09961   1.05973   1.04395   1.02183
    3  C   1.11774   0.99521   0.89236   0.91638
    4  C   1.05396   1.13774   1.19366   1.11006
    5  C   1.22725   0.86958   0.75498   0.78152
    6  O   1.87040   1.46117   1.40921   1.31279
    7  C   1.08041   0.93647   1.02743   1.07050
    8  C   1.10517   1.03186   1.00111   0.91888
    9  O   1.92528   1.58664   1.42930   1.30153
   10  H   0.77465
   11  H   0.79617
   12  H   0.81250
   13  H   0.77639
   14  H   0.80336
   15  H   0.76500
   16  H   0.82127
   17  H   0.79987


                    (SZ)    =    0.500000
                    (S**2)  =    0.812318


          ATOMIC ORBITAL SPIN POPULATIONS

    Atom   Total    s     px     py     pz   
         Atomic
    1  C  0.4486  0.012  0.115  0.215  0.107
    2  C -0.2474 -0.010 -0.081 -0.096 -0.061
    3  C  0.3203  0.006  0.057  0.150  0.107
    4  C -0.0033 -0.002  0.002  0.004 -0.007
    5  C  0.0957  0.006  0.034  0.043  0.013
    6  O  0.3068  0.008  0.096  0.141  0.061
    7  C  0.0488  0.004  0.043  0.001  0.002
    8  C  0.0057  0.000  0.002  0.002  0.001
    9  O  0.0090  0.000 -0.002  0.014 -0.003
   10  H -0.0109 -0.011
   11  H -0.0027 -0.003
   12  H  0.0031  0.003
   13  H  0.0188  0.019
   14  H  0.0028  0.003
   15  H  0.0043  0.004
   16  H -0.0002 -0.000
   17  H  0.0006  0.001

 **********************
 *                    *
 * JOB ENDED NORMALLY *
 *                    *
 **********************



 TOTAL JOB TIME:             1.86 SECONDS

 == MOPAC DONE ==
