 *******************************************************************************
 **                                                                           **
 **                              MOPAC v23.2                                  **
 **                                                                           **
 *******************************************************************************
 **          Digital Object Identifier (DOI): 10.5281/zenodo.6511958          **
 **    Visit the DOI location for information on how to cite this program.    **
 *******************************************************************************

                              PM7 CALCULATION RESULTS

 *******************************************************************************
 *  CALCULATION DONE: (MAX THREADS = 40)             Fri Sep 19 21:31:19 2025  *
 *  PM7        - The PM7 Hamiltonian to be used
 *
 *
 *
 *                 CHARGE ON SYSTEM = +1
 *
 *
 *
 *  EPS=37.5   - USE ANDREAS KLAMT'S COSMO IMPLICIT SOLVATION MODEL
 *  1SCF       - DO 1 SCF AND THEN STOP 
 *  T=         - A TIME OF 172800.0 SECONDS REQUESTED
 *  DUMP=N     - RESTART FILE WRITTEN EVERY 7200.0 SECONDS REQUESTED
 *  RELSCF     - DEFAULT SCF CRITERION MULTIPLIED BY 0.0001
 *              (DEFAULT SCF CRITERION = 0.00010)
 *  GRADIENTS  - ALL GRADIENTS TO BE PRINTED
 *  DISP       - PRINT DISPERSION AND HYDROGEN BOND ENERGIES
 *******************************************************************************
PM7 1SCF GRADIENTS EPS=37.5 DISP RELSCF=0.0001 CHARGE=1
 Title: ASE calculation

   ATOM   CHEMICAL          X               Y               Z
  NUMBER   SYMBOL      (ANGSTROMS)     (ANGSTROMS)     (ANGSTROMS)

     1       C         -2.92584018  *  -1.19001221  *   0.71401032  *
     2       C         -2.60337786  *   0.23837439  *   0.24585188  *
     3       C         -2.84821033  *   0.39648120  *  -1.26063066  *
     4       C         -1.24293229  *   0.52458398  *   0.55746868  *
     5       C          0.00186918  *   0.75598061  *   0.85240459  *
     6       C          1.27487135  *   0.98332786  *   1.19807693  *
     7       O          2.21068291  *   1.12915420  *   1.85861546  *
     8       C          2.13862514  *   1.13697076  *  -0.75434226  *
     9       O          3.13568683  *   1.95085314  *  -0.47641520  *
    10       H         -2.69071319  *  -1.35181836  *   1.77476829  *
    11       H         -2.39007985  *  -1.95085314  *   0.13000629  *
    12       H         -4.00108008  *  -1.40405179  *   0.59278823  *
    13       H         -3.28598821  *   0.96152921  *   0.80066922  *
    14       H         -2.26053471  *  -0.31313921  *  -1.85861546  *
    15       H         -3.90781965  *   0.19964610  *  -1.50068556  *
    16       H         -2.62795089  *   1.41052208  *  -1.61998329  *
    17       H          2.28999150  *   0.08359379  *  -0.92143693  *
    18       H          1.31701974  *   1.67315879  *  -1.21715579  *
    19       H          4.00108008  *   1.47675724  *  -0.26057989  *



          CARTESIAN COORDINATES 

    NO.       ATOM           X           Y           Z

     1         C         -2.9258     -1.1900      0.7140
     2         C         -2.6034      0.2384      0.2459
     3         C         -2.8482      0.3965     -1.2606
     4         C         -1.2429      0.5246      0.5575
     5         C          0.0019      0.7560      0.8524
     6         C          1.2749      0.9833      1.1981
     7         O          2.2107      1.1292      1.8586
     8         C          2.1386      1.1370     -0.7543
     9         O          3.1357      1.9509     -0.4764
    10         H         -2.6907     -1.3518      1.7748
    11         H         -2.3901     -1.9509      0.1300
    12         H         -4.0011     -1.4041      0.5928
    13         H         -3.2860      0.9615      0.8007
    14         H         -2.2605     -0.3131     -1.8586
    15         H         -3.9078      0.1996     -1.5007
    16         H         -2.6280      1.4105     -1.6200
    17         H          2.2900      0.0836     -0.9214
    18         H          1.3170      1.6732     -1.2172
    19         H          4.0011      1.4768     -0.2606

 General Reference for PM7:
 "Optimization of Parameters for Semiempirical Methods VI: More Modifications to the 
 NDDO Approximations and Re-optimization of Parameters", J. J. P. Stewart, J. Mol. Mod., 1:32, 19 (2013)
 https://link.springer.com/article/10.1007/s00894-012-1667-x

           Empirical Formula: C7 H10 O2  =    19 atoms



      MOLECULAR POINT GROUP   :   C1  


          UHF CALCULATION, NO. OF ALPHA ELECTRONS =   25
                           NO. OF BETA  ELECTRONS =   24
  SCF CRITERION =    0.1000E-07

 -------------------------------------------------------------------------------
 PM7 1SCF GRADIENTS EPS=37.5 DISP RELSCF=0.0001 CHARGE=1
 Title: ASE calculation



     1SCF WAS SPECIFIED, SO BFGS WAS NOT USED                 
     SCF FIELD WAS ACHIEVED                                   


                              PM7 CALCULATION
                                                       MOPAC v23.2 Linux
                                                       Fri Sep 19 21:31:20 2025




          FINAL HEAT OF FORMATION =        109.14836 KCAL/MOL =     456.67676 KJ/MOL

          TOTAL ENERGY            =     -36374.00396 KCAL/MOL = ELECTRONIC ENERGY + CORE-CORE REPULSION + SOLVATION ENERGY
          ENERGY OF ATOMS         =      36482.50324 KCAL/MOL
                              SUM =        108.49928 KCAL/MOL
          DISPERSION ENERGY       =         -1.67688 KCAL/MOL
                              SUM =        106.82240 KCAL/MOL = FINAL HEAT OF FORMATION

     *    WARNING - An energy term is incorrect or missing!

     *    FINAL HEAT OF FORMATION     =    109.14837 KCAL/MOL
     *    SUM OF CONTRIBUTIONS TO HoF =    106.82240 KCAL/MOL
     *                     DIFFERENCE =      2.32597 KCAL/MOL

          VAN DER WAALS AREA      =        182.74 SQUARE ANGSTROMS


          TOTAL ENERGY            =      -1577.32610 EV
          ELECTRONIC ENERGY       =      -1976.30793 EV 
          CORE-CORE REPULSION     =        398.98183 EV

          DIELECTRIC ENERGY       =         -2.18475 EV
          COSMO AREA              =        182.74 SQUARE ANGSTROMS
          COSMO VOLUME            =        175.37 CUBIC ANGSTROMS

          GRADIENT NORM           =         12.10527          =       2.77714 PER ATOM
          IONIZATION POTENTIAL    =          9.506258 EV
          ALPHA SOMO LUMO (EV)    =         -9.506 -1.771
          BETA  SOMO LUMO (EV)    =        -11.696 -2.127
          NO. OF ALPHA ELECTRONS  =         25
          NO. OF BETA  ELECTRONS  =         24
          MOLECULAR WEIGHT        =        126.1548         POINT GROUP:  C1  

          MOLECULAR DIMENSIONS (Angstroms)

            Atom       Atom       Distance
            H    19    H    12     8.54762
            O     7    H    16     4.34541
            H    13    H    11     3.03468


          SCF CALCULATIONS        =          2

          WALL-CLOCK TIME         =      1.555 SECONDS
          COMPUTATION TIME        =      0.906 SECONDS

          LARGEST ATOMIC GRADIENTS

          Atom     Label                     Cartesian Gradients           Cartesian Coordinates       |Gradient|
                                           X          Y          Z        X          Y          Z

             8       C                   4.480     -3.188     -0.153    2.13863    1.13697   -0.75434      5.501
             6       C                  -0.803      1.540      5.028    1.27487    0.98333    1.19808      5.319
             3       C                   3.418      1.003      0.980   -2.84821    0.39648   -1.26063      3.695
             1       C                   3.315      1.424      0.628   -2.92584   -1.19001    0.71401      3.662
             5       C                   3.345      0.020     -0.355    0.00187    0.75598    0.85240      3.364
             4       C                  -3.284     -0.385      0.128   -1.24293    0.52458    0.55747      3.309
            17       H                  -1.494      1.212     -1.618    2.28999    0.08359   -0.92144      2.514
            19       H                  -1.729      1.151     -1.209    4.00108    1.47676   -0.26058      2.403
             7       O                  -1.335     -0.866     -1.713    2.21068    1.12915    1.85862      2.338
             2       C                   0.361      1.963      1.008   -2.60338    0.23837    0.24585      2.235



       FINAL  POINT  AND  DERIVATIVES

   PARAMETER     ATOM    TYPE            VALUE        GRADIENT
      1          1  C    CARTESIAN X    -2.925840      3.314963  KCAL/ANGSTROM
      2          1  C    CARTESIAN Y    -1.190012      1.424054  KCAL/ANGSTROM
      3          1  C    CARTESIAN Z     0.714010      0.627764  KCAL/ANGSTROM
      4          2  C    CARTESIAN X    -2.603378      0.361127  KCAL/ANGSTROM
      5          2  C    CARTESIAN Y     0.238374      1.962547  KCAL/ANGSTROM
      6          2  C    CARTESIAN Z     0.245852      1.007523  KCAL/ANGSTROM
      7          3  C    CARTESIAN X    -2.848210      3.418268  KCAL/ANGSTROM
      8          3  C    CARTESIAN Y     0.396481      1.003040  KCAL/ANGSTROM
      9          3  C    CARTESIAN Z    -1.260631      0.980169  KCAL/ANGSTROM
     10          4  C    CARTESIAN X    -1.242932     -3.283932  KCAL/ANGSTROM
     11          4  C    CARTESIAN Y     0.524584     -0.384586  KCAL/ANGSTROM
     12          4  C    CARTESIAN Z     0.557469      0.128222  KCAL/ANGSTROM
     13          5  C    CARTESIAN X     0.001869      3.345086  KCAL/ANGSTROM
     14          5  C    CARTESIAN Y     0.755981      0.020130  KCAL/ANGSTROM
     15          5  C    CARTESIAN Z     0.852405     -0.355392  KCAL/ANGSTROM
     16          6  C    CARTESIAN X     1.274871     -0.802523  KCAL/ANGSTROM
     17          6  C    CARTESIAN Y     0.983328      1.540114  KCAL/ANGSTROM
     18          6  C    CARTESIAN Z     1.198077      5.027610  KCAL/ANGSTROM
     19          7  O    CARTESIAN X     2.210683     -1.335044  KCAL/ANGSTROM
     20          7  O    CARTESIAN Y     1.129154     -0.866487  KCAL/ANGSTROM
     21          7  O    CARTESIAN Z     1.858615     -1.713072  KCAL/ANGSTROM
     22          8  C    CARTESIAN X     2.138625      4.479839  KCAL/ANGSTROM
     23          8  C    CARTESIAN Y     1.136971     -3.188059  KCAL/ANGSTROM
     24          8  C    CARTESIAN Z    -0.754342     -0.153158  KCAL/ANGSTROM
     25          9  O    CARTESIAN X     3.135687      0.400703  KCAL/ANGSTROM
     26          9  O    CARTESIAN Y     1.950853      0.058136  KCAL/ANGSTROM
     27          9  O    CARTESIAN Z    -0.476415      0.508370  KCAL/ANGSTROM
     28         10  H    CARTESIAN X    -2.690713     -0.687975  KCAL/ANGSTROM
     29         10  H    CARTESIAN Y    -1.351818     -0.945751  KCAL/ANGSTROM
     30         10  H    CARTESIAN Z     1.774768      0.366646  KCAL/ANGSTROM
     31         11  H    CARTESIAN X    -2.390080     -0.988286  KCAL/ANGSTROM
     32         11  H    CARTESIAN Y    -1.950853     -0.795584  KCAL/ANGSTROM
     33         11  H    CARTESIAN Z     0.130006     -0.444132  KCAL/ANGSTROM
     34         12  H    CARTESIAN X    -4.001080     -1.180496  KCAL/ANGSTROM
     35         12  H    CARTESIAN Y    -1.404052     -0.956692  KCAL/ANGSTROM
     36         12  H    CARTESIAN Z     0.592788     -0.000129  KCAL/ANGSTROM
     37         13  H    CARTESIAN X    -3.285988     -1.057380  KCAL/ANGSTROM
     38         13  H    CARTESIAN Y     0.961529     -0.513199  KCAL/ANGSTROM
     39         13  H    CARTESIAN Z     0.800669     -0.329983  KCAL/ANGSTROM
     40         14  H    CARTESIAN X    -2.260535     -1.067854  KCAL/ANGSTROM
     41         14  H    CARTESIAN Y    -0.313139     -0.777413  KCAL/ANGSTROM
     42         14  H    CARTESIAN Z    -1.858615     -0.762526  KCAL/ANGSTROM
     43         15  H    CARTESIAN X    -3.907820     -1.539371  KCAL/ANGSTROM
     44         15  H    CARTESIAN Y     0.199646     -0.486122  KCAL/ANGSTROM
     45         15  H    CARTESIAN Z    -1.500686     -0.728534  KCAL/ANGSTROM
     46         16  H    CARTESIAN X    -2.627951     -1.050981  KCAL/ANGSTROM
     47         16  H    CARTESIAN Y     1.410522      0.297226  KCAL/ANGSTROM
     48         16  H    CARTESIAN Z    -1.619983     -0.953753  KCAL/ANGSTROM
     49         17  H    CARTESIAN X     2.289991     -1.493907  KCAL/ANGSTROM
     50         17  H    CARTESIAN Y     0.083594      1.211629  KCAL/ANGSTROM
     51         17  H    CARTESIAN Z    -0.921437     -1.618066  KCAL/ANGSTROM
     52         18  H    CARTESIAN X     1.317020      0.896348  KCAL/ANGSTROM
     53         18  H    CARTESIAN Y     1.673159      0.245799  KCAL/ANGSTROM
     54         18  H    CARTESIAN Z    -1.217156     -0.378344  KCAL/ANGSTROM
     55         19  H    CARTESIAN X     4.001080     -1.728590  KCAL/ANGSTROM
     56         19  H    CARTESIAN Y     1.476757      1.151214  KCAL/ANGSTROM
     57         19  H    CARTESIAN Z    -0.260580     -1.209220  KCAL/ANGSTROM




   ATOM   CHEMICAL          X               Y               Z
  NUMBER   SYMBOL      (ANGSTROMS)     (ANGSTROMS)     (ANGSTROMS)

     1       C         -2.92584018  *  -1.19001221  *   0.71401032  *
     2       C         -2.60337786  *   0.23837439  *   0.24585188  *
     3       C         -2.84821033  *   0.39648120  *  -1.26063066  *
     4       C         -1.24293229  *   0.52458398  *   0.55746868  *
     5       C          0.00186918  *   0.75598061  *   0.85240459  *
     6       C          1.27487135  *   0.98332786  *   1.19807693  *
     7       O          2.21068291  *   1.12915420  *   1.85861546  *
     8       C          2.13862514  *   1.13697076  *  -0.75434226  *
     9       O          3.13568683  *   1.95085314  *  -0.47641520  *
    10       H         -2.69071319  *  -1.35181836  *   1.77476829  *
    11       H         -2.39007985  *  -1.95085314  *   0.13000629  *
    12       H         -4.00108008  *  -1.40405179  *   0.59278823  *
    13       H         -3.28598821  *   0.96152921  *   0.80066922  *
    14       H         -2.26053471  *  -0.31313921  *  -1.85861546  *
    15       H         -3.90781965  *   0.19964610  *  -1.50068556  *
    16       H         -2.62795089  *   1.41052208  *  -1.61998329  *
    17       H          2.28999150  *   0.08359379  *  -0.92143693  *
    18       H          1.31701974  *   1.67315879  *  -1.21715579  *
    19       H          4.00108008  *   1.47675724  *  -0.26057989  *

                             CARTESIAN COORDINATES

   1    C       -2.925840178    -1.190012214     0.714010318
   2    C       -2.603377858     0.238374385     0.245851875
   3    C       -2.848210328     0.396481200    -1.260630664
   4    C       -1.242932290     0.524583977     0.557468677
   5    C        0.001869176     0.755980609     0.852404593
   6    C        1.274871345     0.983327856     1.198076928
   7    O        2.210682912     1.129154197     1.858615463
   8    C        2.138625143     1.136970757    -0.754342262
   9    O        3.135686831     1.950853135    -0.476415198
  10    H       -2.690713191    -1.351818363     1.774768289
  11    H       -2.390079847    -1.950853135     0.130006293
  12    H       -4.001080082    -1.404051789     0.592788226
  13    H       -3.285988208     0.961529208     0.800669223
  14    H       -2.260534711    -0.313139211    -1.858615463
  15    H       -3.907819647     0.199646102    -1.500685557
  16    H       -2.627950889     1.410522083    -1.619983291
  17    H        2.289991497     0.083593793    -0.921436933
  18    H        1.317019739     1.673158793    -1.217155788
  19    H        4.001080082     1.476757237    -0.260579893


           Empirical Formula: C7 H10 O2  =    19 atoms



      MOLECULAR POINT GROUP   :   C1  


          ALPHA EIGENVALUES  
 -35.05033 -31.93865 -30.17267 -27.79242 -25.11953 -24.55691 -23.82489 -21.44855
 -19.18811 -18.40189 -17.38179 -17.21079 -16.87458 -16.38270 -16.13268 -15.25795
 -14.60307 -13.79419 -13.51619 -13.46335 -13.08499 -13.00641 -12.04151 -11.76156
  -9.50626  -1.77141  -1.67493   0.19078   0.75882   1.77851   1.89591   2.51667
   3.11706   3.42613   3.85971   4.42647   4.54352   4.86011   5.02456   5.28036
   5.29587   5.36950   5.38925   5.39781   6.39819   6.49452


           BETA EIGENVALUES 
 -34.44043 -31.24743 -30.15922 -27.69628 -24.94628 -24.55276 -23.55153 -21.39635
 -19.01133 -18.14570 -17.22893 -16.86328 -16.68355 -16.15254 -16.09806 -15.21026
 -13.79256 -13.74268 -13.48844 -13.27528 -13.06385 -12.97073 -11.84904 -11.69639
  -2.12741  -1.68160  -0.36024   0.75232   0.81598   1.85241   2.22567   2.57124
   3.12641   3.42947   4.01913   4.44493   4.66161   4.96369   5.03316   5.28077
   5.29744   5.37004   5.39016   5.55002   6.39842   6.49494


              NET ATOMIC CHARGES AND DIPOLE CONTRIBUTIONS

  ATOM NO.   TYPE          CHARGE      No. of ELECS.   s-Pop       p-Pop       
    1          C          -0.442266        4.4423     1.05698     3.38529
    2          C          -0.119726        4.1197     1.05085     3.06887
    3          C          -0.441522        4.4415     1.05648     3.38504
    4          C           0.417230        3.5828     1.18646     2.39631
    5          C          -0.442108        4.4421     1.02832     3.41379
    6          C           0.597030        3.4030     1.12394     2.27903
    7          O          -0.119933        6.1199     1.87038     4.24955
    8          C          -0.051201        4.0512     1.17196     2.87924
    9          O          -0.395711        6.3957     1.82916     4.56655
   10          H           0.169659        0.8303     0.83034
   11          H           0.168805        0.8312     0.83120
   12          H           0.178283        0.8217     0.82172
   13          H           0.225172        0.7748     0.77483
   14          H           0.167803        0.8322     0.83220
   15          H           0.177002        0.8230     0.82300
   16          H           0.168160        0.8318     0.83184
   17          H           0.172031        0.8280     0.82797
   18          H           0.179407        0.8206     0.82059
   19          H           0.391885        0.6081     0.60812
 DIPOLE           X         Y         Z       TOTAL
 POINT-CHG.    -0.564    -1.528    -1.075     1.952
 HYBRID         1.230     0.212     0.231     1.269
 SUM            0.666    -1.317    -0.844     1.700


          ATOMIC ORBITAL ELECTRON POPULATIONS

     Atom    s        px        py        pz   
    1  C   1.05698   1.20071   1.00474   1.17984
    2  C   1.05085   0.94675   1.07120   1.05092
    3  C   1.05648   1.20497   1.19702   0.98305
    4  C   1.18646   0.93548   0.69259   0.76824
    5  C   1.02832   0.96434   1.24235   1.20710
    6  C   1.12394   0.85114   0.66296   0.76494
    7  O   1.87038   1.35757   1.46464   1.42735
    8  C   1.17196   0.90466   1.03829   0.93629
    9  O   1.82916   1.34972   1.47521   1.74162
   10  H   0.83034
   11  H   0.83120
   12  H   0.82172
   13  H   0.77483
   14  H   0.83220
   15  H   0.82300
   16  H   0.83184
   17  H   0.82797
   18  H   0.82059
   19  H   0.60812


                    (SZ)    =    0.500000
                    (S**2)  =    0.760182


          ATOMIC ORBITAL SPIN POPULATIONS

    Atom   Total    s     px     py     pz   
         Atomic
    1  C  0.0007  0.000  0.000  0.000  0.000
    2  C -0.0036 -0.000 -0.002 -0.000 -0.001
    3  C  0.0057  0.001  0.001  0.000  0.004
    4  C  0.0938  0.003  0.005  0.005  0.081
    5  C -0.0444  0.006  0.007 -0.007 -0.051
    6  C  0.0572  0.002  0.011 -0.010  0.054
    7  O  0.1926  0.005  0.016  0.014  0.157
    8  C  0.5272  0.018  0.052  0.011  0.447
    9  O  0.1889  0.008  0.024 -0.003  0.160
   10  H -0.0001 -0.000
   11  H -0.0000 -0.000
   12  H -0.0001 -0.000
   13  H  0.0015  0.002
   14  H -0.0002 -0.000
   15  H  0.0001  0.000
   16  H -0.0002 -0.000
   17  H -0.0060 -0.006
   18  H -0.0049 -0.005
   19  H -0.0083 -0.008

 **********************
 *                    *
 * JOB ENDED NORMALLY *
 *                    *
 **********************



 TOTAL JOB TIME:             2.05 SECONDS

 == MOPAC DONE ==
