 *******************************************************************************
 **                                                                           **
 **                              MOPAC v23.2                                  **
 **                                                                           **
 *******************************************************************************
 **          Digital Object Identifier (DOI): 10.5281/zenodo.6511958          **
 **    Visit the DOI location for information on how to cite this program.    **
 *******************************************************************************

                              PM7 CALCULATION RESULTS

 *******************************************************************************
 *  CALCULATION DONE: (MAX THREADS = 40)             Fri Sep 19 21:30:50 2025  *
 *  PM7        - The PM7 Hamiltonian to be used
 *  EPS=37.5   - USE ANDREAS KLAMT'S COSMO IMPLICIT SOLVATION MODEL
 *  1SCF       - DO 1 SCF AND THEN STOP 
 *  T=         - A TIME OF 172800.0 SECONDS REQUESTED
 *  DUMP=N     - RESTART FILE WRITTEN EVERY 7200.0 SECONDS REQUESTED
 *  RELSCF     - DEFAULT SCF CRITERION MULTIPLIED BY 0.0001
 *              (DEFAULT SCF CRITERION = 0.00010)
 *  GRADIENTS  - ALL GRADIENTS TO BE PRINTED
 *  DISP       - PRINT DISPERSION AND HYDROGEN BOND ENERGIES
 *******************************************************************************
PM7 1SCF GRADIENTS EPS=37.5 DISP RELSCF=0.0001
 Title: ASE calculation

   ATOM   CHEMICAL          X               Y               Z
  NUMBER   SYMBOL      (ANGSTROMS)     (ANGSTROMS)     (ANGSTROMS)

     1       C          2.03729270  *  -0.99467529  *  -0.16649356  *
     2       C          0.94168420  *  -0.50033850  *   0.15279891  *
     3       C         -0.31204267  *   0.06392936  *   0.51822706  *
     4       C         -1.51814821  *  -0.96319351  *   0.46951663  *
     5       C         -2.16672960  *  -0.12988366  *  -0.64989403  *
     6       C         -2.38783474  *   1.30304364  *  -0.21480005  *
     7       C         -0.99837165  *   0.86802771  *  -0.62155121  *
     8       H          2.93857031  *  -1.40025465  *  -0.43157633  *
     9       H         -0.25326075  *   0.62216675  *   1.47528480  *
    10       H         -2.09110745  *  -1.03434749  *   1.39523505  *
    11       H         -1.22293057  *  -1.96886417  *   0.15920928  *
    12       H         -2.66856225  *  -0.58868113  *  -1.47528480  *
    13       H         -2.61698367  *   1.53830654  *   0.82024362  *
    14       H         -2.93857031  *   1.96886417  *  -0.87532537  *
    15       H         -0.43223053  *   1.30684115  *  -1.41472545  *



          CARTESIAN COORDINATES 

    NO.       ATOM           X           Y           Z

     1         C          2.0373     -0.9947     -0.1665
     2         C          0.9417     -0.5003      0.1528
     3         C         -0.3120      0.0639      0.5182
     4         C         -1.5181     -0.9632      0.4695
     5         C         -2.1667     -0.1299     -0.6499
     6         C         -2.3878      1.3030     -0.2148
     7         C         -0.9984      0.8680     -0.6216
     8         H          2.9386     -1.4003     -0.4316
     9         H         -0.2533      0.6222      1.4753
    10         H         -2.0911     -1.0343      1.3952
    11         H         -1.2229     -1.9689      0.1592
    12         H         -2.6686     -0.5887     -1.4753
    13         H         -2.6170      1.5383      0.8202
    14         H         -2.9386      1.9689     -0.8753
    15         H         -0.4322      1.3068     -1.4147

 General Reference for PM7:
 "Optimization of Parameters for Semiempirical Methods VI: More Modifications to the 
 NDDO Approximations and Re-optimization of Parameters", J. J. P. Stewart, J. Mol. Mod., 1:32, 19 (2013)
 https://link.springer.com/article/10.1007/s00894-012-1667-x

           Empirical Formula: C7 H8  =    15 atoms



      MOLECULAR POINT GROUP   :   C1  


      RHF CALCULATION, NO. OF DOUBLY OCCUPIED LEVELS = 18

  SCF CRITERION =    0.1000E-07

 -------------------------------------------------------------------------------
 PM7 1SCF GRADIENTS EPS=37.5 DISP RELSCF=0.0001
 Title: ASE calculation



     1SCF WAS SPECIFIED, SO BFGS WAS NOT USED                 
     SCF FIELD WAS ACHIEVED                                   


                              PM7 CALCULATION
                                                       MOPAC v23.2 Linux
                                                       Fri Sep 19 21:30:50 2025




          FINAL HEAT OF FORMATION =         94.12492 KCAL/MOL =     393.81867 KJ/MOL

          TOTAL ENERGY            =     -22246.03553 KCAL/MOL = ELECTRONIC ENERGY + CORE-CORE REPULSION + SOLVATION ENERGY
          ENERGY OF ATOMS         =      22330.54345 KCAL/MOL
                              SUM =         84.50792 KCAL/MOL
          DISPERSION ENERGY       =         -0.92299 KCAL/MOL
                              SUM =         83.58492 KCAL/MOL = FINAL HEAT OF FORMATION

     *    WARNING - An energy term is incorrect or missing!

     *    FINAL HEAT OF FORMATION     =     94.12492 KCAL/MOL
     *    SUM OF CONTRIBUTIONS TO HoF =     83.58492 KCAL/MOL
     *                     DIFFERENCE =     10.54000 KCAL/MOL

          VAN DER WAALS AREA      =        143.39 SQUARE ANGSTROMS


          TOTAL ENERGY            =       -964.67940 EV
          ELECTRONIC ENERGY       =      -1408.66982 EV 
          CORE-CORE REPULSION     =        443.99042 EV

          DIELECTRIC ENERGY       =         -0.09767 EV
          COSMO AREA              =        143.39 SQUARE ANGSTROMS
          COSMO VOLUME            =        135.13 CUBIC ANGSTROMS

          GRADIENT NORM           =          4.98800          =       1.28790 PER ATOM
          IONIZATION POTENTIAL    =         10.377817 EV
          HOMO LUMO ENERGIES (EV) =        -10.378  1.077
          NO. OF FILLED LEVELS    =         18
          MOLECULAR WEIGHT        =         92.1402         POINT GROUP:  C1  

          MOLECULAR DIMENSIONS (Angstroms)

            Atom       Atom       Distance
            H    14    H     8     6.78886
            H    15    H    10     4.01506
            H     9    H    12     3.60755


          SCF CALCULATIONS        =          2

          WALL-CLOCK TIME         =      0.758 SECONDS
          COMPUTATION TIME        =      0.407 SECONDS

          LARGEST ATOMIC GRADIENTS

          Atom     Label                     Cartesian Gradients           Cartesian Coordinates       |Gradient|
                                           X          Y          Z        X          Y          Z

             8       H                  -1.915      0.873      0.349    2.93857   -1.40025   -0.43158      2.134
             6       C                  -1.059      1.431      0.800   -2.38783    1.30304   -0.21480      1.952
             4       C                  -0.955     -0.628      1.182   -1.51815   -0.96319    0.46952      1.644
             9       H                   0.380     -0.596     -1.258   -0.25326    0.62217    1.47528      1.443
             5       C                   0.057     -0.711     -1.203   -2.16673   -0.12988   -0.64989      1.399
             1       C                   1.184     -0.666     -0.135    2.03729   -0.99468   -0.16649      1.365
             3       C                   0.170      0.795      0.828   -0.31204    0.06393    0.51823      1.160
            12       H                   0.418      0.297      0.946   -2.66856   -0.58868   -1.47528      1.076
             2       C                   0.931     -0.336     -0.124    0.94168   -0.50034    0.15280      0.997
            14       H                   0.455     -0.657      0.520   -2.93857    1.96886   -0.87533      0.953



       FINAL  POINT  AND  DERIVATIVES

   PARAMETER     ATOM    TYPE            VALUE        GRADIENT
      1          1  C    CARTESIAN X     2.037293      1.183898  KCAL/ANGSTROM
      2          1  C    CARTESIAN Y    -0.994675     -0.665707  KCAL/ANGSTROM
      3          1  C    CARTESIAN Z    -0.166494     -0.134768  KCAL/ANGSTROM
      4          2  C    CARTESIAN X     0.941684      0.930714  KCAL/ANGSTROM
      5          2  C    CARTESIAN Y    -0.500338     -0.336489  KCAL/ANGSTROM
      6          2  C    CARTESIAN Z     0.152799     -0.124042  KCAL/ANGSTROM
      7          3  C    CARTESIAN X    -0.312043      0.169516  KCAL/ANGSTROM
      8          3  C    CARTESIAN Y     0.063929      0.794733  KCAL/ANGSTROM
      9          3  C    CARTESIAN Z     0.518227      0.827901  KCAL/ANGSTROM
     10          4  C    CARTESIAN X    -1.518148     -0.954815  KCAL/ANGSTROM
     11          4  C    CARTESIAN Y    -0.963194     -0.628432  KCAL/ANGSTROM
     12          4  C    CARTESIAN Z     0.469517      1.181763  KCAL/ANGSTROM
     13          5  C    CARTESIAN X    -2.166730      0.057106  KCAL/ANGSTROM
     14          5  C    CARTESIAN Y    -0.129884     -0.710878  KCAL/ANGSTROM
     15          5  C    CARTESIAN Z    -0.649894     -1.203416  KCAL/ANGSTROM
     16          6  C    CARTESIAN X    -2.387835     -1.059473  KCAL/ANGSTROM
     17          6  C    CARTESIAN Y     1.303044      1.431100  KCAL/ANGSTROM
     18          6  C    CARTESIAN Z    -0.214800      0.799662  KCAL/ANGSTROM
     19          7  C    CARTESIAN X    -0.998372      0.276897  KCAL/ANGSTROM
     20          7  C    CARTESIAN Y     0.868028      0.126500  KCAL/ANGSTROM
     21          7  C    CARTESIAN Z    -0.621551     -0.896978  KCAL/ANGSTROM
     22          8  H    CARTESIAN X     2.938570     -1.915237  KCAL/ANGSTROM
     23          8  H    CARTESIAN Y    -1.400255      0.872883  KCAL/ANGSTROM
     24          8  H    CARTESIAN Z    -0.431576      0.349492  KCAL/ANGSTROM
     25          9  H    CARTESIAN X    -0.253261      0.379700  KCAL/ANGSTROM
     26          9  H    CARTESIAN Y     0.622167     -0.596251  KCAL/ANGSTROM
     27          9  H    CARTESIAN Z     1.475285     -1.257570  KCAL/ANGSTROM
     28         10  H    CARTESIAN X    -2.091107     -0.023815  KCAL/ANGSTROM
     29         10  H    CARTESIAN Y    -1.034347     -0.004379  KCAL/ANGSTROM
     30         10  H    CARTESIAN Z     1.395235     -0.619129  KCAL/ANGSTROM
     31         11  H    CARTESIAN X    -1.222931      0.302148  KCAL/ANGSTROM
     32         11  H    CARTESIAN Y    -1.968864      0.541990  KCAL/ANGSTROM
     33         11  H    CARTESIAN Z     0.159209     -0.290923  KCAL/ANGSTROM
     34         12  H    CARTESIAN X    -2.668562      0.417754  KCAL/ANGSTROM
     35         12  H    CARTESIAN Y    -0.588681      0.297459  KCAL/ANGSTROM
     36         12  H    CARTESIAN Z    -1.475285      0.946396  KCAL/ANGSTROM
     37         13  H    CARTESIAN X    -2.616984     -0.012331  KCAL/ANGSTROM
     38         13  H    CARTESIAN Y     1.538307     -0.149602  KCAL/ANGSTROM
     39         13  H    CARTESIAN Z     0.820244     -0.939249  KCAL/ANGSTROM
     40         14  H    CARTESIAN X    -2.938570      0.455160  KCAL/ANGSTROM
     41         14  H    CARTESIAN Y     1.968864     -0.656712  KCAL/ANGSTROM
     42         14  H    CARTESIAN Z    -0.875325      0.519619  KCAL/ANGSTROM
     43         15  H    CARTESIAN X    -0.432231     -0.207227  KCAL/ANGSTROM
     44         15  H    CARTESIAN Y     1.306841     -0.316216  KCAL/ANGSTROM
     45         15  H    CARTESIAN Z    -1.414725      0.841238  KCAL/ANGSTROM




   ATOM   CHEMICAL          X               Y               Z
  NUMBER   SYMBOL      (ANGSTROMS)     (ANGSTROMS)     (ANGSTROMS)

     1       C          2.03729270  *  -0.99467529  *  -0.16649356  *
     2       C          0.94168420  *  -0.50033850  *   0.15279891  *
     3       C         -0.31204267  *   0.06392936  *   0.51822706  *
     4       C         -1.51814821  *  -0.96319351  *   0.46951663  *
     5       C         -2.16672960  *  -0.12988366  *  -0.64989403  *
     6       C         -2.38783474  *   1.30304364  *  -0.21480005  *
     7       C         -0.99837165  *   0.86802771  *  -0.62155121  *
     8       H          2.93857031  *  -1.40025465  *  -0.43157633  *
     9       H         -0.25326075  *   0.62216675  *   1.47528480  *
    10       H         -2.09110745  *  -1.03434749  *   1.39523505  *
    11       H         -1.22293057  *  -1.96886417  *   0.15920928  *
    12       H         -2.66856225  *  -0.58868113  *  -1.47528480  *
    13       H         -2.61698367  *   1.53830654  *   0.82024362  *
    14       H         -2.93857031  *   1.96886417  *  -0.87532537  *
    15       H         -0.43223053  *   1.30684115  *  -1.41472545  *

                             CARTESIAN COORDINATES

   1    C        2.037292698    -0.994675286    -0.166493556
   2    C        0.941684204    -0.500338496     0.152798908
   3    C       -0.312042671     0.063929361     0.518227060
   4    C       -1.518148214    -0.963193506     0.469516629
   5    C       -2.166729597    -0.129883658    -0.649894029
   6    C       -2.387834736     1.303043636    -0.214800052
   7    C       -0.998371646     0.868027714    -0.621551215
   8    H        2.938570306    -1.400254650    -0.431576332
   9    H       -0.253260745     0.622166751     1.475284800
  10    H       -2.091107451    -1.034347495     1.395235046
  11    H       -1.222930573    -1.968864172     0.159209275
  12    H       -2.668562251    -0.588681128    -1.475284800
  13    H       -2.616983673     1.538306537     0.820243620
  14    H       -2.938570306     1.968864172    -0.875325367
  15    H       -0.432230527     1.306841145    -1.414725448


           Empirical Formula: C7 H8  =    15 atoms



      MOLECULAR POINT GROUP   :   C1  


                  EIGENVALUES  
 -32.32659 -26.80848 -24.94991 -23.05699 -20.62092 -19.24529 -18.07329 -16.96920
 -15.93349 -15.43428 -13.96051 -13.45066 -12.80302 -12.39914 -11.47336 -11.13107
 -10.73015 -10.37782   1.07740   1.20741   2.01836   3.22234   3.31134   3.54218
   4.09461   4.44652   5.01570   5.49113   5.65178   5.80290   6.09382   6.12966
   6.16236   6.32116   6.38548   6.76187


              NET ATOMIC CHARGES AND DIPOLE CONTRIBUTIONS

  ATOM NO.   TYPE          CHARGE      No. of ELECS.   s-Pop       p-Pop       
    1          C          -0.234437        4.2344     1.14574     3.08870
    2          C          -0.074791        4.0748     1.11616     2.95863
    3          C          -0.103748        4.1037     1.05222     3.05153
    4          C          -0.264790        4.2648     1.07442     3.19037
    5          C          -0.176642        4.1766     1.06396     3.11268
    6          C          -0.327918        4.3279     1.05773     3.27019
    7          C          -0.177842        4.1778     1.06638     3.11146
    8          H           0.197600        0.8024     0.80240
    9          H           0.177199        0.8228     0.82280
   10          H           0.155385        0.8446     0.84461
   11          H           0.156728        0.8433     0.84327
   12          H           0.166790        0.8332     0.83321
   13          H           0.169109        0.8309     0.83089
   14          H           0.168166        0.8318     0.83183
   15          H           0.169190        0.8308     0.83081
 DIPOLE           X         Y         Z       TOTAL
 POINT-CHG.    -0.990     0.186     0.333     1.061
 HYBRID         0.118    -0.016    -0.081     0.144
 SUM           -0.873     0.170     0.252     0.924


          ATOMIC ORBITAL ELECTRON POPULATIONS

     Atom    s        px        py        pz   
    1  C   1.14574   1.03369   1.02500   1.03000
    2  C   1.11616   0.97722   0.99189   0.98952
    3  C   1.05222   0.94250   1.03178   1.07724
    4  C   1.07442   1.02751   1.06872   1.09415
    5  C   1.06396   1.07721   0.94440   1.09107
    6  C   1.05773   1.05339   1.04640   1.17040
    7  C   1.06638   0.94297   1.08381   1.08467
    8  H   0.80240
    9  H   0.82280
   10  H   0.84461
   11  H   0.84327
   12  H   0.83321
   13  H   0.83089
   14  H   0.83183
   15  H   0.83081

 **********************
 *                    *
 * JOB ENDED NORMALLY *
 *                    *
 **********************



 TOTAL JOB TIME:             1.21 SECONDS

 == MOPAC DONE ==
