 *******************************************************************************
 **                                                                           **
 **                              MOPAC v23.2                                  **
 **                                                                           **
 *******************************************************************************
 **          Digital Object Identifier (DOI): 10.5281/zenodo.6511958          **
 **    Visit the DOI location for information on how to cite this program.    **
 *******************************************************************************

                              PM7 CALCULATION RESULTS

 *******************************************************************************
 *  CALCULATION DONE: (MAX THREADS = 40)             Fri Sep 19 21:27:31 2025  *
 *  PM7        - The PM7 Hamiltonian to be used
 *  1SCF       - DO 1 SCF AND THEN STOP 
 *  T=         - A TIME OF 172800.0 SECONDS REQUESTED
 *  DUMP=N     - RESTART FILE WRITTEN EVERY 7200.0 SECONDS REQUESTED
 *  RELSCF     - DEFAULT SCF CRITERION MULTIPLIED BY 0.0001
 *              (DEFAULT SCF CRITERION = 0.00010)
 *  GRADIENTS  - ALL GRADIENTS TO BE PRINTED
 *  DISP       - PRINT DISPERSION AND HYDROGEN BOND ENERGIES
 *******************************************************************************
PM7 1SCF GRADIENTS DISP RELSCF=0.0001
 Title: ASE calculation

   ATOM   CHEMICAL          X               Y               Z
  NUMBER   SYMBOL      (ANGSTROMS)     (ANGSTROMS)     (ANGSTROMS)

     1       N         -1.04771940  *   2.46621283  *   0.42983770  *
     2       C         -0.75985109  *   1.35206854  *   0.54069488  *
     3       C         -0.40053560  *  -0.04317698  *   0.68536287  *
     4       C         -1.58792820  *  -0.96533546  *   0.32296677  *
     5       C         -1.23521983  *  -1.50487497  *  -1.06890068  *
     6       O          0.13002354  *  -1.19481669  *  -1.34846605  *
     7       C          0.68091441  *  -0.44235665  *  -0.30957477  *
     8       C          2.07827376  *  -0.84561254  *   0.09929235  *
     9       C          1.85415703  *   0.41051114  *  -0.71757728  *
    10       H         -0.05904136  *  -0.23725511  *   1.73732109  *
    11       H         -1.68781634  *  -1.78323975  *   1.05787502  *
    12       H         -2.55233123  *  -0.42934991  *   0.32870601  *
    13       H         -1.30411662  *  -2.60237239  *  -1.14485279  *
    14       H         -1.81788245  *  -1.03256355  *  -1.87860518  *
    15       H          2.53564013  *  -1.71221856  *  -0.37445679  *
    16       H          2.39378955  *  -0.77361173  *   1.13356822  *
    17       H          2.00675742  *   1.38858209  *  -0.27176059  *
    18       H          2.15447897  *   0.42604428  *  -1.76509124  *



          CARTESIAN COORDINATES 

    NO.       ATOM           X           Y           Z

     1         N         -1.0477      2.4662      0.4298
     2         C         -0.7599      1.3521      0.5407
     3         C         -0.4005     -0.0432      0.6854
     4         C         -1.5879     -0.9653      0.3230
     5         C         -1.2352     -1.5049     -1.0689
     6         O          0.1300     -1.1948     -1.3485
     7         C          0.6809     -0.4424     -0.3096
     8         C          2.0783     -0.8456      0.0993
     9         C          1.8542      0.4105     -0.7176
    10         H         -0.0590     -0.2373      1.7373
    11         H         -1.6878     -1.7832      1.0579
    12         H         -2.5523     -0.4293      0.3287
    13         H         -1.3041     -2.6024     -1.1449
    14         H         -1.8179     -1.0326     -1.8786
    15         H          2.5356     -1.7122     -0.3745
    16         H          2.3938     -0.7736      1.1336
    17         H          2.0068      1.3886     -0.2718
    18         H          2.1545      0.4260     -1.7651

 General Reference for PM7:
 "Optimization of Parameters for Semiempirical Methods VI: More Modifications to the 
 NDDO Approximations and Re-optimization of Parameters", J. J. P. Stewart, J. Mol. Mod., 1:32, 19 (2013)
 https://link.springer.com/article/10.1007/s00894-012-1667-x

           Empirical Formula: C7 H9 N O  =    18 atoms



      MOLECULAR POINT GROUP   :   C1  


      RHF CALCULATION, NO. OF DOUBLY OCCUPIED LEVELS = 24

  SCF CRITERION =    0.1000E-07

 -------------------------------------------------------------------------------
 PM7 1SCF GRADIENTS DISP RELSCF=0.0001
 Title: ASE calculation



     1SCF WAS SPECIFIED, SO BFGS WAS NOT USED                 
     SCF FIELD WAS ACHIEVED                                   


                              PM7 CALCULATION
                                                       MOPAC v23.2 Linux
                                                       Fri Sep 19 21:27:32 2025




          FINAL HEAT OF FORMATION =          6.12750 KCAL/MOL =      25.63747 KJ/MOL

          TOTAL ENERGY            =     -33701.21665 KCAL/MOL = ELECTRONIC ENERGY + CORE-CORE REPULSION
          ENERGY OF ATOMS         =      33709.16394 KCAL/MOL
                              SUM =          7.94728 KCAL/MOL
          DISPERSION ENERGY       =         -1.81978 KCAL/MOL
                              SUM =          6.12750 KCAL/MOL = FINAL HEAT OF FORMATION



          TOTAL ENERGY            =      -1461.42307 EV
          ELECTRONIC ENERGY       =      -7049.80898 EV 
          CORE-CORE REPULSION     =       5588.38591 EV
          COSMO AREA              =        162.26 SQUARE ANGSTROMS
          COSMO VOLUME            =        160.51 CUBIC ANGSTROMS

          GRADIENT NORM           =          0.95534          =       0.22518 PER ATOM
          IONIZATION POTENTIAL    =          9.922505 EV
          HOMO LUMO ENERGIES (EV) =         -9.923  0.943
          NO. OF FILLED LEVELS    =         24
          MOLECULAR WEIGHT        =        123.1542         POINT GROUP:  C1  

          MOLECULAR DIMENSIONS (Angstroms)

            Atom       Atom       Distance
            H    15    N     1     5.56297
            H    13    H    17     5.16424
            H    10    H    18     3.59757


          SCF CALCULATIONS        =          1

          WALL-CLOCK TIME         =      0.859 SECONDS
          COMPUTATION TIME        =      0.975 SECONDS

          LARGEST ATOMIC GRADIENTS

          Atom     Label                     Cartesian Gradients           Cartesian Coordinates       |Gradient|
                                           X          Y          Z        X          Y          Z

            14       H                  -0.257     -0.175     -0.092   -1.81788   -1.03256   -1.87861      0.324
            16       H                  -0.256      0.118     -0.112    2.39379   -0.77361    1.13357      0.303
             5       C                   0.179      0.222      0.009   -1.23522   -1.50487   -1.06890      0.285
            13       H                   0.234      0.145      0.001   -1.30412   -2.60237   -1.14485      0.275
            11       H                  -0.109     -0.231     -0.079   -1.68782   -1.78324    1.05788      0.268
             8       C                  -0.255     -0.074      0.022    2.07827   -0.84561    0.09929      0.266
            18       H                   0.197     -0.149     -0.094    2.15448    0.42604   -1.76509      0.265
             6       O                   0.222     -0.109     -0.043    0.13002   -1.19482   -1.34847      0.251
             4       C                   0.156      0.109      0.155   -1.58793   -0.96534    0.32297      0.245
            12       H                  -0.163      0.043      0.167   -2.55233   -0.42935    0.32871      0.237



       FINAL  POINT  AND  DERIVATIVES

   PARAMETER     ATOM    TYPE            VALUE        GRADIENT
      1          1  N    CARTESIAN X    -1.047719      0.014334  KCAL/ANGSTROM
      2          1  N    CARTESIAN Y     2.466213     -0.063282  KCAL/ANGSTROM
      3          1  N    CARTESIAN Z     0.429838      0.024787  KCAL/ANGSTROM
      4          2  C    CARTESIAN X    -0.759851     -0.140308  KCAL/ANGSTROM
      5          2  C    CARTESIAN Y     1.352069      0.067728  KCAL/ANGSTROM
      6          2  C    CARTESIAN Z     0.540695      0.169403  KCAL/ANGSTROM
      7          3  C    CARTESIAN X    -0.400536      0.100447  KCAL/ANGSTROM
      8          3  C    CARTESIAN Y    -0.043177      0.031841  KCAL/ANGSTROM
      9          3  C    CARTESIAN Z     0.685363      0.010688  KCAL/ANGSTROM
     10          4  C    CARTESIAN X    -1.587928      0.156102  KCAL/ANGSTROM
     11          4  C    CARTESIAN Y    -0.965335      0.108571  KCAL/ANGSTROM
     12          4  C    CARTESIAN Z     0.322967      0.154937  KCAL/ANGSTROM
     13          5  C    CARTESIAN X    -1.235220      0.178505  KCAL/ANGSTROM
     14          5  C    CARTESIAN Y    -1.504875      0.222418  KCAL/ANGSTROM
     15          5  C    CARTESIAN Z    -1.068901      0.009016  KCAL/ANGSTROM
     16          6  O    CARTESIAN X     0.130024      0.222343  KCAL/ANGSTROM
     17          6  O    CARTESIAN Y    -1.194817     -0.109145  KCAL/ANGSTROM
     18          6  O    CARTESIAN Z    -1.348466     -0.042507  KCAL/ANGSTROM
     19          7  C    CARTESIAN X     0.680914      0.007839  KCAL/ANGSTROM
     20          7  C    CARTESIAN Y    -0.442357     -0.042785  KCAL/ANGSTROM
     21          7  C    CARTESIAN Z    -0.309575     -0.052668  KCAL/ANGSTROM
     22          8  C    CARTESIAN X     2.078274     -0.254511  KCAL/ANGSTROM
     23          8  C    CARTESIAN Y    -0.845613     -0.074444  KCAL/ANGSTROM
     24          8  C    CARTESIAN Z     0.099292      0.021615  KCAL/ANGSTROM
     25          9  C    CARTESIAN X     1.854157      0.067873  KCAL/ANGSTROM
     26          9  C    CARTESIAN Y     0.410511     -0.055679  KCAL/ANGSTROM
     27          9  C    CARTESIAN Z    -0.717577     -0.080012  KCAL/ANGSTROM
     28         10  H    CARTESIAN X    -0.059041     -0.048130  KCAL/ANGSTROM
     29         10  H    CARTESIAN Y    -0.237255      0.095484  KCAL/ANGSTROM
     30         10  H    CARTESIAN Z     1.737321     -0.029528  KCAL/ANGSTROM
     31         11  H    CARTESIAN X    -1.687816     -0.109245  KCAL/ANGSTROM
     32         11  H    CARTESIAN Y    -1.783240     -0.231406  KCAL/ANGSTROM
     33         11  H    CARTESIAN Z     1.057875     -0.079076  KCAL/ANGSTROM
     34         12  H    CARTESIAN X    -2.552331     -0.163033  KCAL/ANGSTROM
     35         12  H    CARTESIAN Y    -0.429350      0.042745  KCAL/ANGSTROM
     36         12  H    CARTESIAN Z     0.328706      0.166521  KCAL/ANGSTROM
     37         13  H    CARTESIAN X    -1.304117      0.233845  KCAL/ANGSTROM
     38         13  H    CARTESIAN Y    -2.602372      0.144566  KCAL/ANGSTROM
     39         13  H    CARTESIAN Z    -1.144853      0.000612  KCAL/ANGSTROM
     40         14  H    CARTESIAN X    -1.817882     -0.257245  KCAL/ANGSTROM
     41         14  H    CARTESIAN Y    -1.032564     -0.174786  KCAL/ANGSTROM
     42         14  H    CARTESIAN Z    -1.878605     -0.091816  KCAL/ANGSTROM
     43         15  H    CARTESIAN X     2.535640     -0.038458  KCAL/ANGSTROM
     44         15  H    CARTESIAN Y    -1.712219      0.195611  KCAL/ANGSTROM
     45         15  H    CARTESIAN Z    -0.374457     -0.024040  KCAL/ANGSTROM
     46         16  H    CARTESIAN X     2.393790     -0.255704  KCAL/ANGSTROM
     47         16  H    CARTESIAN Y    -0.773612      0.118381  KCAL/ANGSTROM
     48         16  H    CARTESIAN Z     1.133568     -0.111809  KCAL/ANGSTROM
     49         17  H    CARTESIAN X     2.006757      0.087848  KCAL/ANGSTROM
     50         17  H    CARTESIAN Y     1.388582     -0.127106  KCAL/ANGSTROM
     51         17  H    CARTESIAN Z    -0.271761      0.048281  KCAL/ANGSTROM
     52         18  H    CARTESIAN X     2.154479      0.197499  KCAL/ANGSTROM
     53         18  H    CARTESIAN Y     0.426044     -0.148717  KCAL/ANGSTROM
     54         18  H    CARTESIAN Z    -1.765091     -0.094411  KCAL/ANGSTROM




   ATOM   CHEMICAL          X               Y               Z
  NUMBER   SYMBOL      (ANGSTROMS)     (ANGSTROMS)     (ANGSTROMS)

     1       N         -1.04771940  *   2.46621283  *   0.42983770  *
     2       C         -0.75985109  *   1.35206854  *   0.54069488  *
     3       C         -0.40053560  *  -0.04317698  *   0.68536287  *
     4       C         -1.58792820  *  -0.96533546  *   0.32296677  *
     5       C         -1.23521983  *  -1.50487497  *  -1.06890068  *
     6       O          0.13002354  *  -1.19481669  *  -1.34846605  *
     7       C          0.68091441  *  -0.44235665  *  -0.30957477  *
     8       C          2.07827376  *  -0.84561254  *   0.09929235  *
     9       C          1.85415703  *   0.41051114  *  -0.71757728  *
    10       H         -0.05904136  *  -0.23725511  *   1.73732109  *
    11       H         -1.68781634  *  -1.78323975  *   1.05787502  *
    12       H         -2.55233123  *  -0.42934991  *   0.32870601  *
    13       H         -1.30411662  *  -2.60237239  *  -1.14485279  *
    14       H         -1.81788245  *  -1.03256355  *  -1.87860518  *
    15       H          2.53564013  *  -1.71221856  *  -0.37445679  *
    16       H          2.39378955  *  -0.77361173  *   1.13356822  *
    17       H          2.00675742  *   1.38858209  *  -0.27176059  *
    18       H          2.15447897  *   0.42604428  *  -1.76509124  *

                             CARTESIAN COORDINATES

   1    N       -1.047719404     2.466212826     0.429837700
   2    C       -0.759851088     1.352068538     0.540694882
   3    C       -0.400535602    -0.043176984     0.685362874
   4    C       -1.587928200    -0.965335463     0.322966769
   5    C       -1.235219831    -1.504874970    -1.068900678
   6    O        0.130023545    -1.194816695    -1.348466046
   7    C        0.680914415    -0.442356650    -0.309574769
   8    C        2.078273758    -0.845612539     0.099292345
   9    C        1.854157027     0.410511137    -0.717577283
  10    H       -0.059041362    -0.237255113     1.737321086
  11    H       -1.687816342    -1.783239746     1.057875016
  12    H       -2.552331228    -0.429349906     0.328706008
  13    H       -1.304116620    -2.602372385    -1.144852785
  14    H       -1.817882454    -1.032563547    -1.878605179
  15    H        2.535640134    -1.712218561    -0.374456785
  16    H        2.393789554    -0.773611734     1.133568223
  17    H        2.006757420     1.388582091    -0.271760593
  18    H        2.154478972     0.426044280    -1.765091238


           Empirical Formula: C7 H9 N O  =    18 atoms



      MOLECULAR POINT GROUP   :   C1  


                  EIGENVALUES  
 -35.06623 -31.91857 -29.77041 -28.11814 -24.89434 -21.84381 -21.30977 -20.45284
 -18.58827 -17.39997 -16.63846 -16.04880 -15.44365 -14.43530 -14.32355 -13.79381
 -13.55301 -13.28390 -12.78224 -12.60776 -12.52074 -11.96914 -11.84942  -9.92250
   0.94280   1.08615   1.78754   2.01665   2.59668   2.90729   3.22066   3.65627
   3.93024   4.01750   4.34094   4.53840   4.80166   5.36628   5.37967   5.59372
   5.65105   5.70427   5.83303   6.23339   6.27409


              NET ATOMIC CHARGES AND DIPOLE CONTRIBUTIONS

  ATOM NO.   TYPE          CHARGE      No. of ELECS.   s-Pop       p-Pop       
    1          N          -0.242886        5.2429     1.83069     3.41220
    2          C           0.103294        3.8967     1.11985     2.77686
    3          C          -0.119183        4.1192     1.05549     3.06369
    4          C          -0.303816        4.3038     1.07170     3.23212
    5          C          -0.037169        4.0372     1.09327     2.94390
    6          O          -0.364089        6.3641     1.87881     4.48528
    7          C           0.206036        3.7940     1.05255     2.74141
    8          C          -0.362978        4.3630     1.05791     3.30507
    9          C          -0.344018        4.3440     1.05751     3.28651
   10          H           0.182896        0.8171     0.81710
   11          H           0.157197        0.8428     0.84280
   12          H           0.162826        0.8372     0.83717
   13          H           0.138541        0.8615     0.86146
   14          H           0.139183        0.8608     0.86082
   15          H           0.176255        0.8237     0.82374
   16          H           0.161071        0.8389     0.83893
   17          H           0.168237        0.8318     0.83176
   18          H           0.178601        0.8214     0.82140
 DIPOLE           X         Y         Z       TOTAL
 POINT-CHG.    -0.565    -2.930     1.549     3.362
 HYBRID         0.227    -0.327    -0.032     0.399
 SUM           -0.338    -3.256     1.517     3.608


          ATOMIC ORBITAL ELECTRON POPULATIONS

     Atom    s        px        py        pz   
    1  N   1.83069   1.09874   1.21510   1.09836
    2  C   1.11985   0.92769   0.92509   0.92409
    3  C   1.05549   1.02011   0.93208   1.11151
    4  C   1.07170   1.06584   1.09794   1.06834
    5  C   1.09327   0.83266   1.10327   1.00797
    6  O   1.87881   1.30121   1.74089   1.44318
    7  C   1.05255   0.86356   0.98667   0.89118
    8  C   1.05791   1.08594   1.08738   1.13175
    9  C   1.05751   1.09940   1.04278   1.14433
   10  H   0.81710
   11  H   0.84280
   12  H   0.83717
   13  H   0.86146
   14  H   0.86082
   15  H   0.82374
   16  H   0.83893
   17  H   0.83176
   18  H   0.82140

 **********************
 *                    *
 * JOB ENDED NORMALLY *
 *                    *
 **********************



 TOTAL JOB TIME:             1.38 SECONDS

 == MOPAC DONE ==
