 *******************************************************************************
 **                                                                           **
 **                              MOPAC v23.2                                  **
 **                                                                           **
 *******************************************************************************
 **          Digital Object Identifier (DOI): 10.5281/zenodo.6511958          **
 **    Visit the DOI location for information on how to cite this program.    **
 *******************************************************************************

                              PM7 CALCULATION RESULTS

 *******************************************************************************
 *  CALCULATION DONE: (MAX THREADS = 40)             Fri Sep 19 21:36:10 2025  *
 *  PM7        - The PM7 Hamiltonian to be used
 *  EPS=37.5   - USE ANDREAS KLAMT'S COSMO IMPLICIT SOLVATION MODEL
 *  1SCF       - DO 1 SCF AND THEN STOP 
 *  T=         - A TIME OF 172800.0 SECONDS REQUESTED
 *  DUMP=N     - RESTART FILE WRITTEN EVERY 7200.0 SECONDS REQUESTED
 *  RELSCF     - DEFAULT SCF CRITERION MULTIPLIED BY 0.0001
 *              (DEFAULT SCF CRITERION = 0.00010)
 *  GRADIENTS  - ALL GRADIENTS TO BE PRINTED
 *  DISP       - PRINT DISPERSION AND HYDROGEN BOND ENERGIES
 *******************************************************************************
PM7 1SCF GRADIENTS EPS=37.5 DISP RELSCF=0.0001
 Title: ASE calculation

   ATOM   CHEMICAL          X               Y               Z
  NUMBER   SYMBOL      (ANGSTROMS)     (ANGSTROMS)     (ANGSTROMS)

     1       C          2.41387299  *  -0.79105381  *   0.36675351  *
     2       O          1.39356249  *   0.02376159  *  -0.19693198  *
     3       C          0.18466370  *  -0.07826229  *   0.43612480  *
     4       C         -0.74979099  *   0.82486415  *   0.09250293  *
     5       C         -0.48080626  *   1.92265044  *  -0.87457113  *
     6       C         -2.11876321  *   0.76866227  *   0.66912878  *
     7       O         -3.05765585  *   0.34510300  *  -0.35835284  *
     8       C         -3.25402734  *  -0.79828261  *  -0.80606558  *
     9       C         -2.55577979  *  -2.03716620  *  -0.38932421  *
    10       H          2.61982066  *  -0.49333641  *   1.39898661  *
    11       H          3.27767165  *  -0.56762715  *  -0.27343524  *
    12       H          2.15501139  *  -1.85134724  *   0.30377901  *
    13       H          0.06603896  *  -0.88022385  *   1.14953407  *
    14       H          0.38747080  *   1.71279119  *  -1.51740651  *
    15       H         -1.33918463  *   2.09953428  *  -1.53989488  *
    16       H         -0.26770104  *   2.86450463  *  -0.34771168  *
    17       H         -2.21921285  *   0.10658802  *   1.53989488  *
    18       H         -2.50641175  *   1.76963395  *   0.93461280  *
    19       H         -1.83051206  *  -2.32576290  *  -1.16715648  *
    20       H         -2.01621788  *  -1.97272523  *   0.55953423  *
    21       H         -3.27767165  *  -2.86450463  *  -0.31537929  *



          CARTESIAN COORDINATES 

    NO.       ATOM           X           Y           Z

     1         C          2.4139     -0.7911      0.3668
     2         O          1.3936      0.0238     -0.1969
     3         C          0.1847     -0.0783      0.4361
     4         C         -0.7498      0.8249      0.0925
     5         C         -0.4808      1.9227     -0.8746
     6         C         -2.1188      0.7687      0.6691
     7         O         -3.0577      0.3451     -0.3584
     8         C         -3.2540     -0.7983     -0.8061
     9         C         -2.5558     -2.0372     -0.3893
    10         H          2.6198     -0.4933      1.3990
    11         H          3.2777     -0.5676     -0.2734
    12         H          2.1550     -1.8513      0.3038
    13         H          0.0660     -0.8802      1.1495
    14         H          0.3875      1.7128     -1.5174
    15         H         -1.3392      2.0995     -1.5399
    16         H         -0.2677      2.8645     -0.3477
    17         H         -2.2192      0.1066      1.5399
    18         H         -2.5064      1.7696      0.9346
    19         H         -1.8305     -2.3258     -1.1672
    20         H         -2.0162     -1.9727      0.5595
    21         H         -3.2777     -2.8645     -0.3154

 General Reference for PM7:
 "Optimization of Parameters for Semiempirical Methods VI: More Modifications to the 
 NDDO Approximations and Re-optimization of Parameters", J. J. P. Stewart, J. Mol. Mod., 1:32, 19 (2013)
 https://link.springer.com/article/10.1007/s00894-012-1667-x

           Empirical Formula: C7 H12 O2  =    21 atoms



      MOLECULAR POINT GROUP   :   C1  


      RHF CALCULATION, NO. OF DOUBLY OCCUPIED LEVELS = 26

  SCF CRITERION =    0.1000E-07

 -------------------------------------------------------------------------------
 PM7 1SCF GRADIENTS EPS=37.5 DISP RELSCF=0.0001
 Title: ASE calculation



     1SCF WAS SPECIFIED, SO BFGS WAS NOT USED                 
     SCF FIELD WAS ACHIEVED                                   


                              PM7 CALCULATION
                                                       MOPAC v23.2 Linux
                                                       Fri Sep 19 21:36:11 2025




          FINAL HEAT OF FORMATION =        -46.82403 KCAL/MOL =    -195.91174 KJ/MOL

          TOTAL ENERGY            =     -37141.73479 KCAL/MOL = ELECTRONIC ENERGY + CORE-CORE REPULSION + SOLVATION ENERGY
          ENERGY OF ATOMS         =      37097.27293 KCAL/MOL
                              SUM =        -44.46186 KCAL/MOL
          DISPERSION ENERGY       =         -2.36217 KCAL/MOL
                              SUM =        -46.82403 KCAL/MOL = FINAL HEAT OF FORMATION

          VAN DER WAALS AREA      =        179.67 SQUARE ANGSTROMS


          TOTAL ENERGY            =      -1610.61806 EV
          ELECTRONIC ENERGY       =      -2320.45307 EV 
          CORE-CORE REPULSION     =        709.83501 EV

          DIELECTRIC ENERGY       =         -0.42801 EV
          COSMO AREA              =        179.67 SQUARE ANGSTROMS
          COSMO VOLUME            =        179.46 CUBIC ANGSTROMS

          GRADIENT NORM           =         20.57291          =       4.48938 PER ATOM
          IONIZATION POTENTIAL    =          8.855040 EV
          HOMO LUMO ENERGIES (EV) =         -8.855  0.619
          NO. OF FILLED LEVELS    =         26
          MOLECULAR WEIGHT        =        128.1706         POINT GROUP:  C1  

          MOLECULAR DIMENSIONS (Angstroms)

            Atom       Atom       Distance
            H    21    H    11     6.94622
            H    16    H    12     5.29140
            H    17    H    19     2.98050


          SCF CALCULATIONS        =          2

          WALL-CLOCK TIME         =      0.883 SECONDS
          COMPUTATION TIME        =      0.981 SECONDS

          LARGEST ATOMIC GRADIENTS

          Atom     Label                     Cartesian Gradients           Cartesian Coordinates       |Gradient|
                                           X          Y          Z        X          Y          Z

             8       C                  -3.478     12.108     -0.832   -3.25403   -0.79828   -0.80607     12.625
             9       C                   6.225     -9.355      4.884   -2.55578   -2.03717   -0.38932     12.252
             7       O                  -1.305     -6.078     -2.505   -3.05766    0.34510   -0.35835      6.703
             2       O                   3.873     -0.573     -2.100    1.39356    0.02376   -0.19693      4.442
             3       C                  -0.117     -1.929      2.451    0.18466   -0.07826    0.43612      3.121
             1       C                  -2.514     -0.047      0.880    2.41387   -0.79105    0.36675      2.664
            13       H                  -0.541      1.801     -1.513    0.06604   -0.88022    1.14953      2.413
             6       C                  -1.055     -0.228      1.858   -2.11876    0.76866    0.66913      2.149
            17       H                   0.369      1.378     -1.216   -2.21921    0.10659    1.53989      1.875
            21       H                  -0.519      1.384     -0.876   -3.27767   -2.86450   -0.31538      1.718



       FINAL  POINT  AND  DERIVATIVES

   PARAMETER     ATOM    TYPE            VALUE        GRADIENT
      1          1  C    CARTESIAN X     2.413873     -2.514416  KCAL/ANGSTROM
      2          1  C    CARTESIAN Y    -0.791054     -0.047206  KCAL/ANGSTROM
      3          1  C    CARTESIAN Z     0.366754      0.879691  KCAL/ANGSTROM
      4          2  O    CARTESIAN X     1.393562      3.872725  KCAL/ANGSTROM
      5          2  O    CARTESIAN Y     0.023762     -0.572616  KCAL/ANGSTROM
      6          2  O    CARTESIAN Z    -0.196932     -2.099722  KCAL/ANGSTROM
      7          3  C    CARTESIAN X     0.184664     -0.116975  KCAL/ANGSTROM
      8          3  C    CARTESIAN Y    -0.078262     -1.928753  KCAL/ANGSTROM
      9          3  C    CARTESIAN Z     0.436125      2.450787  KCAL/ANGSTROM
     10          4  C    CARTESIAN X    -0.749791      0.619576  KCAL/ANGSTROM
     11          4  C    CARTESIAN Y     0.824864     -0.025223  KCAL/ANGSTROM
     12          4  C    CARTESIAN Z     0.092503      1.095256  KCAL/ANGSTROM
     13          5  C    CARTESIAN X    -0.480806     -0.016755  KCAL/ANGSTROM
     14          5  C    CARTESIAN Y     1.922650      1.430295  KCAL/ANGSTROM
     15          5  C    CARTESIAN Z    -0.874571      0.634017  KCAL/ANGSTROM
     16          6  C    CARTESIAN X    -2.118763     -1.055334  KCAL/ANGSTROM
     17          6  C    CARTESIAN Y     0.768662     -0.228337  KCAL/ANGSTROM
     18          6  C    CARTESIAN Z     0.669129      1.857603  KCAL/ANGSTROM
     19          7  O    CARTESIAN X    -3.057656     -1.305034  KCAL/ANGSTROM
     20          7  O    CARTESIAN Y     0.345103     -6.078232  KCAL/ANGSTROM
     21          7  O    CARTESIAN Z    -0.358353     -2.505394  KCAL/ANGSTROM
     22          8  C    CARTESIAN X    -3.254027     -3.478298  KCAL/ANGSTROM
     23          8  C    CARTESIAN Y    -0.798283     12.108198  KCAL/ANGSTROM
     24          8  C    CARTESIAN Z    -0.806066     -0.832151  KCAL/ANGSTROM
     25          9  C    CARTESIAN X    -2.555780      6.225051  KCAL/ANGSTROM
     26          9  C    CARTESIAN Y    -2.037166     -9.355162  KCAL/ANGSTROM
     27          9  C    CARTESIAN Z    -0.389324      4.883666  KCAL/ANGSTROM
     28         10  H    CARTESIAN X     2.619821     -0.010867  KCAL/ANGSTROM
     29         10  H    CARTESIAN Y    -0.493336      0.501889  KCAL/ANGSTROM
     30         10  H    CARTESIAN Z     1.398987     -0.948972  KCAL/ANGSTROM
     31         11  H    CARTESIAN X     3.277672     -0.986971  KCAL/ANGSTROM
     32         11  H    CARTESIAN Y    -0.567627      0.591358  KCAL/ANGSTROM
     33         11  H    CARTESIAN Z    -0.273435      0.164362  KCAL/ANGSTROM
     34         12  H    CARTESIAN X     2.155011      0.326417  KCAL/ANGSTROM
     35         12  H    CARTESIAN Y    -1.851347      0.737725  KCAL/ANGSTROM
     36         12  H    CARTESIAN Z     0.303779     -0.300805  KCAL/ANGSTROM
     37         13  H    CARTESIAN X     0.066039     -0.540823  KCAL/ANGSTROM
     38         13  H    CARTESIAN Y    -0.880224      1.800839  KCAL/ANGSTROM
     39         13  H    CARTESIAN Z     1.149534     -1.512961  KCAL/ANGSTROM
     40         14  H    CARTESIAN X     0.387471      0.392910  KCAL/ANGSTROM
     41         14  H    CARTESIAN Y     1.712791     -0.633684  KCAL/ANGSTROM
     42         14  H    CARTESIAN Z    -1.517407      0.267556  KCAL/ANGSTROM
     43         15  H    CARTESIAN X    -1.339185     -0.271663  KCAL/ANGSTROM
     44         15  H    CARTESIAN Y     2.099534     -0.412388  KCAL/ANGSTROM
     45         15  H    CARTESIAN Z    -1.539895     -0.288829  KCAL/ANGSTROM
     46         16  H    CARTESIAN X    -0.267701      0.358525  KCAL/ANGSTROM
     47         16  H    CARTESIAN Y     2.864505     -1.198592  KCAL/ANGSTROM
     48         16  H    CARTESIAN Z    -0.347712      0.273634  KCAL/ANGSTROM
     49         17  H    CARTESIAN X    -2.219213      0.369043  KCAL/ANGSTROM
     50         17  H    CARTESIAN Y     0.106588      1.378491  KCAL/ANGSTROM
     51         17  H    CARTESIAN Z     1.539895     -1.215734  KCAL/ANGSTROM
     52         18  H    CARTESIAN X    -2.506412      0.426642  KCAL/ANGSTROM
     53         18  H    CARTESIAN Y     1.769634     -0.871880  KCAL/ANGSTROM
     54         18  H    CARTESIAN Z     0.934613     -0.752564  KCAL/ANGSTROM
     55         19  H    CARTESIAN X    -1.830512     -1.270342  KCAL/ANGSTROM
     56         19  H    CARTESIAN Y    -2.325763      1.033497  KCAL/ANGSTROM
     57         19  H    CARTESIAN Z    -1.167156     -0.299667  KCAL/ANGSTROM
     58         20  H    CARTESIAN X    -2.016218     -0.503921  KCAL/ANGSTROM
     59         20  H    CARTESIAN Y    -1.972725      0.385837  KCAL/ANGSTROM
     60         20  H    CARTESIAN Z     0.559534     -0.873983  KCAL/ANGSTROM
     61         21  H    CARTESIAN X    -3.277672     -0.519493  KCAL/ANGSTROM
     62         21  H    CARTESIAN Y    -2.864505      1.383942  KCAL/ANGSTROM
     63         21  H    CARTESIAN Z    -0.315379     -0.875794  KCAL/ANGSTROM




   ATOM   CHEMICAL          X               Y               Z
  NUMBER   SYMBOL      (ANGSTROMS)     (ANGSTROMS)     (ANGSTROMS)

     1       C          2.41387299  *  -0.79105381  *   0.36675351  *
     2       O          1.39356249  *   0.02376159  *  -0.19693198  *
     3       C          0.18466370  *  -0.07826229  *   0.43612480  *
     4       C         -0.74979099  *   0.82486415  *   0.09250293  *
     5       C         -0.48080626  *   1.92265044  *  -0.87457113  *
     6       C         -2.11876321  *   0.76866227  *   0.66912878  *
     7       O         -3.05765585  *   0.34510300  *  -0.35835284  *
     8       C         -3.25402734  *  -0.79828261  *  -0.80606558  *
     9       C         -2.55577979  *  -2.03716620  *  -0.38932421  *
    10       H          2.61982066  *  -0.49333641  *   1.39898661  *
    11       H          3.27767165  *  -0.56762715  *  -0.27343524  *
    12       H          2.15501139  *  -1.85134724  *   0.30377901  *
    13       H          0.06603896  *  -0.88022385  *   1.14953407  *
    14       H          0.38747080  *   1.71279119  *  -1.51740651  *
    15       H         -1.33918463  *   2.09953428  *  -1.53989488  *
    16       H         -0.26770104  *   2.86450463  *  -0.34771168  *
    17       H         -2.21921285  *   0.10658802  *   1.53989488  *
    18       H         -2.50641175  *   1.76963395  *   0.93461280  *
    19       H         -1.83051206  *  -2.32576290  *  -1.16715648  *
    20       H         -2.01621788  *  -1.97272523  *   0.55953423  *
    21       H         -3.27767165  *  -2.86450463  *  -0.31537929  *

                             CARTESIAN COORDINATES

   1    C        2.413872995    -0.791053807     0.366753511
   2    O        1.393562494     0.023761593    -0.196931981
   3    C        0.184663700    -0.078262293     0.436124798
   4    C       -0.749790993     0.824864145     0.092502926
   5    C       -0.480806262     1.922650443    -0.874571129
   6    C       -2.118763213     0.768662266     0.669128781
   7    O       -3.057655850     0.345103000    -0.358352844
   8    C       -3.254027336    -0.798282610    -0.806065582
   9    C       -2.555779787    -2.037166202    -0.389324212
  10    H        2.619820665    -0.493336407     1.398986611
  11    H        3.277671650    -0.567627152    -0.273435241
  12    H        2.155011393    -1.851347236     0.303779009
  13    H        0.066038961    -0.880223846     1.149534071
  14    H        0.387470802     1.712791190    -1.517406511
  15    H       -1.339184633     2.099534280    -1.539894881
  16    H       -0.267701040     2.864504628    -0.347711684
  17    H       -2.219212850     0.106588024     1.539894881
  18    H       -2.506411753     1.769633946     0.934612801
  19    H       -1.830512057    -2.325762898    -1.167156478
  20    H       -2.016217878    -1.972725227     0.559534227
  21    H       -3.277671650    -2.864504628    -0.315379290


           Empirical Formula: C7 H12 O2  =    21 atoms



      MOLECULAR POINT GROUP   :   C1  


                  EIGENVALUES  
 -31.53799 -30.47736 -28.48292 -26.00354 -25.00089 -24.39282 -23.45442 -20.07118
 -18.50159 -17.25148 -16.67377 -16.51628 -15.65709 -15.34787 -14.83787 -14.20438
 -13.96472 -13.83005 -13.20394 -12.95398 -12.54438 -12.09935 -11.95977 -11.84563
  -9.80174  -8.85504   0.61894   1.32395   1.88776   2.10187   3.98804   4.41868
   4.59206   4.65490   5.22704   5.33298   5.50218   5.53356   5.59977   5.62499
   5.81361   5.82958   5.87093   5.99723   6.17685   6.27213   6.94685   7.00057


              NET ATOMIC CHARGES AND DIPOLE CONTRIBUTIONS

  ATOM NO.   TYPE          CHARGE      No. of ELECS.   s-Pop       p-Pop       
    1          C          -0.206033        4.2060     1.09006     3.11597
    2          O          -0.361030        6.3610     1.86607     4.49496
    3          C           0.048041        3.9520     1.11586     2.83610
    4          C          -0.150741        4.1507     1.06067     3.09008
    5          C          -0.432690        4.4327     1.04521     3.38748
    6          C          -0.148584        4.1486     1.09594     3.05265
    7          O          -0.264404        6.2644     1.82842     4.43599
    8          C           0.193169        3.8068     1.55286     2.25397
    9          C          -0.637581        4.6376     1.06993     3.56765
   10          H           0.146117        0.8539     0.85388
   11          H           0.160626        0.8394     0.83937
   12          H           0.145046        0.8550     0.85495
   13          H           0.158095        0.8419     0.84190
   14          H           0.159520        0.8405     0.84048
   15          H           0.159845        0.8402     0.84015
   16          H           0.162185        0.8378     0.83781
   17          H           0.147051        0.8529     0.85295
   18          H           0.165970        0.8340     0.83403
   19          H           0.195565        0.8044     0.80443
   20          H           0.169446        0.8306     0.83055
   21          H           0.190387        0.8096     0.80961
 DIPOLE           X         Y         Z       TOTAL
 POINT-CHG.     2.038    -1.869     2.395     3.658
 HYBRID         1.547    -0.231     1.068     1.894
 SUM            3.585    -2.100     3.463     5.408


          ATOMIC ORBITAL ELECTRON POPULATIONS

     Atom    s        px        py        pz   
    1  C   1.09006   0.94006   1.05190   1.12401
    2  O   1.86607   1.26819   1.66149   1.56528
    3  C   1.11586   0.83974   1.01753   0.97883
    4  C   1.06067   0.98491   1.03009   1.07508
    5  C   1.04521   1.18112   1.09197   1.11439
    6  C   1.09594   0.94164   1.13340   0.97761
    7  O   1.82842   1.50574   1.45932   1.47094
    8  C   1.55286   0.78487   0.73066   0.73845
    9  C   1.06993   1.19242   1.18280   1.19243
   10  H   0.85388
   11  H   0.83937
   12  H   0.85495
   13  H   0.84190
   14  H   0.84048
   15  H   0.84015
   16  H   0.83781
   17  H   0.85295
   18  H   0.83403
   19  H   0.80443
   20  H   0.83055
   21  H   0.80961

 **********************
 *                    *
 * JOB ENDED NORMALLY *
 *                    *
 **********************



 TOTAL JOB TIME:             1.27 SECONDS

 == MOPAC DONE ==
