 *******************************************************************************
 **                                                                           **
 **                              MOPAC v23.2                                  **
 **                                                                           **
 *******************************************************************************
 **          Digital Object Identifier (DOI): 10.5281/zenodo.6511958          **
 **    Visit the DOI location for information on how to cite this program.    **
 *******************************************************************************

                              PM7 CALCULATION RESULTS

 *******************************************************************************
 *  CALCULATION DONE: (MAX THREADS = 40)             Fri Sep 19 21:28:04 2025  *
 *  PM7        - The PM7 Hamiltonian to be used
 *
 *
 *
 *                 CHARGE ON SYSTEM = +1
 *
 *
 *
 *  1SCF       - DO 1 SCF AND THEN STOP 
 *  T=         - A TIME OF 172800.0 SECONDS REQUESTED
 *  DUMP=N     - RESTART FILE WRITTEN EVERY 7200.0 SECONDS REQUESTED
 *  RELSCF     - DEFAULT SCF CRITERION MULTIPLIED BY 0.0001
 *              (DEFAULT SCF CRITERION = 0.00010)
 *  GRADIENTS  - ALL GRADIENTS TO BE PRINTED
 *  DISP       - PRINT DISPERSION AND HYDROGEN BOND ENERGIES
 *******************************************************************************
PM7 1SCF GRADIENTS DISP RELSCF=0.0001 CHARGE=1
 Title: ASE calculation

   ATOM   CHEMICAL          X               Y               Z
  NUMBER   SYMBOL      (ANGSTROMS)     (ANGSTROMS)     (ANGSTROMS)

     1       O         -2.00472094  *   1.91167440  *  -0.64537232  *
     2       C         -1.40445264  *   1.16560775  *   0.35640676  *
     3       C          0.11502906  *   1.31895625  *   0.17551135  *
     4       C          0.72128265  *  -0.01500918  *  -0.18192489  *
     5       C          2.13283867  *  -0.41661507  *   0.06763794  *
     6       O          1.66381056  *  -0.05397642  *  -1.23678976  *
     7       C         -0.38259727  *  -1.05179754  *  -0.31332675  *
     8       N         -1.15297559  *  -1.33357240  *   0.85547224  *
     9       C         -1.73303133  *  -0.34584293  *   0.02942665  *
    10       H         -2.88652227  *   2.27719779  *  -0.38017143  *
    11       H         -1.77488553  *   1.43287971  *   1.36829303  *
    12       H          0.58730073  *   1.76526895  *   1.07364258  *
    13       H          0.31647080  *   2.05878566  *  -0.64874137  *
    14       H          2.42473003  *  -1.46044695  *   0.18698444  *
    15       H          2.84055749  *   0.28083441  *   0.52426840  *
    16       H         -0.20539612  *  -1.84211637  *  -1.06814654  *
    17       H         -1.32664876  *  -1.99841104  *   1.56790050  *
    18       H         -2.71710616  *  -0.49260439  *  -0.44442159  *



          CARTESIAN COORDINATES 

    NO.       ATOM           X           Y           Z

     1         O         -2.0047      1.9117     -0.6454
     2         C         -1.4045      1.1656      0.3564
     3         C          0.1150      1.3190      0.1755
     4         C          0.7213     -0.0150     -0.1819
     5         C          2.1328     -0.4166      0.0676
     6         O          1.6638     -0.0540     -1.2368
     7         C         -0.3826     -1.0518     -0.3133
     8         N         -1.1530     -1.3336      0.8555
     9         C         -1.7330     -0.3458      0.0294
    10         H         -2.8865      2.2772     -0.3802
    11         H         -1.7749      1.4329      1.3683
    12         H          0.5873      1.7653      1.0736
    13         H          0.3165      2.0588     -0.6487
    14         H          2.4247     -1.4604      0.1870
    15         H          2.8406      0.2808      0.5243
    16         H         -0.2054     -1.8421     -1.0681
    17         H         -1.3266     -1.9984      1.5679
    18         H         -2.7171     -0.4926     -0.4444

 General Reference for PM7:
 "Optimization of Parameters for Semiempirical Methods VI: More Modifications to the 
 NDDO Approximations and Re-optimization of Parameters", J. J. P. Stewart, J. Mol. Mod., 1:32, 19 (2013)
 https://link.springer.com/article/10.1007/s00894-012-1667-x

           Empirical Formula: C6 H9 N O2  =    18 atoms



      MOLECULAR POINT GROUP   :   C1  


          UHF CALCULATION, NO. OF ALPHA ELECTRONS =   25
                           NO. OF BETA  ELECTRONS =   24
  SCF CRITERION =    0.1000E-07

 -------------------------------------------------------------------------------
 PM7 1SCF GRADIENTS DISP RELSCF=0.0001 CHARGE=1
 Title: ASE calculation



     1SCF WAS SPECIFIED, SO BFGS WAS NOT USED                 
     SCF FIELD WAS ACHIEVED                                   


                              PM7 CALCULATION
                                                       MOPAC v23.2 Linux
                                                       Fri Sep 19 21:28:04 2025




          FINAL HEAT OF FORMATION =        188.03657 KCAL/MOL =     786.74501 KJ/MOL

          TOTAL ENERGY            =     -37449.23672 KCAL/MOL = ELECTRONIC ENERGY + CORE-CORE REPULSION
          ENERGY OF ATOMS         =      37638.97832 KCAL/MOL
                              SUM =        189.74159 KCAL/MOL
          DISPERSION ENERGY       =         -1.70502 KCAL/MOL
                              SUM =        188.03657 KCAL/MOL = FINAL HEAT OF FORMATION



          TOTAL ENERGY            =      -1623.95261 EV
          ELECTRONIC ENERGY       =      -7693.90027 EV 
          CORE-CORE REPULSION     =       6069.94766 EV
          COSMO AREA              =        155.58 SQUARE ANGSTROMS
          COSMO VOLUME            =        152.03 CUBIC ANGSTROMS

          GRADIENT NORM           =          0.93914          =       0.22136 PER ATOM
          IONIZATION POTENTIAL    =         14.754190 EV
          ALPHA SOMO LUMO (EV)    =        -14.777 -4.828
          BETA  SOMO LUMO (EV)    =        -14.754 -7.381
          NO. OF ALPHA ELECTRONS  =         25
          NO. OF BETA  ELECTRONS  =         24
          MOLECULAR WEIGHT        =        127.1426         POINT GROUP:  C1  

          MOLECULAR DIMENSIONS (Angstroms)

            Atom       Atom       Distance
            H    14    H    10     6.51928
            H    17    H    13     4.76247
            H    12    H    16     3.53911


          SCF CALCULATIONS        =          1

          WALL-CLOCK TIME         =      0.812 SECONDS
          COMPUTATION TIME        =      0.506 SECONDS

          LARGEST ATOMIC GRADIENTS

          Atom     Label                     Cartesian Gradients           Cartesian Coordinates       |Gradient|
                                           X          Y          Z        X          Y          Z

             2       C                  -0.126     -0.387      0.025   -1.40445    1.16561    0.35641      0.408
             9       C                   0.043      0.327      0.135   -1.73303   -0.34584    0.02943      0.357
            10       H                  -0.311     -0.085     -0.113   -2.88652    2.27720   -0.38017      0.341
             6       O                   0.033      0.231     -0.240    1.66381   -0.05398   -1.23679      0.335
            15       H                  -0.065     -0.283      0.102    2.84056    0.28083    0.52427      0.308
             5       C                   0.195     -0.115     -0.009    2.13284   -0.41662    0.06764      0.227
             1       O                   0.074      0.188      0.011   -2.00472    1.91167   -0.64537      0.202
            17       H                  -0.075     -0.016      0.171   -1.32665   -1.99841    1.56790      0.188
             4       C                  -0.012      0.026      0.177    0.72128   -0.01501   -0.18192      0.179
            18       H                   0.099      0.093     -0.050   -2.71711   -0.49260   -0.44442      0.145



       FINAL  POINT  AND  DERIVATIVES

   PARAMETER     ATOM    TYPE            VALUE        GRADIENT
      1          1  O    CARTESIAN X    -2.004721      0.073694  KCAL/ANGSTROM
      2          1  O    CARTESIAN Y     1.911674      0.187602  KCAL/ANGSTROM
      3          1  O    CARTESIAN Z    -0.645372      0.011404  KCAL/ANGSTROM
      4          2  C    CARTESIAN X    -1.404453     -0.125867  KCAL/ANGSTROM
      5          2  C    CARTESIAN Y     1.165608     -0.387439  KCAL/ANGSTROM
      6          2  C    CARTESIAN Z     0.356407      0.024940  KCAL/ANGSTROM
      7          3  C    CARTESIAN X     0.115029      0.026989  KCAL/ANGSTROM
      8          3  C    CARTESIAN Y     1.318956     -0.072360  KCAL/ANGSTROM
      9          3  C    CARTESIAN Z     0.175511      0.045382  KCAL/ANGSTROM
     10          4  C    CARTESIAN X     0.721283     -0.011780  KCAL/ANGSTROM
     11          4  C    CARTESIAN Y    -0.015009      0.026267  KCAL/ANGSTROM
     12          4  C    CARTESIAN Z    -0.181925      0.176828  KCAL/ANGSTROM
     13          5  C    CARTESIAN X     2.132839      0.195373  KCAL/ANGSTROM
     14          5  C    CARTESIAN Y    -0.416615     -0.114788  KCAL/ANGSTROM
     15          5  C    CARTESIAN Z     0.067638     -0.008979  KCAL/ANGSTROM
     16          6  O    CARTESIAN X     1.663811      0.032533  KCAL/ANGSTROM
     17          6  O    CARTESIAN Y    -0.053976      0.231303  KCAL/ANGSTROM
     18          6  O    CARTESIAN Z    -1.236790     -0.239988  KCAL/ANGSTROM
     19          7  C    CARTESIAN X    -0.382597     -0.004308  KCAL/ANGSTROM
     20          7  C    CARTESIAN Y    -1.051798      0.018189  KCAL/ANGSTROM
     21          7  C    CARTESIAN Z    -0.313327     -0.063948  KCAL/ANGSTROM
     22          8  N    CARTESIAN X    -1.152976      0.122508  KCAL/ANGSTROM
     23          8  N    CARTESIAN Y    -1.333572      0.036582  KCAL/ANGSTROM
     24          8  N    CARTESIAN Z     0.855472     -0.000418  KCAL/ANGSTROM
     25          9  C    CARTESIAN X    -1.733031      0.042500  KCAL/ANGSTROM
     26          9  C    CARTESIAN Y    -0.345843      0.327138  KCAL/ANGSTROM
     27          9  C    CARTESIAN Z     0.029427      0.135456  KCAL/ANGSTROM
     28         10  H    CARTESIAN X    -2.886522     -0.310718  KCAL/ANGSTROM
     29         10  H    CARTESIAN Y     2.277198     -0.084854  KCAL/ANGSTROM
     30         10  H    CARTESIAN Z    -0.380171     -0.113202  KCAL/ANGSTROM
     31         11  H    CARTESIAN X    -1.774886     -0.075894  KCAL/ANGSTROM
     32         11  H    CARTESIAN Y     1.432880      0.021470  KCAL/ANGSTROM
     33         11  H    CARTESIAN Z     1.368293      0.024742  KCAL/ANGSTROM
     34         12  H    CARTESIAN X     0.587301     -0.042374  KCAL/ANGSTROM
     35         12  H    CARTESIAN Y     1.765269      0.092293  KCAL/ANGSTROM
     36         12  H    CARTESIAN Z     1.073643     -0.071884  KCAL/ANGSTROM
     37         13  H    CARTESIAN X     0.316471      0.064882  KCAL/ANGSTROM
     38         13  H    CARTESIAN Y     2.058786     -0.006615  KCAL/ANGSTROM
     39         13  H    CARTESIAN Z    -0.648741     -0.051903  KCAL/ANGSTROM
     40         14  H    CARTESIAN X     2.424730     -0.026078  KCAL/ANGSTROM
     41         14  H    CARTESIAN Y    -1.460447      0.025240  KCAL/ANGSTROM
     42         14  H    CARTESIAN Z     0.186984     -0.099894  KCAL/ANGSTROM
     43         15  H    CARTESIAN X     2.840557     -0.064588  KCAL/ANGSTROM
     44         15  H    CARTESIAN Y     0.280834     -0.283183  KCAL/ANGSTROM
     45         15  H    CARTESIAN Z     0.524268      0.101931  KCAL/ANGSTROM
     46         16  H    CARTESIAN X    -0.205396      0.078584  KCAL/ANGSTROM
     47         16  H    CARTESIAN Y    -1.842116     -0.093330  KCAL/ANGSTROM
     48         16  H    CARTESIAN Z    -1.068147      0.008580  KCAL/ANGSTROM
     49         17  H    CARTESIAN X    -1.326649     -0.074565  KCAL/ANGSTROM
     50         17  H    CARTESIAN Y    -1.998411     -0.016136  KCAL/ANGSTROM
     51         17  H    CARTESIAN Z     1.567900      0.171440  KCAL/ANGSTROM
     52         18  H    CARTESIAN X    -2.717106      0.099108  KCAL/ANGSTROM
     53         18  H    CARTESIAN Y    -0.492604      0.092621  KCAL/ANGSTROM
     54         18  H    CARTESIAN Z    -0.444422     -0.050489  KCAL/ANGSTROM




   ATOM   CHEMICAL          X               Y               Z
  NUMBER   SYMBOL      (ANGSTROMS)     (ANGSTROMS)     (ANGSTROMS)

     1       O         -2.00472094  *   1.91167440  *  -0.64537232  *
     2       C         -1.40445264  *   1.16560775  *   0.35640676  *
     3       C          0.11502906  *   1.31895625  *   0.17551135  *
     4       C          0.72128265  *  -0.01500918  *  -0.18192489  *
     5       C          2.13283867  *  -0.41661507  *   0.06763794  *
     6       O          1.66381056  *  -0.05397642  *  -1.23678976  *
     7       C         -0.38259727  *  -1.05179754  *  -0.31332675  *
     8       N         -1.15297559  *  -1.33357240  *   0.85547224  *
     9       C         -1.73303133  *  -0.34584293  *   0.02942665  *
    10       H         -2.88652227  *   2.27719779  *  -0.38017143  *
    11       H         -1.77488553  *   1.43287971  *   1.36829303  *
    12       H          0.58730073  *   1.76526895  *   1.07364258  *
    13       H          0.31647080  *   2.05878566  *  -0.64874137  *
    14       H          2.42473003  *  -1.46044695  *   0.18698444  *
    15       H          2.84055749  *   0.28083441  *   0.52426840  *
    16       H         -0.20539612  *  -1.84211637  *  -1.06814654  *
    17       H         -1.32664876  *  -1.99841104  *   1.56790050  *
    18       H         -2.71710616  *  -0.49260439  *  -0.44442159  *

                             CARTESIAN COORDINATES

   1    O       -2.004720939     1.911674401    -0.645372323
   2    C       -1.404452642     1.165607754     0.356406756
   3    C        0.115029060     1.318956249     0.175511347
   4    C        0.721282654    -0.015009182    -0.181924890
   5    C        2.132838666    -0.416615069     0.067637936
   6    O        1.663810563    -0.053976421    -1.236789756
   7    C       -0.382597271    -1.051797539    -0.313326753
   8    N       -1.152975589    -1.333572402     0.855472242
   9    C       -1.733031328    -0.345842929     0.029426653
  10    H       -2.886522271     2.277197788    -0.380171426
  11    H       -1.774885534     1.432879708     1.368293027
  12    H        0.587300733     1.765268952     1.073642580
  13    H        0.316470801     2.058785656    -0.648741372
  14    H        2.424730033    -1.460446954     0.186984435
  15    H        2.840557495     0.280834406     0.524268398
  16    H       -0.205396119    -1.842116366    -1.068146538
  17    H       -1.326648758    -1.998411039     1.567900500
  18    H       -2.717106161    -0.492604390    -0.444421587


           Empirical Formula: C6 H9 N O2  =    18 atoms



      MOLECULAR POINT GROUP   :   C1  


          ALPHA EIGENVALUES  
 -44.65387 -36.64747 -34.86169 -32.77787 -30.04428 -29.14720 -27.39085 -25.73646
 -24.84954 -24.04086 -22.63891 -21.64436 -21.22619 -20.10380 -19.30079 -19.28169
 -18.90416 -18.23816 -18.14436 -17.57596 -16.85585 -16.71025 -15.89487 -15.32169
 -14.77703  -4.82780  -4.02573  -2.81874  -2.34531  -2.19058  -1.85523  -1.77291
  -1.71192  -1.13376  -0.70432  -0.39192  -0.11789   0.01132   0.08834   0.35242
   1.14114   1.40166   1.54121   1.70264   2.07342


           BETA EIGENVALUES 
 -43.14255 -36.60212 -34.74549 -32.49506 -29.65890 -29.05742 -27.35013 -25.58148
 -24.67730 -23.47384 -22.54816 -21.50080 -20.90886 -19.95514 -19.23354 -18.85513
 -18.53328 -18.17216 -17.58568 -17.49842 -16.67993 -15.82711 -15.44511 -14.75419
  -7.38052  -4.16459  -3.87583  -2.62873  -2.17679  -2.15524  -1.79793  -1.71484
  -1.67751  -1.10820  -0.67525  -0.37647   0.00885   0.05465   0.36611   0.47056
   1.14927   1.40215   1.55513   1.70298   2.07600


              NET ATOMIC CHARGES AND DIPOLE CONTRIBUTIONS

  ATOM NO.   TYPE          CHARGE      No. of ELECS.   s-Pop       p-Pop       
    1          O          -0.483169        6.4832     1.84797     4.63520
    2          C           0.199037        3.8010     1.10136     2.69960
    3          C          -0.339968        4.3400     1.07278     3.26718
    4          C           0.104368        3.8956     1.06860     2.82703
    5          C          -0.128169        4.1282     1.09979     3.02838
    6          O          -0.238179        6.2382     1.92531     4.31287
    7          C          -0.032636        4.0326     1.11354     2.91909
    8          N          -0.105771        5.1058     1.54598     3.55979
    9          C          -0.096241        4.0962     1.13156     2.96468
   10          H           0.344393        0.6556     0.65561
   11          H           0.151544        0.8485     0.84846
   12          H           0.190912        0.8091     0.80909
   13          H           0.232350        0.7677     0.76765
   14          H           0.174546        0.8255     0.82545
   15          H           0.187305        0.8127     0.81269
   16          H           0.237350        0.7626     0.76265
   17          H           0.367654        0.6323     0.63235
   18          H           0.234674        0.7653     0.76533
 DIPOLE           X         Y         Z       TOTAL
 POINT-CHG.    -3.342    -3.384     5.282     7.108
 HYBRID        -0.665    -0.785    -0.087     1.032
 SUM           -4.007    -4.169     5.195     7.774


          ATOMIC ORBITAL ELECTRON POPULATIONS

     Atom    s        px        py        pz   
    1  O   1.84797   1.47666   1.70517   1.45337
    2  C   1.10136   0.94780   0.79306   0.95874
    3  C   1.07278   0.98886   1.05604   1.22229
    4  C   1.06860   0.88278   0.93266   1.01159
    5  C   1.09979   0.97386   1.15758   0.89694
    6  O   1.92531   1.31214   1.88605   1.11467
    7  C   1.11354   0.96919   1.07408   0.87583
    8  N   1.54598   1.24554   1.18893   1.12533
    9  C   1.13156   1.07496   0.97410   0.91562
   10  H   0.65561
   11  H   0.84846
   12  H   0.80909
   13  H   0.76765
   14  H   0.82545
   15  H   0.81269
   16  H   0.76265
   17  H   0.63235
   18  H   0.76533


                    (SZ)    =    0.500000
                    (S**2)  =    0.762680


          ATOMIC ORBITAL SPIN POPULATIONS

    Atom   Total    s     px     py     pz   
         Atomic
    1  O  0.0137  0.001  0.003  0.012 -0.002
    2  C  0.0566  0.002  0.006  0.044  0.005
    3  C -0.0001 -0.000 -0.002  0.002 -0.000
    4  C  0.0431  0.003  0.013  0.023  0.005
    5  C  0.0004 -0.000  0.000  0.000  0.000
    6  O  0.0033  0.000 -0.002  0.007 -0.002
    7  C -0.0400 -0.005  0.014 -0.023 -0.026
    8  N  0.9402  0.044  0.226  0.346  0.324
    9  C -0.0370 -0.007 -0.006 -0.017 -0.007
   10  H -0.0005 -0.001
   11  H  0.0026  0.003
   12  H  0.0034  0.003
   13  H  0.0007  0.001
   14  H -0.0002 -0.000
   15  H  0.0003  0.000
   16  H  0.0197  0.020
   17  H -0.0306 -0.031
   18  H  0.0245  0.025

 **********************
 *                    *
 * JOB ENDED NORMALLY *
 *                    *
 **********************



 TOTAL JOB TIME:             1.23 SECONDS

 == MOPAC DONE ==
