 *******************************************************************************
 **                                                                           **
 **                              MOPAC v23.2                                  **
 **                                                                           **
 *******************************************************************************
 **          Digital Object Identifier (DOI): 10.5281/zenodo.6511958          **
 **    Visit the DOI location for information on how to cite this program.    **
 *******************************************************************************

                              PM7 CALCULATION RESULTS

 *******************************************************************************
 *  CALCULATION DONE: (MAX THREADS = 40)             Fri Sep 19 22:03:26 2025  *
 *  PM7        - The PM7 Hamiltonian to be used
 *  1SCF       - DO 1 SCF AND THEN STOP 
 *  T=         - A TIME OF 172800.0 SECONDS REQUESTED
 *  DUMP=N     - RESTART FILE WRITTEN EVERY 7200.0 SECONDS REQUESTED
 *  RELSCF     - DEFAULT SCF CRITERION MULTIPLIED BY 0.0001
 *              (DEFAULT SCF CRITERION = 0.00010)
 *  GRADIENTS  - ALL GRADIENTS TO BE PRINTED
 *  DISP       - PRINT DISPERSION AND HYDROGEN BOND ENERGIES
 *******************************************************************************
PM7 1SCF GRADIENTS DISP RELSCF=0.0001
 Title: ASE calculation

   ATOM   CHEMICAL          X               Y               Z
  NUMBER   SYMBOL      (ANGSTROMS)     (ANGSTROMS)     (ANGSTROMS)

     1       C          2.42677313  *  -0.44424829  *   0.11533950  *
     2       C          0.96755598  *  -0.00061878  *   0.26411126  *
     3       C          0.60488881  *   0.94736694  *  -0.88929219  *
     4       O         -0.33257147  *   1.94742437  *  -0.55459995  *
     5       C         -1.45303144  *   1.57612601  *   0.21983125  *
     6       C         -2.04080404  *   0.21129729  *  -0.12204742  *
     7       C         -1.38056730  *  -0.89736246  *   0.70997164  *
     8       O         -2.16941772  *  -2.06857303  *   0.63223922  *
     9       C          0.05149585  *  -1.23291979  *   0.27017069  *
    10       H          3.10909324  *   0.41359961  *   0.13625336  *
    11       H          2.59249317  *  -0.97808344  *  -0.82638286  *
    12       H          2.72557234  *  -1.11384297  *   0.92997128  *
    13       H          0.85695919  *   0.55029776  *   1.22932393  *
    14       H          1.46738402  *   1.57094998  *  -1.19911170  *
    15       H          0.22882789  *   0.39941453  *  -1.77089923  *
    16       H         -1.16151988  *   1.64777013  *   1.28427073  *
    17       H         -2.15687010  *   2.40112607  *  -0.01235773  *
    18       H         -3.13104008  *   0.20418322  *   0.07904787  *
    19       H         -1.93901168  *   0.00927888  *  -1.20396153  *
    20       H         -1.42728720  *  -0.66787856  *   1.80066659  *
    21       H         -2.21512517  *  -2.41018816  *  -0.27956925  *
    22       H          0.45721420  *  -2.00384414  *   0.95689371  *
    23       H          0.04264662  *  -1.71228274  *  -0.72601938  *



          CARTESIAN COORDINATES 

    NO.       ATOM           X           Y           Z

     1         C          2.4268     -0.4442      0.1153
     2         C          0.9676     -0.0006      0.2641
     3         C          0.6049      0.9474     -0.8893
     4         O         -0.3326      1.9474     -0.5546
     5         C         -1.4530      1.5761      0.2198
     6         C         -2.0408      0.2113     -0.1220
     7         C         -1.3806     -0.8974      0.7100
     8         O         -2.1694     -2.0686      0.6322
     9         C          0.0515     -1.2329      0.2702
    10         H          3.1091      0.4136      0.1363
    11         H          2.5925     -0.9781     -0.8264
    12         H          2.7256     -1.1138      0.9300
    13         H          0.8570      0.5503      1.2293
    14         H          1.4674      1.5709     -1.1991
    15         H          0.2288      0.3994     -1.7709
    16         H         -1.1615      1.6478      1.2843
    17         H         -2.1569      2.4011     -0.0124
    18         H         -3.1310      0.2042      0.0790
    19         H         -1.9390      0.0093     -1.2040
    20         H         -1.4273     -0.6679      1.8007
    21         H         -2.2151     -2.4102     -0.2796
    22         H          0.4572     -2.0038      0.9569
    23         H          0.0426     -1.7123     -0.7260

 General Reference for PM7:
 "Optimization of Parameters for Semiempirical Methods VI: More Modifications to the 
 NDDO Approximations and Re-optimization of Parameters", J. J. P. Stewart, J. Mol. Mod., 1:32, 19 (2013)
 https://link.springer.com/article/10.1007/s00894-012-1667-x

           Empirical Formula: C7 H14 O2  =    23 atoms



      MOLECULAR POINT GROUP   :   C1  


      RHF CALCULATION, NO. OF DOUBLY OCCUPIED LEVELS = 27

  SCF CRITERION =    0.1000E-07

 -------------------------------------------------------------------------------
 PM7 1SCF GRADIENTS DISP RELSCF=0.0001
 Title: ASE calculation



     1SCF WAS SPECIFIED, SO BFGS WAS NOT USED                 
     SCF FIELD WAS ACHIEVED                                   


                              PM7 CALCULATION
                                                       MOPAC v23.2 Linux
                                                       Fri Sep 19 22:03:26 2025




          FINAL HEAT OF FORMATION =       -107.83040 KCAL/MOL =    -451.16238 KJ/MOL

          TOTAL ENERGY            =     -37817.51897 KCAL/MOL = ELECTRONIC ENERGY + CORE-CORE REPULSION
          ENERGY OF ATOMS         =      37712.04263 KCAL/MOL
                              SUM =       -105.47634 KCAL/MOL
          DISPERSION ENERGY       =         -2.35405 KCAL/MOL
                              SUM =       -107.83040 KCAL/MOL = FINAL HEAT OF FORMATION



          TOTAL ENERGY            =      -1639.92283 EV
          ELECTRONIC ENERGY       =      -8548.94058 EV 
          CORE-CORE REPULSION     =       6909.01774 EV
          COSMO AREA              =        167.49 SQUARE ANGSTROMS
          COSMO VOLUME            =        172.80 CUBIC ANGSTROMS

          GRADIENT NORM           =          1.33317          =       0.27799 PER ATOM
          IONIZATION POTENTIAL    =          9.814070 EV
          HOMO LUMO ENERGIES (EV) =         -9.814  2.340
          NO. OF FILLED LEVELS    =         27
          MOLECULAR WEIGHT        =        130.1864         POINT GROUP:  C1  

          MOLECULAR DIMENSIONS (Angstroms)

            Atom       Atom       Distance
            H    18    H    10     6.24391
            H    21    H    17     4.81396
            H    15    H    20     3.63716


          SCF CALCULATIONS        =          1

          WALL-CLOCK TIME         =      0.563 SECONDS
          COMPUTATION TIME        =      0.719 SECONDS

          LARGEST ATOMIC GRADIENTS

          Atom     Label                     Cartesian Gradients           Cartesian Coordinates       |Gradient|
                                           X          Y          Z        X          Y          Z

            23       H                  -0.118     -0.410     -0.084    0.04265   -1.71228   -0.72602      0.435
             6       C                  -0.094      0.358     -0.171   -2.04080    0.21130   -0.12205      0.408
            17       H                   0.172      0.266      0.248   -2.15687    2.40113   -0.01236      0.403
            18       H                   0.374     -0.034      0.032   -3.13104    0.20418    0.07905      0.377
             7       C                  -0.266      0.258      0.044   -1.38057   -0.89736    0.70997      0.373
             5       C                  -0.282      0.190      0.150   -1.45303    1.57613    0.21983      0.371
             4       O                  -0.209     -0.185      0.159   -0.33257    1.94742   -0.55460      0.321
            19       H                   0.152     -0.246     -0.140   -1.93901    0.00928   -1.20396      0.321
            11       H                  -0.182      0.144      0.200    2.59249   -0.97808   -0.82638      0.306
            16       H                   0.162     -0.109     -0.193   -1.16152    1.64777    1.28427      0.274



       FINAL  POINT  AND  DERIVATIVES

   PARAMETER     ATOM    TYPE            VALUE        GRADIENT
      1          1  C    CARTESIAN X     2.426773      0.098990  KCAL/ANGSTROM
      2          1  C    CARTESIAN Y    -0.444248      0.090415  KCAL/ANGSTROM
      3          1  C    CARTESIAN Z     0.115339      0.078567  KCAL/ANGSTROM
      4          2  C    CARTESIAN X     0.967556      0.202917  KCAL/ANGSTROM
      5          2  C    CARTESIAN Y    -0.000619      0.147835  KCAL/ANGSTROM
      6          2  C    CARTESIAN Z     0.264111     -0.093268  KCAL/ANGSTROM
      7          3  C    CARTESIAN X     0.604889     -0.096455  KCAL/ANGSTROM
      8          3  C    CARTESIAN Y     0.947367      0.024159  KCAL/ANGSTROM
      9          3  C    CARTESIAN Z    -0.889292     -0.071333  KCAL/ANGSTROM
     10          4  O    CARTESIAN X    -0.332571     -0.208989  KCAL/ANGSTROM
     11          4  O    CARTESIAN Y     1.947424     -0.185256  KCAL/ANGSTROM
     12          4  O    CARTESIAN Z    -0.554600      0.158857  KCAL/ANGSTROM
     13          5  C    CARTESIAN X    -1.453031     -0.281661  KCAL/ANGSTROM
     14          5  C    CARTESIAN Y     1.576126      0.190244  KCAL/ANGSTROM
     15          5  C    CARTESIAN Z     0.219831      0.149739  KCAL/ANGSTROM
     16          6  C    CARTESIAN X    -2.040804     -0.094259  KCAL/ANGSTROM
     17          6  C    CARTESIAN Y     0.211297      0.357972  KCAL/ANGSTROM
     18          6  C    CARTESIAN Z    -0.122047     -0.170736  KCAL/ANGSTROM
     19          7  C    CARTESIAN X    -1.380567     -0.265518  KCAL/ANGSTROM
     20          7  C    CARTESIAN Y    -0.897362      0.257851  KCAL/ANGSTROM
     21          7  C    CARTESIAN Z     0.709972      0.044382  KCAL/ANGSTROM
     22          8  O    CARTESIAN X    -2.169418      0.020280  KCAL/ANGSTROM
     23          8  O    CARTESIAN Y    -2.068573     -0.156976  KCAL/ANGSTROM
     24          8  O    CARTESIAN Z     0.632239     -0.097964  KCAL/ANGSTROM
     25          9  C    CARTESIAN X     0.051496     -0.059114  KCAL/ANGSTROM
     26          9  C    CARTESIAN Y    -1.232920      0.114002  KCAL/ANGSTROM
     27          9  C    CARTESIAN Z     0.270171     -0.008002  KCAL/ANGSTROM
     28         10  H    CARTESIAN X     3.109093     -0.130909  KCAL/ANGSTROM
     29         10  H    CARTESIAN Y     0.413600      0.018764  KCAL/ANGSTROM
     30         10  H    CARTESIAN Z     0.136253     -0.094083  KCAL/ANGSTROM
     31         11  H    CARTESIAN X     2.592493     -0.181560  KCAL/ANGSTROM
     32         11  H    CARTESIAN Y    -0.978083      0.143742  KCAL/ANGSTROM
     33         11  H    CARTESIAN Z    -0.826383      0.200216  KCAL/ANGSTROM
     34         12  H    CARTESIAN X     2.725572      0.002226  KCAL/ANGSTROM
     35         12  H    CARTESIAN Y    -1.113843      0.054597  KCAL/ANGSTROM
     36         12  H    CARTESIAN Z     0.929971     -0.077021  KCAL/ANGSTROM
     37         13  H    CARTESIAN X     0.856959      0.074546  KCAL/ANGSTROM
     38         13  H    CARTESIAN Y     0.550298     -0.156276  KCAL/ANGSTROM
     39         13  H    CARTESIAN Z     1.229324     -0.105269  KCAL/ANGSTROM
     40         14  H    CARTESIAN X     1.467384     -0.142315  KCAL/ANGSTROM
     41         14  H    CARTESIAN Y     1.570950     -0.131271  KCAL/ANGSTROM
     42         14  H    CARTESIAN Z    -1.199112      0.045502  KCAL/ANGSTROM
     43         15  H    CARTESIAN X     0.228828      0.132924  KCAL/ANGSTROM
     44         15  H    CARTESIAN Y     0.399415     -0.199647  KCAL/ANGSTROM
     45         15  H    CARTESIAN Z    -1.770899     -0.013088  KCAL/ANGSTROM
     46         16  H    CARTESIAN X    -1.161520      0.161788  KCAL/ANGSTROM
     47         16  H    CARTESIAN Y     1.647770     -0.108518  KCAL/ANGSTROM
     48         16  H    CARTESIAN Z     1.284271     -0.193199  KCAL/ANGSTROM
     49         17  H    CARTESIAN X    -2.156870      0.172088  KCAL/ANGSTROM
     50         17  H    CARTESIAN Y     2.401126      0.266480  KCAL/ANGSTROM
     51         17  H    CARTESIAN Z    -0.012358      0.247792  KCAL/ANGSTROM
     52         18  H    CARTESIAN X    -3.131040      0.374470  KCAL/ANGSTROM
     53         18  H    CARTESIAN Y     0.204183     -0.034308  KCAL/ANGSTROM
     54         18  H    CARTESIAN Z     0.079048      0.031584  KCAL/ANGSTROM
     55         19  H    CARTESIAN X    -1.939012      0.152416  KCAL/ANGSTROM
     56         19  H    CARTESIAN Y     0.009279     -0.245624  KCAL/ANGSTROM
     57         19  H    CARTESIAN Z    -1.203962     -0.139739  KCAL/ANGSTROM
     58         20  H    CARTESIAN X    -1.427287      0.009519  KCAL/ANGSTROM
     59         20  H    CARTESIAN Y    -0.667879     -0.014536  KCAL/ANGSTROM
     60         20  H    CARTESIAN Z     1.800667      0.219934  KCAL/ANGSTROM
     61         21  H    CARTESIAN X    -2.215125      0.137627  KCAL/ANGSTROM
     62         21  H    CARTESIAN Y    -2.410188      0.004849  KCAL/ANGSTROM
     63         21  H    CARTESIAN Z    -0.279569     -0.186536  KCAL/ANGSTROM
     64         22  H    CARTESIAN X     0.457214      0.039220  KCAL/ANGSTROM
     65         22  H    CARTESIAN Y    -2.003844     -0.028374  KCAL/ANGSTROM
     66         22  H    CARTESIAN Z     0.956894      0.157727  KCAL/ANGSTROM
     67         23  H    CARTESIAN X     0.042647     -0.118227  KCAL/ANGSTROM
     68         23  H    CARTESIAN Y    -1.712283     -0.410124  KCAL/ANGSTROM
     69         23  H    CARTESIAN Z    -0.726019     -0.084066  KCAL/ANGSTROM




   ATOM   CHEMICAL          X               Y               Z
  NUMBER   SYMBOL      (ANGSTROMS)     (ANGSTROMS)     (ANGSTROMS)

     1       C          2.42677313  *  -0.44424829  *   0.11533950  *
     2       C          0.96755598  *  -0.00061878  *   0.26411126  *
     3       C          0.60488881  *   0.94736694  *  -0.88929219  *
     4       O         -0.33257147  *   1.94742437  *  -0.55459995  *
     5       C         -1.45303144  *   1.57612601  *   0.21983125  *
     6       C         -2.04080404  *   0.21129729  *  -0.12204742  *
     7       C         -1.38056730  *  -0.89736246  *   0.70997164  *
     8       O         -2.16941772  *  -2.06857303  *   0.63223922  *
     9       C          0.05149585  *  -1.23291979  *   0.27017069  *
    10       H          3.10909324  *   0.41359961  *   0.13625336  *
    11       H          2.59249317  *  -0.97808344  *  -0.82638286  *
    12       H          2.72557234  *  -1.11384297  *   0.92997128  *
    13       H          0.85695919  *   0.55029776  *   1.22932393  *
    14       H          1.46738402  *   1.57094998  *  -1.19911170  *
    15       H          0.22882789  *   0.39941453  *  -1.77089923  *
    16       H         -1.16151988  *   1.64777013  *   1.28427073  *
    17       H         -2.15687010  *   2.40112607  *  -0.01235773  *
    18       H         -3.13104008  *   0.20418322  *   0.07904787  *
    19       H         -1.93901168  *   0.00927888  *  -1.20396153  *
    20       H         -1.42728720  *  -0.66787856  *   1.80066659  *
    21       H         -2.21512517  *  -2.41018816  *  -0.27956925  *
    22       H          0.45721420  *  -2.00384414  *   0.95689371  *
    23       H          0.04264662  *  -1.71228274  *  -0.72601938  *

                             CARTESIAN COORDINATES

   1    C        2.426773132    -0.444248295     0.115339495
   2    C        0.967555980    -0.000618776     0.264111260
   3    C        0.604888809     0.947366944    -0.889292187
   4    O       -0.332571466     1.947424367    -0.554599948
   5    C       -1.453031444     1.576126014     0.219831248
   6    C       -2.040804039     0.211297286    -0.122047423
   7    C       -1.380567300    -0.897362458     0.709971639
   8    O       -2.169417722    -2.068573035     0.632239219
   9    C        0.051495853    -1.232919792     0.270170694
  10    H        3.109093244     0.413599613     0.136253357
  11    H        2.592493175    -0.978083436    -0.826382864
  12    H        2.725572338    -1.113842974     0.929971277
  13    H        0.856959193     0.550297756     1.229323934
  14    H        1.467384017     1.570949976    -1.199111704
  15    H        0.228827894     0.399414529    -1.770899235
  16    H       -1.161519876     1.647770133     1.284270731
  17    H       -2.156870100     2.401126069    -0.012357727
  18    H       -3.131040077     0.204183217     0.079047874
  19    H       -1.939011684     0.009278880    -1.203961527
  20    H       -1.427287204    -0.667878557     1.800666591
  21    H       -2.215125169    -2.410188160    -0.279569251
  22    H        0.457214203    -2.003844144     0.956893709
  23    H        0.042646618    -1.712282737    -0.726019385


           Empirical Formula: C7 H14 O2  =    23 atoms



      MOLECULAR POINT GROUP   :   C1  


                  EIGENVALUES  
 -30.91481 -29.39380 -28.34792 -26.96179 -24.56277 -23.75370 -22.11086 -20.43516
 -19.34043 -17.25797 -17.20355 -16.17604 -15.76610 -15.34728 -14.55290 -14.04497
 -13.75542 -13.62606 -13.47928 -12.83105 -12.60408 -12.18972 -11.83505 -11.36725
 -11.28909 -10.61998  -9.81407   2.33976   2.74137   3.64834   3.82813   3.87607
   4.17674   4.22347   4.34055   4.81367   5.23861   5.51036   5.53187   5.55562
   5.61664   5.65302   5.74623   5.94930   6.08977   6.18719   6.23254   6.40361
   6.42744   6.77821


              NET ATOMIC CHARGES AND DIPOLE CONTRIBUTIONS

  ATOM NO.   TYPE          CHARGE      No. of ELECS.   s-Pop       p-Pop       
    1          C          -0.453795        4.4538     1.05563     3.39817
    2          C          -0.119522        4.1195     1.06327     3.05625
    3          C          -0.040386        4.0404     1.09176     2.94863
    4          O          -0.419598        6.4196     1.87259     4.54701
    5          C          -0.020341        4.0203     1.08417     2.93617
    6          C          -0.384100        4.3841     1.07296     3.31114
    7          C           0.169310        3.8307     1.08938     2.74131
    8          O          -0.565621        6.5656     1.84775     4.71787
    9          C          -0.350387        4.3504     1.07240     3.27798
   10          H           0.148415        0.8516     0.85159
   11          H           0.146360        0.8536     0.85364
   12          H           0.148923        0.8511     0.85108
   13          H           0.149774        0.8502     0.85023
   14          H           0.139521        0.8605     0.86048
   15          H           0.117486        0.8825     0.88251
   16          H           0.119119        0.8809     0.88088
   17          H           0.138978        0.8610     0.86102
   18          H           0.163914        0.8361     0.83609
   19          H           0.158490        0.8415     0.84151
   20          H           0.140420        0.8596     0.85958
   21          H           0.312862        0.6871     0.68714
   22          H           0.156289        0.8437     0.84371
   23          H           0.143888        0.8561     0.85611
 DIPOLE           X         Y         Z       TOTAL
 POINT-CHG.     1.053    -0.281    -0.358     1.147
 HYBRID        -0.073    -0.338    -0.494     0.603
 SUM            0.979    -0.619    -0.852     1.438


          ATOMIC ORBITAL ELECTRON POPULATIONS

     Atom    s        px        py        pz   
    1  C   1.05563   1.05140   1.16833   1.17844
    2  C   1.06327   0.96654   1.00204   1.08767
    3  C   1.09176   0.96387   0.96624   1.01852
    4  O   1.87259   1.40022   1.38852   1.75826
    5  C   1.08417   0.90522   1.00892   1.02203
    6  C   1.07296   1.13457   1.03425   1.14232
    7  C   1.08938   0.87624   0.80499   1.06008
    8  O   1.84775   1.76440   1.51363   1.43985
    9  C   1.07240   1.03513   1.07399   1.16886
   10  H   0.85159
   11  H   0.85364
   12  H   0.85108
   13  H   0.85023
   14  H   0.86048
   15  H   0.88251
   16  H   0.88088
   17  H   0.86102
   18  H   0.83609
   19  H   0.84151
   20  H   0.85958
   21  H   0.68714
   22  H   0.84371
   23  H   0.85611

 **********************
 *                    *
 * JOB ENDED NORMALLY *
 *                    *
 **********************



 TOTAL JOB TIME:             0.95 SECONDS

 == MOPAC DONE ==
