 *******************************************************************************
 **                                                                           **
 **                              MOPAC v23.2                                  **
 **                                                                           **
 *******************************************************************************
 **          Digital Object Identifier (DOI): 10.5281/zenodo.6511958          **
 **    Visit the DOI location for information on how to cite this program.    **
 *******************************************************************************

                              PM7 CALCULATION RESULTS

 *******************************************************************************
 *  CALCULATION DONE: (MAX THREADS = 40)             Fri Sep 19 21:29:34 2025  *
 *  PM7        - The PM7 Hamiltonian to be used
 *  EPS=37.5   - USE ANDREAS KLAMT'S COSMO IMPLICIT SOLVATION MODEL
 *  1SCF       - DO 1 SCF AND THEN STOP 
 *  T=         - A TIME OF 172800.0 SECONDS REQUESTED
 *  DUMP=N     - RESTART FILE WRITTEN EVERY 7200.0 SECONDS REQUESTED
 *  RELSCF     - DEFAULT SCF CRITERION MULTIPLIED BY 0.0001
 *              (DEFAULT SCF CRITERION = 0.00010)
 *  GRADIENTS  - ALL GRADIENTS TO BE PRINTED
 *  DISP       - PRINT DISPERSION AND HYDROGEN BOND ENERGIES
 *******************************************************************************
PM7 1SCF GRADIENTS EPS=37.5 DISP RELSCF=0.0001
 Title: ASE calculation

   ATOM   CHEMICAL          X               Y               Z
  NUMBER   SYMBOL      (ANGSTROMS)     (ANGSTROMS)     (ANGSTROMS)

     1       C         -2.53059596  *   1.20356812  *  -0.05440865  *
     2       C         -1.83953318  *   0.00640566  *  -0.71762350  *
     3       C         -2.67113396  *  -1.27088387  *  -0.55284971  *
     4       C         -0.50389172  *  -0.19391798  *  -0.10601896  *
     5       N         -0.07669546  *  -0.41681681  *   1.11177776  *
     6       C          1.32644633  *  -0.48890194  *   1.05738969  *
     7       C          1.70523909  *  -0.30519158  *  -0.25839958  *
     8       N          2.89486089  *  -0.17887481  *  -0.93864979  *
     9       O          0.56383633  *  -0.12427173  *  -1.02614284  *
    10       H         -1.95515246  *   2.12675086  *  -0.19168959  *
    11       H         -3.53005844  *   1.36481971  *  -0.47214121  *
    12       H         -2.64125085  *   1.04851656  *   1.02820056  *
    13       H         -1.70988348  *   0.22047820  *  -1.81338317  *
    14       H         -2.79043565  *  -1.53221863  *   0.50801936  *
    15       H         -3.67226479  *  -1.14887356  *  -0.98034746  *
    16       H         -2.19652396  *  -2.12675086  *  -1.04641638  *
    17       H          1.90334685  *  -0.64631246  *   1.94329081  *
    18       H          2.84055885  *  -0.14844542  *  -1.94329081  *
    19       H          3.67226479  *  -0.70940017  *  -0.58461308  *



          CARTESIAN COORDINATES 

    NO.       ATOM           X           Y           Z

     1         C         -2.5306      1.2036     -0.0544
     2         C         -1.8395      0.0064     -0.7176
     3         C         -2.6711     -1.2709     -0.5528
     4         C         -0.5039     -0.1939     -0.1060
     5         N         -0.0767     -0.4168      1.1118
     6         C          1.3264     -0.4889      1.0574
     7         C          1.7052     -0.3052     -0.2584
     8         N          2.8949     -0.1789     -0.9386
     9         O          0.5638     -0.1243     -1.0261
    10         H         -1.9552      2.1268     -0.1917
    11         H         -3.5301      1.3648     -0.4721
    12         H         -2.6413      1.0485      1.0282
    13         H         -1.7099      0.2205     -1.8134
    14         H         -2.7904     -1.5322      0.5080
    15         H         -3.6723     -1.1489     -0.9803
    16         H         -2.1965     -2.1268     -1.0464
    17         H          1.9033     -0.6463      1.9433
    18         H          2.8406     -0.1484     -1.9433
    19         H          3.6723     -0.7094     -0.5846

 General Reference for PM7:
 "Optimization of Parameters for Semiempirical Methods VI: More Modifications to the 
 NDDO Approximations and Re-optimization of Parameters", J. J. P. Stewart, J. Mol. Mod., 1:32, 19 (2013)
 https://link.springer.com/article/10.1007/s00894-012-1667-x

           Empirical Formula: C6 H10 N2 O  =    19 atoms



      MOLECULAR POINT GROUP   :   C1  


      RHF CALCULATION, NO. OF DOUBLY OCCUPIED LEVELS = 25

  SCF CRITERION =    0.1000E-07

 -------------------------------------------------------------------------------
 PM7 1SCF GRADIENTS EPS=37.5 DISP RELSCF=0.0001
 Title: ASE calculation



     1SCF WAS SPECIFIED, SO BFGS WAS NOT USED                 
     SCF FIELD WAS ACHIEVED                                   


                              PM7 CALCULATION
                                                       MOPAC v23.2 Linux
                                                       Fri Sep 19 21:29:35 2025




          FINAL HEAT OF FORMATION =        -31.67367 KCAL/MOL =    -132.52265 KJ/MOL

          TOTAL ENERGY            =     -35509.98969 KCAL/MOL = ELECTRONIC ENERGY + CORE-CORE REPULSION + SOLVATION ENERGY
          ENERGY OF ATOMS         =      35480.40871 KCAL/MOL
                              SUM =        -29.58097 KCAL/MOL
          DISPERSION ENERGY       =         -2.09270 KCAL/MOL
                              SUM =        -31.67367 KCAL/MOL = FINAL HEAT OF FORMATION

          VAN DER WAALS AREA      =        168.23 SQUARE ANGSTROMS


          TOTAL ENERGY            =      -1539.85889 EV
          ELECTRONIC ENERGY       =      -2197.69347 EV 
          CORE-CORE REPULSION     =        657.83457 EV

          DIELECTRIC ENERGY       =         -0.60973 EV
          COSMO AREA              =        168.23 SQUARE ANGSTROMS
          COSMO VOLUME            =        161.34 CUBIC ANGSTROMS

          GRADIENT NORM           =         28.35906          =       6.50601 PER ATOM
          IONIZATION POTENTIAL    =          8.884253 EV
          HOMO LUMO ENERGIES (EV) =         -8.884  0.143
          NO. OF FILLED LEVELS    =         25
          MOLECULAR WEIGHT        =        126.1578         POINT GROUP:  C1  

          MOLECULAR DIMENSIONS (Angstroms)

            Atom       Atom       Distance
            H    19    H    11     7.49590
            H    10    H    16     4.23834
            H    18    H    17     3.94406


          SCF CALCULATIONS        =          2

          WALL-CLOCK TIME         =      0.977 SECONDS
          COMPUTATION TIME        =      0.491 SECONDS

          LARGEST ATOMIC GRADIENTS

          Atom     Label                     Cartesian Gradients           Cartesian Coordinates       |Gradient|
                                           X          Y          Z        X          Y          Z

             8       N                  14.348     -6.461    -10.131    2.89486   -0.17887   -0.93865     18.715
             7       C                 -13.978      2.094      6.519    1.70524   -0.30519   -0.25840     15.565
            19       H                  -4.981      4.308     -0.620    3.67226   -0.70940   -0.58461      6.615
             4       C                   1.789     -1.129      6.140   -0.50389   -0.19392   -0.10602      6.494
             9       O                   4.789     -0.355     -3.975    0.56384   -0.12427   -1.02614      6.234
            18       H                  -1.353      1.597      5.330    2.84056   -0.14845   -1.94329      5.726
             1       C                  -2.864      1.468     -2.062   -2.53060    1.20357   -0.05441      3.823
             3       C                  -2.795     -0.718     -2.413   -2.67113   -1.27088   -0.55285      3.762
             5       N                   1.472     -0.244     -2.134   -0.07670   -0.41682    1.11178      2.604
             6       C                  -1.190     -0.529     -1.433    1.32645   -0.48890    1.05739      1.936



       FINAL  POINT  AND  DERIVATIVES

   PARAMETER     ATOM    TYPE            VALUE        GRADIENT
      1          1  C    CARTESIAN X    -2.530596     -2.864391  KCAL/ANGSTROM
      2          1  C    CARTESIAN Y     1.203568      1.468377  KCAL/ANGSTROM
      3          1  C    CARTESIAN Z    -0.054409     -2.061997  KCAL/ANGSTROM
      4          2  C    CARTESIAN X    -1.839533      1.254113  KCAL/ANGSTROM
      5          2  C    CARTESIAN Y     0.006406      0.098697  KCAL/ANGSTROM
      6          2  C    CARTESIAN Z    -0.717624     -0.835189  KCAL/ANGSTROM
      7          3  C    CARTESIAN X    -2.671134     -2.795175  KCAL/ANGSTROM
      8          3  C    CARTESIAN Y    -1.270884     -0.718353  KCAL/ANGSTROM
      9          3  C    CARTESIAN Z    -0.552850     -2.412604  KCAL/ANGSTROM
     10          4  C    CARTESIAN X    -0.503892      1.789378  KCAL/ANGSTROM
     11          4  C    CARTESIAN Y    -0.193918     -1.129175  KCAL/ANGSTROM
     12          4  C    CARTESIAN Z    -0.106019      6.139937  KCAL/ANGSTROM
     13          5  N    CARTESIAN X    -0.076695      1.471886  KCAL/ANGSTROM
     14          5  N    CARTESIAN Y    -0.416817     -0.244252  KCAL/ANGSTROM
     15          5  N    CARTESIAN Z     1.111778     -2.133691  KCAL/ANGSTROM
     16          6  C    CARTESIAN X     1.326446     -1.189627  KCAL/ANGSTROM
     17          6  C    CARTESIAN Y    -0.488902     -0.529115  KCAL/ANGSTROM
     18          6  C    CARTESIAN Z     1.057390     -1.432721  KCAL/ANGSTROM
     19          7  C    CARTESIAN X     1.705239    -13.977731  KCAL/ANGSTROM
     20          7  C    CARTESIAN Y    -0.305192      2.094107  KCAL/ANGSTROM
     21          7  C    CARTESIAN Z    -0.258400      6.519156  KCAL/ANGSTROM
     22          8  N    CARTESIAN X     2.894861     14.348417  KCAL/ANGSTROM
     23          8  N    CARTESIAN Y    -0.178875     -6.461351  KCAL/ANGSTROM
     24          8  N    CARTESIAN Z    -0.938650    -10.131083  KCAL/ANGSTROM
     25          9  O    CARTESIAN X     0.563836      4.788927  KCAL/ANGSTROM
     26          9  O    CARTESIAN Y    -0.124272     -0.354839  KCAL/ANGSTROM
     27          9  O    CARTESIAN Z    -1.026143     -3.974820  KCAL/ANGSTROM
     28         10  H    CARTESIAN X    -1.955152      0.468978  KCAL/ANGSTROM
     29         10  H    CARTESIAN Y     2.126751     -0.613394  KCAL/ANGSTROM
     30         10  H    CARTESIAN Z    -0.191690      0.581645  KCAL/ANGSTROM
     31         11  H    CARTESIAN X    -3.530058      0.783442  KCAL/ANGSTROM
     32         11  H    CARTESIAN Y     1.364820     -0.271815  KCAL/ANGSTROM
     33         11  H    CARTESIAN Z    -0.472141      0.473108  KCAL/ANGSTROM
     34         12  H    CARTESIAN X    -2.641251      1.073276  KCAL/ANGSTROM
     35         12  H    CARTESIAN Y     1.048517     -0.446317  KCAL/ANGSTROM
     36         12  H    CARTESIAN Z     1.028201      0.680400  KCAL/ANGSTROM
     37         13  H    CARTESIAN X    -1.709883      0.488857  KCAL/ANGSTROM
     38         13  H    CARTESIAN Y     0.220478     -0.194235  KCAL/ANGSTROM
     39         13  H    CARTESIAN Z    -1.813383      1.432769  KCAL/ANGSTROM
     40         14  H    CARTESIAN X    -2.790436      1.083360  KCAL/ANGSTROM
     41         14  H    CARTESIAN Y    -1.532219      0.251709  KCAL/ANGSTROM
     42         14  H    CARTESIAN Z     0.508019      0.642392  KCAL/ANGSTROM
     43         15  H    CARTESIAN X    -3.672265      0.732843  KCAL/ANGSTROM
     44         15  H    CARTESIAN Y    -1.148874      0.099655  KCAL/ANGSTROM
     45         15  H    CARTESIAN Z    -0.980347      0.553187  KCAL/ANGSTROM
     46         16  H    CARTESIAN X    -2.196524      0.451179  KCAL/ANGSTROM
     47         16  H    CARTESIAN Y    -2.126751      0.498852  KCAL/ANGSTROM
     48         16  H    CARTESIAN Z    -1.046416      0.794714  KCAL/ANGSTROM
     49         17  H    CARTESIAN X     1.903347     -1.573434  KCAL/ANGSTROM
     50         17  H    CARTESIAN Y    -0.646312      0.546564  KCAL/ANGSTROM
     51         17  H    CARTESIAN Z     1.943291      0.455091  KCAL/ANGSTROM
     52         18  H    CARTESIAN X     2.840559     -1.353079  KCAL/ANGSTROM
     53         18  H    CARTESIAN Y    -0.148445      1.596845  KCAL/ANGSTROM
     54         18  H    CARTESIAN Z    -1.943291      5.330164  KCAL/ANGSTROM
     55         19  H    CARTESIAN X     3.672265     -4.981218  KCAL/ANGSTROM
     56         19  H    CARTESIAN Y    -0.709400      4.308039  KCAL/ANGSTROM
     57         19  H    CARTESIAN Z    -0.584613     -0.620462  KCAL/ANGSTROM




   ATOM   CHEMICAL          X               Y               Z
  NUMBER   SYMBOL      (ANGSTROMS)     (ANGSTROMS)     (ANGSTROMS)

     1       C         -2.53059596  *   1.20356812  *  -0.05440865  *
     2       C         -1.83953318  *   0.00640566  *  -0.71762350  *
     3       C         -2.67113396  *  -1.27088387  *  -0.55284971  *
     4       C         -0.50389172  *  -0.19391798  *  -0.10601896  *
     5       N         -0.07669546  *  -0.41681681  *   1.11177776  *
     6       C          1.32644633  *  -0.48890194  *   1.05738969  *
     7       C          1.70523909  *  -0.30519158  *  -0.25839958  *
     8       N          2.89486089  *  -0.17887481  *  -0.93864979  *
     9       O          0.56383633  *  -0.12427173  *  -1.02614284  *
    10       H         -1.95515246  *   2.12675086  *  -0.19168959  *
    11       H         -3.53005844  *   1.36481971  *  -0.47214121  *
    12       H         -2.64125085  *   1.04851656  *   1.02820056  *
    13       H         -1.70988348  *   0.22047820  *  -1.81338317  *
    14       H         -2.79043565  *  -1.53221863  *   0.50801936  *
    15       H         -3.67226479  *  -1.14887356  *  -0.98034746  *
    16       H         -2.19652396  *  -2.12675086  *  -1.04641638  *
    17       H          1.90334685  *  -0.64631246  *   1.94329081  *
    18       H          2.84055885  *  -0.14844542  *  -1.94329081  *
    19       H          3.67226479  *  -0.70940017  *  -0.58461308  *

                             CARTESIAN COORDINATES

   1    C       -2.530595957     1.203568123    -0.054408653
   2    C       -1.839533183     0.006405657    -0.717623501
   3    C       -2.671133963    -1.270883874    -0.552849712
   4    C       -0.503891719    -0.193917976    -0.106018960
   5    N       -0.076695459    -0.416816807     1.111777756
   6    C        1.326446332    -0.488901936     1.057389692
   7    C        1.705239095    -0.305191584    -0.258399577
   8    N        2.894860890    -0.178874815    -0.938649792
   9    O        0.563836329    -0.124271730    -1.026142840
  10    H       -1.955152465     2.126750864    -0.191689588
  11    H       -3.530058445     1.364819707    -0.472141214
  12    H       -2.641250848     1.048516561     1.028200565
  13    H       -1.709883477     0.220478204    -1.813383170
  14    H       -2.790435645    -1.532218632     0.508019360
  15    H       -3.672264792    -1.148873557    -0.980347459
  16    H       -2.196523962    -2.126750864    -1.046416378
  17    H        1.903346855    -0.646312460     1.943290813
  18    H        2.840558850    -0.148445425    -1.943290813
  19    H        3.672264792    -0.709400168    -0.584613082


           Empirical Formula: C6 H10 N2 O  =    19 atoms



      MOLECULAR POINT GROUP   :   C1  


                  EIGENVALUES  
 -36.93941 -36.67893 -30.60522 -29.27793 -25.17439 -24.16586 -22.65555 -21.39523
 -19.54198 -17.96057 -17.17806 -16.88437 -16.22953 -15.27319 -15.15904 -14.34476
 -14.02888 -13.45011 -12.70228 -12.57183 -12.11715 -12.09659 -11.96181 -11.68569
  -8.88425   0.14281   0.94214   1.09052   2.36115   2.80778   3.31360   3.74497
   3.78755   4.25866   4.47618   5.14014   5.47892   5.69370   5.71751   5.75191
   5.79072   5.84680   6.03561   6.72590   6.79174   6.88779


              NET ATOMIC CHARGES AND DIPOLE CONTRIBUTIONS

  ATOM NO.   TYPE          CHARGE      No. of ELECS.   s-Pop       p-Pop       
    1          C          -0.448314        4.4483     1.05625     3.39206
    2          C          -0.076732        4.0767     1.05290     3.02383
    3          C          -0.448906        4.4489     1.05622     3.39269
    4          C           0.282184        3.7178     1.12579     2.59202
    5          N          -0.447282        5.4473     1.75349     3.69379
    6          C          -0.273154        4.2732     1.07124     3.20191
    7          C           0.317679        3.6823     1.08342     2.59890
    8          N          -0.584112        5.5841     1.56043     4.02368
    9          O          -0.324539        6.3245     1.88043     4.44411
   10          H           0.156148        0.8439     0.84385
   11          H           0.164503        0.8355     0.83550
   12          H           0.160715        0.8393     0.83929
   13          H           0.176058        0.8239     0.82394
   14          H           0.161424        0.8386     0.83858
   15          H           0.165071        0.8349     0.83493
   16          H           0.156381        0.8436     0.84362
   17          H           0.204471        0.7955     0.79553
   18          H           0.326742        0.6733     0.67326
   19          H           0.331662        0.6683     0.66834
 DIPOLE           X         Y         Z       TOTAL
 POINT-CHG.     0.941    -0.375    -3.006     3.172
 HYBRID         0.669    -0.438    -1.190     1.434
 SUM            1.610    -0.812    -4.195     4.567


          ATOMIC ORBITAL ELECTRON POPULATIONS

     Atom    s        px        py        pz   
    1  C   1.05625   1.15425   1.07580   1.16202
    2  C   1.05290   0.91665   1.00437   1.10281
    3  C   1.05622   1.13778   1.06127   1.19364
    4  C   1.12579   0.86358   0.94206   0.78638
    5  N   1.75349   1.16683   1.24674   1.28022
    6  C   1.07124   0.89287   1.28331   1.02573
    7  C   1.08342   0.76425   0.93613   0.89851
    8  N   1.56043   1.14353   1.64212   1.23803
    9  O   1.88043   1.25625   1.76359   1.42427
   10  H   0.84385
   11  H   0.83550
   12  H   0.83929
   13  H   0.82394
   14  H   0.83858
   15  H   0.83493
   16  H   0.84362
   17  H   0.79553
   18  H   0.67326
   19  H   0.66834

 **********************
 *                    *
 * JOB ENDED NORMALLY *
 *                    *
 **********************



 TOTAL JOB TIME:             1.47 SECONDS

 == MOPAC DONE ==
