 *******************************************************************************
 **                                                                           **
 **                              MOPAC v23.2                                  **
 **                                                                           **
 *******************************************************************************
 **          Digital Object Identifier (DOI): 10.5281/zenodo.6511958          **
 **    Visit the DOI location for information on how to cite this program.    **
 *******************************************************************************

                              PM7 CALCULATION RESULTS

 *******************************************************************************
 *  CALCULATION DONE: (MAX THREADS = 40)             Fri Sep 19 21:47:08 2025  *
 *  PM7        - The PM7 Hamiltonian to be used
 *  EPS=37.5   - USE ANDREAS KLAMT'S COSMO IMPLICIT SOLVATION MODEL
 *  1SCF       - DO 1 SCF AND THEN STOP 
 *  T=         - A TIME OF 172800.0 SECONDS REQUESTED
 *  DUMP=N     - RESTART FILE WRITTEN EVERY 7200.0 SECONDS REQUESTED
 *  RELSCF     - DEFAULT SCF CRITERION MULTIPLIED BY 0.0001
 *              (DEFAULT SCF CRITERION = 0.00010)
 *  GRADIENTS  - ALL GRADIENTS TO BE PRINTED
 *  DISP       - PRINT DISPERSION AND HYDROGEN BOND ENERGIES
 *******************************************************************************
PM7 1SCF GRADIENTS EPS=37.5 DISP RELSCF=0.0001
 Title: ASE calculation

   ATOM   CHEMICAL          X               Y               Z
  NUMBER   SYMBOL      (ANGSTROMS)     (ANGSTROMS)     (ANGSTROMS)

     1       C         -2.78751128  *   0.53604716  *   0.00616160  *
     2       C         -1.41716866  *   0.39449374  *  -0.65841082  *
     3       C         -0.66495411  *  -0.79563864  *  -0.09130335  *
     4       C         -0.01488448  *  -0.63717256  *   1.32794652  *
     5       C          1.35179034  *  -1.09527303  *   0.77251571  *
     6       C          2.36000311  *  -0.03606962  *   0.29350562  *
     7       C          1.72452123  *   1.21371619  *  -0.26143979  *
     8       C          1.71698212  *  -0.03355457  *  -1.11737411  *
     9       C          0.72419977  *  -1.13067441  *  -0.69341795  *
    10       H         -2.68758455  *   0.72763905  *   1.08108699  *
    11       H         -3.35636746  *   1.36465631  *  -0.42923536  *
    12       H         -3.38776545  *  -0.37359708  *  -0.11150028  *
    13       H         -0.83924849  *   1.33044457  *  -0.53424482  *
    14       H         -1.53026939  *   0.26948990  *  -1.75380668  *
    15       H         -1.31913274  *  -1.69089941  *  -0.12548604  *
    16       H         -0.03012637  *   0.38052011  *   1.72387922  *
    17       H         -0.43736327  *  -1.29905837  *   2.08593184  *
    18       H          1.78427225  *  -1.98506936  *   1.21249551  *
    19       H          3.38776545  *  -0.08910921  *   0.58637722  *
    20       H          0.81262434  *   1.61545798  *   0.17021333  *
    21       H          2.37591481  *   2.03186124  *  -0.56424436  *
    22       H          2.17240346  *  -0.06634455  *  -2.08593184  *
    23       H          0.77490970  *  -2.03186124  *  -1.29384080  *



          CARTESIAN COORDINATES 

    NO.       ATOM           X           Y           Z

     1         C         -2.7875      0.5360      0.0062
     2         C         -1.4172      0.3945     -0.6584
     3         C         -0.6650     -0.7956     -0.0913
     4         C         -0.0149     -0.6372      1.3279
     5         C          1.3518     -1.0953      0.7725
     6         C          2.3600     -0.0361      0.2935
     7         C          1.7245      1.2137     -0.2614
     8         C          1.7170     -0.0336     -1.1174
     9         C          0.7242     -1.1307     -0.6934
    10         H         -2.6876      0.7276      1.0811
    11         H         -3.3564      1.3647     -0.4292
    12         H         -3.3878     -0.3736     -0.1115
    13         H         -0.8392      1.3304     -0.5342
    14         H         -1.5303      0.2695     -1.7538
    15         H         -1.3191     -1.6909     -0.1255
    16         H         -0.0301      0.3805      1.7239
    17         H         -0.4374     -1.2991      2.0859
    18         H          1.7843     -1.9851      1.2125
    19         H          3.3878     -0.0891      0.5864
    20         H          0.8126      1.6155      0.1702
    21         H          2.3759      2.0319     -0.5642
    22         H          2.1724     -0.0663     -2.0859
    23         H          0.7749     -2.0319     -1.2938

 General Reference for PM7:
 "Optimization of Parameters for Semiempirical Methods VI: More Modifications to the 
 NDDO Approximations and Re-optimization of Parameters", J. J. P. Stewart, J. Mol. Mod., 1:32, 19 (2013)
 https://link.springer.com/article/10.1007/s00894-012-1667-x

           Empirical Formula: C9 H14  =    23 atoms



      MOLECULAR POINT GROUP   :   C1  


      RHF CALCULATION, NO. OF DOUBLY OCCUPIED LEVELS = 25

  SCF CRITERION =    0.1000E-07

 -------------------------------------------------------------------------------
 PM7 1SCF GRADIENTS EPS=37.5 DISP RELSCF=0.0001
 Title: ASE calculation



     1SCF WAS SPECIFIED, SO BFGS WAS NOT USED                 
     SCF FIELD WAS ACHIEVED                                   


                              PM7 CALCULATION
                                                       MOPAC v23.2 Linux
                                                       Fri Sep 19 21:47:09 2025




          FINAL HEAT OF FORMATION =         46.11864 KCAL/MOL =     192.96039 KJ/MOL

          TOTAL ENERGY            =     -29804.15035 KCAL/MOL = ELECTRONIC ENERGY + CORE-CORE REPULSION + SOLVATION ENERGY
          ENERGY OF ATOMS         =      29852.41387 KCAL/MOL
                              SUM =         48.26351 KCAL/MOL
          DISPERSION ENERGY       =         -2.14487 KCAL/MOL
                              SUM =         46.11864 KCAL/MOL = FINAL HEAT OF FORMATION

          VAN DER WAALS AREA      =        167.99 SQUARE ANGSTROMS


          TOTAL ENERGY            =      -1292.43028 EV
          ELECTRONIC ENERGY       =      -2274.08402 EV 
          CORE-CORE REPULSION     =        981.65374 EV

          DIELECTRIC ENERGY       =         -0.08469 EV
          COSMO AREA              =        167.99 SQUARE ANGSTROMS
          COSMO VOLUME            =        172.32 CUBIC ANGSTROMS

          GRADIENT NORM           =          4.13805          =       0.86284 PER ATOM
          IONIZATION POTENTIAL    =          9.961414 EV
          HOMO LUMO ENERGIES (EV) =         -9.961  1.944
          NO. OF FILLED LEVELS    =         25
          MOLECULAR WEIGHT        =        122.2096         POINT GROUP:  C1  

          MOLECULAR DIMENSIONS (Angstroms)

            Atom       Atom       Distance
            H    19    H    11     6.97339
            H    21    H    17     4.83136
            H    23    H    16     3.85159


          SCF CALCULATIONS        =          2

          WALL-CLOCK TIME         =      1.102 SECONDS
          COMPUTATION TIME        =      0.617 SECONDS

          LARGEST ATOMIC GRADIENTS

          Atom     Label                     Cartesian Gradients           Cartesian Coordinates       |Gradient|
                                           X          Y          Z        X          Y          Z

             7       C                  -0.221      1.566      0.165    1.72452    1.21372   -0.26144      1.591
             1       C                  -1.109      0.004      0.729   -2.78751    0.53605    0.00616      1.328
             8       C                   0.694     -0.413     -0.950    1.71698   -0.03355   -1.11737      1.247
            19       H                  -1.148      0.404      0.183    3.38777   -0.08911    0.58638      1.231
             6       C                   1.076     -0.548     -0.046    2.36000   -0.03607    0.29351      1.209
            22       H                  -0.886      0.333      0.663    2.17240   -0.06634   -2.08593      1.155
            21       H                  -0.363     -0.951      0.116    2.37591    2.03186   -0.56424      1.025
             4       C                  -0.734      0.099      0.663   -0.01488   -0.63717    1.32795      0.994
             5       C                   0.197     -0.692      0.402    1.35179   -1.09527    0.77252      0.825
            20       H                   0.724     -0.233     -0.247    0.81262    1.61546    0.17021      0.799



       FINAL  POINT  AND  DERIVATIVES

   PARAMETER     ATOM    TYPE            VALUE        GRADIENT
      1          1  C    CARTESIAN X    -2.787511     -1.109122  KCAL/ANGSTROM
      2          1  C    CARTESIAN Y     0.536047      0.003780  KCAL/ANGSTROM
      3          1  C    CARTESIAN Z     0.006162      0.729480  KCAL/ANGSTROM
      4          2  C    CARTESIAN X    -1.417169      0.049977  KCAL/ANGSTROM
      5          2  C    CARTESIAN Y     0.394494      0.339600  KCAL/ANGSTROM
      6          2  C    CARTESIAN Z    -0.658411      0.059079  KCAL/ANGSTROM
      7          3  C    CARTESIAN X    -0.664954     -0.423867  KCAL/ANGSTROM
      8          3  C    CARTESIAN Y    -0.795639     -0.489881  KCAL/ANGSTROM
      9          3  C    CARTESIAN Z    -0.091303     -0.312141  KCAL/ANGSTROM
     10          4  C    CARTESIAN X    -0.014884     -0.733861  KCAL/ANGSTROM
     11          4  C    CARTESIAN Y    -0.637173      0.099130  KCAL/ANGSTROM
     12          4  C    CARTESIAN Z     1.327947      0.662727  KCAL/ANGSTROM
     13          5  C    CARTESIAN X     1.351790      0.197353  KCAL/ANGSTROM
     14          5  C    CARTESIAN Y    -1.095273     -0.692291  KCAL/ANGSTROM
     15          5  C    CARTESIAN Z     0.772516      0.402306  KCAL/ANGSTROM
     16          6  C    CARTESIAN X     2.360003      1.076144  KCAL/ANGSTROM
     17          6  C    CARTESIAN Y    -0.036070     -0.548366  KCAL/ANGSTROM
     18          6  C    CARTESIAN Z     0.293506     -0.045657  KCAL/ANGSTROM
     19          7  C    CARTESIAN X     1.724521     -0.221285  KCAL/ANGSTROM
     20          7  C    CARTESIAN Y     1.213716      1.566410  KCAL/ANGSTROM
     21          7  C    CARTESIAN Z    -0.261440      0.164953  KCAL/ANGSTROM
     22          8  C    CARTESIAN X     1.716982      0.694224  KCAL/ANGSTROM
     23          8  C    CARTESIAN Y    -0.033555     -0.412694  KCAL/ANGSTROM
     24          8  C    CARTESIAN Z    -1.117374     -0.949976  KCAL/ANGSTROM
     25          9  C    CARTESIAN X     0.724200     -0.181576  KCAL/ANGSTROM
     26          9  C    CARTESIAN Y    -1.130674     -0.497234  KCAL/ANGSTROM
     27          9  C    CARTESIAN Z    -0.693418     -0.530353  KCAL/ANGSTROM
     28         10  H    CARTESIAN X    -2.687585      0.285677  KCAL/ANGSTROM
     29         10  H    CARTESIAN Y     0.727639      0.112828  KCAL/ANGSTROM
     30         10  H    CARTESIAN Z     1.081087     -0.014199  KCAL/ANGSTROM
     31         11  H    CARTESIAN X    -3.356367      0.252679  KCAL/ANGSTROM
     32         11  H    CARTESIAN Y     1.364656     -0.317396  KCAL/ANGSTROM
     33         11  H    CARTESIAN Z    -0.429235     -0.224560  KCAL/ANGSTROM
     34         12  H    CARTESIAN X    -3.387765      0.225385  KCAL/ANGSTROM
     35         12  H    CARTESIAN Y    -0.373597     -0.147185  KCAL/ANGSTROM
     36         12  H    CARTESIAN Z    -0.111500     -0.137476  KCAL/ANGSTROM
     37         13  H    CARTESIAN X    -0.839248      0.202308  KCAL/ANGSTROM
     38         13  H    CARTESIAN Y     1.330445     -0.195567  KCAL/ANGSTROM
     39         13  H    CARTESIAN Z    -0.534245     -0.149230  KCAL/ANGSTROM
     40         14  H    CARTESIAN X    -1.530269      0.360206  KCAL/ANGSTROM
     41         14  H    CARTESIAN Y     0.269490      0.043384  KCAL/ANGSTROM
     42         14  H    CARTESIAN Z    -1.753807      0.120054  KCAL/ANGSTROM
     43         15  H    CARTESIAN X    -1.319133     -0.010416  KCAL/ANGSTROM
     44         15  H    CARTESIAN Y    -1.690899      0.376879  KCAL/ANGSTROM
     45         15  H    CARTESIAN Z    -0.125486     -0.384540  KCAL/ANGSTROM
     46         16  H    CARTESIAN X    -0.030126      0.579788  KCAL/ANGSTROM
     47         16  H    CARTESIAN Y     0.380520     -0.143045  KCAL/ANGSTROM
     48         16  H    CARTESIAN Z     1.723879     -0.141231  KCAL/ANGSTROM
     49         17  H    CARTESIAN X    -0.437363      0.209228  KCAL/ANGSTROM
     50         17  H    CARTESIAN Y    -1.299058      0.338990  KCAL/ANGSTROM
     51         17  H    CARTESIAN Z     2.085932     -0.231374  KCAL/ANGSTROM
     52         18  H    CARTESIAN X     1.784272     -0.028965  KCAL/ANGSTROM
     53         18  H    CARTESIAN Y    -1.985069      0.454381  KCAL/ANGSTROM
     54         18  H    CARTESIAN Z     1.212496     -0.232929  KCAL/ANGSTROM
     55         19  H    CARTESIAN X     3.387765     -1.148247  KCAL/ANGSTROM
     56         19  H    CARTESIAN Y    -0.089109      0.404310  KCAL/ANGSTROM
     57         19  H    CARTESIAN Z     0.586377      0.183394  KCAL/ANGSTROM
     58         20  H    CARTESIAN X     0.812624      0.723677  KCAL/ANGSTROM
     59         20  H    CARTESIAN Y     1.615458     -0.232890  KCAL/ANGSTROM
     60         20  H    CARTESIAN Z     0.170213     -0.246710  KCAL/ANGSTROM
     61         21  H    CARTESIAN X     2.375915     -0.362537  KCAL/ANGSTROM
     62         21  H    CARTESIAN Y     2.031861     -0.951325  KCAL/ANGSTROM
     63         21  H    CARTESIAN Z    -0.564244      0.115947  KCAL/ANGSTROM
     64         22  H    CARTESIAN X     2.172403     -0.885960  KCAL/ANGSTROM
     65         22  H    CARTESIAN Y    -0.066345      0.332720  KCAL/ANGSTROM
     66         22  H    CARTESIAN Z    -2.085932      0.662825  KCAL/ANGSTROM
     67         23  H    CARTESIAN X     0.774910      0.249189  KCAL/ANGSTROM
     68         23  H    CARTESIAN Y    -2.031861      0.555460  KCAL/ANGSTROM
     69         23  H    CARTESIAN Z    -1.293841      0.499608  KCAL/ANGSTROM




   ATOM   CHEMICAL          X               Y               Z
  NUMBER   SYMBOL      (ANGSTROMS)     (ANGSTROMS)     (ANGSTROMS)

     1       C         -2.78751128  *   0.53604716  *   0.00616160  *
     2       C         -1.41716866  *   0.39449374  *  -0.65841082  *
     3       C         -0.66495411  *  -0.79563864  *  -0.09130335  *
     4       C         -0.01488448  *  -0.63717256  *   1.32794652  *
     5       C          1.35179034  *  -1.09527303  *   0.77251571  *
     6       C          2.36000311  *  -0.03606962  *   0.29350562  *
     7       C          1.72452123  *   1.21371619  *  -0.26143979  *
     8       C          1.71698212  *  -0.03355457  *  -1.11737411  *
     9       C          0.72419977  *  -1.13067441  *  -0.69341795  *
    10       H         -2.68758455  *   0.72763905  *   1.08108699  *
    11       H         -3.35636746  *   1.36465631  *  -0.42923536  *
    12       H         -3.38776545  *  -0.37359708  *  -0.11150028  *
    13       H         -0.83924849  *   1.33044457  *  -0.53424482  *
    14       H         -1.53026939  *   0.26948990  *  -1.75380668  *
    15       H         -1.31913274  *  -1.69089941  *  -0.12548604  *
    16       H         -0.03012637  *   0.38052011  *   1.72387922  *
    17       H         -0.43736327  *  -1.29905837  *   2.08593184  *
    18       H          1.78427225  *  -1.98506936  *   1.21249551  *
    19       H          3.38776545  *  -0.08910921  *   0.58637722  *
    20       H          0.81262434  *   1.61545798  *   0.17021333  *
    21       H          2.37591481  *   2.03186124  *  -0.56424436  *
    22       H          2.17240346  *  -0.06634455  *  -2.08593184  *
    23       H          0.77490970  *  -2.03186124  *  -1.29384080  *

                             CARTESIAN COORDINATES

   1    C       -2.787511284     0.536047162     0.006161601
   2    C       -1.417168656     0.394493736    -0.658410824
   3    C       -0.664954108    -0.795638641    -0.091303355
   4    C       -0.014884483    -0.637172564     1.327946523
   5    C        1.351790342    -1.095273033     0.772515705
   6    C        2.360003114    -0.036069624     0.293505618
   7    C        1.724521227     1.213716187    -0.261439795
   8    C        1.716982117    -0.033554569    -1.117374111
   9    C        0.724199769    -1.130674409    -0.693417948
  10    H       -2.687584552     0.727639052     1.081086992
  11    H       -3.356367457     1.364656313    -0.429235363
  12    H       -3.387765445    -0.373597077    -0.111500285
  13    H       -0.839248486     1.330444575    -0.534244818
  14    H       -1.530269392     0.269489903    -1.753806682
  15    H       -1.319132738    -1.690899407    -0.125486037
  16    H       -0.030126365     0.380520107     1.723879218
  17    H       -0.437363272    -1.299058373     2.085931841
  18    H        1.784272250    -1.985069356     1.212495507
  19    H        3.387765445    -0.089109208     0.586377217
  20    H        0.812624341     1.615457984     0.170213333
  21    H        2.375914809     2.031861238    -0.564244360
  22    H        2.172403459    -0.066344554    -2.085931841
  23    H        0.774909701    -2.031861238    -1.293840798


           Empirical Formula: C9 H14  =    23 atoms



      MOLECULAR POINT GROUP   :   C1  


                  EIGENVALUES  
 -32.74101 -28.56508 -26.76719 -23.47052 -23.19704 -21.01977 -19.72639 -19.47689
 -17.96071 -17.08026 -15.91350 -15.63452 -14.94249 -14.08633 -13.97509 -13.40793
 -13.11096 -12.70482 -12.41596 -11.99122 -11.56600 -11.02046 -10.98439 -10.84596
  -9.96141   1.94434   2.95739   3.54597   3.57408   3.63420   3.70922   4.35531
   4.51746   4.60437   4.96989   5.40530   5.58027   5.69473   5.83909   5.94555
   6.07090   6.09106   6.17493   6.21268   6.24064   6.34657   6.37660   6.67437
   6.85728   7.07793


              NET ATOMIC CHARGES AND DIPOLE CONTRIBUTIONS

  ATOM NO.   TYPE          CHARGE      No. of ELECS.   s-Pop       p-Pop       
    1          C          -0.446953        4.4470     1.05290     3.39406
    2          C          -0.271375        4.2714     1.05476     3.21661
    3          C          -0.108561        4.1086     1.07227     3.03629
    4          C          -0.302383        4.3024     1.07243     3.22995
    5          C          -0.137383        4.1374     1.08121     3.05617
    6          C          -0.193553        4.1936     1.06573     3.12782
    7          C          -0.321782        4.3218     1.05650     3.26528
    8          C          -0.184188        4.1842     1.06495     3.11923
    9          C          -0.156085        4.1561     1.08585     3.07024
   10          H           0.147901        0.8521     0.85210
   11          H           0.146055        0.8539     0.85395
   12          H           0.147370        0.8526     0.85263
   13          H           0.145432        0.8546     0.85457
   14          H           0.143399        0.8566     0.85660
   15          H           0.141946        0.8581     0.85805
   16          H           0.152034        0.8480     0.84797
   17          H           0.144784        0.8552     0.85522
   18          H           0.148047        0.8520     0.85195
   19          H           0.163172        0.8368     0.83683
   20          H           0.169561        0.8304     0.83044
   21          H           0.163897        0.8361     0.83610
   22          H           0.161686        0.8383     0.83831
   23          H           0.146980        0.8530     0.85302
 DIPOLE           X         Y         Z       TOTAL
 POINT-CHG.    -0.451    -0.073     0.007     0.457
 HYBRID         0.107     0.116     0.015     0.158
 SUM           -0.344     0.043     0.022     0.347


          ATOMIC ORBITAL ELECTRON POPULATIONS

     Atom    s        px        py        pz   
    1  C   1.05290   1.06288   1.17642   1.15475
    2  C   1.05476   1.02069   1.08469   1.11124
    3  C   1.07227   0.98945   1.06404   0.98281
    4  C   1.07243   1.02009   1.16175   1.04811
    5  C   1.08121   0.98090   1.05756   1.01770
    6  C   1.06573   1.07398   1.02760   1.02623
    7  C   1.05650   1.16193   0.99228   1.11107
    8  C   1.06495   1.08400   1.02319   1.01204
    9  C   1.08585   0.99636   1.05886   1.01501
   10  H   0.85210
   11  H   0.85395
   12  H   0.85263
   13  H   0.85457
   14  H   0.85660
   15  H   0.85805
   16  H   0.84797
   17  H   0.85522
   18  H   0.85195
   19  H   0.83683
   20  H   0.83044
   21  H   0.83610
   22  H   0.83831
   23  H   0.85302

 **********************
 *                    *
 * JOB ENDED NORMALLY *
 *                    *
 **********************



 TOTAL JOB TIME:             1.56 SECONDS

 == MOPAC DONE ==
