 *******************************************************************************
 **                                                                           **
 **                              MOPAC v23.2                                  **
 **                                                                           **
 *******************************************************************************
 **          Digital Object Identifier (DOI): 10.5281/zenodo.6511958          **
 **    Visit the DOI location for information on how to cite this program.    **
 *******************************************************************************

                              PM7 CALCULATION RESULTS

 *******************************************************************************
 *  CALCULATION DONE: (MAX THREADS = 40)             Fri Sep 19 21:35:57 2025  *
 *  PM7        - The PM7 Hamiltonian to be used
 *  1SCF       - DO 1 SCF AND THEN STOP 
 *  T=         - A TIME OF 172800.0 SECONDS REQUESTED
 *  DUMP=N     - RESTART FILE WRITTEN EVERY 7200.0 SECONDS REQUESTED
 *  RELSCF     - DEFAULT SCF CRITERION MULTIPLIED BY 0.0001
 *              (DEFAULT SCF CRITERION = 0.00010)
 *  GRADIENTS  - ALL GRADIENTS TO BE PRINTED
 *  DISP       - PRINT DISPERSION AND HYDROGEN BOND ENERGIES
 *******************************************************************************
PM7 1SCF GRADIENTS DISP RELSCF=0.0001
 Title: ASE calculation

   ATOM   CHEMICAL          X               Y               Z
  NUMBER   SYMBOL      (ANGSTROMS)     (ANGSTROMS)     (ANGSTROMS)

     1       C          2.50428255  *  -1.00213005  *   0.44548391  *
     2       O          1.48397205  *  -0.18731465  *  -0.11820158  *
     3       C          0.27507326  *  -0.28933854  *   0.51485520  *
     4       C         -0.65938144  *   0.61378790  *   0.17123332  *
     5       C         -0.39039670  *   1.71157420  *  -0.79584073  *
     6       C         -2.02835366  *   0.55758602  *   0.74785918  *
     7       O         -2.96724629  *   0.13402676  *  -0.27962245  *
     8       C         -3.16361778  *  -1.00935885  *  -0.72733518  *
     9       C         -2.46537023  *  -2.24824244  *  -0.31059381  *
    10       H          2.71023022  *  -0.70441265  *   1.47771701  *
    11       H          3.36808121  *  -0.77870339  *  -0.19470484  *
    12       H          2.24542095  *  -2.06242348  *   0.38250941  *
    13       H          0.15644852  *  -1.09130009  *   1.22826447  *
    14       H          0.47788036  *   1.50171495  *  -1.43867611  *
    15       H         -1.24877508  *   1.88845804  *  -1.46116448  *
    16       H         -0.17729148  *   2.65342839  *  -0.26898129  *
    17       H         -2.12880329  *  -0.10448822  *   1.61862528  *
    18       H         -2.41600220  *   1.55855770  *   1.01334320  *
    19       H         -1.74010250  *  -2.53683914  *  -1.08842608  *
    20       H         -1.92580832  *  -2.18380147  *   0.63826463  *
    21       H         -3.18726209  *  -3.07558087  *  -0.23664889  *



          CARTESIAN COORDINATES 

    NO.       ATOM           X           Y           Z

     1         C          2.5043     -1.0021      0.4455
     2         O          1.4840     -0.1873     -0.1182
     3         C          0.2751     -0.2893      0.5149
     4         C         -0.6594      0.6138      0.1712
     5         C         -0.3904      1.7116     -0.7958
     6         C         -2.0284      0.5576      0.7479
     7         O         -2.9672      0.1340     -0.2796
     8         C         -3.1636     -1.0094     -0.7273
     9         C         -2.4654     -2.2482     -0.3106
    10         H          2.7102     -0.7044      1.4777
    11         H          3.3681     -0.7787     -0.1947
    12         H          2.2454     -2.0624      0.3825
    13         H          0.1564     -1.0913      1.2283
    14         H          0.4779      1.5017     -1.4387
    15         H         -1.2488      1.8885     -1.4612
    16         H         -0.1773      2.6534     -0.2690
    17         H         -2.1288     -0.1045      1.6186
    18         H         -2.4160      1.5586      1.0133
    19         H         -1.7401     -2.5368     -1.0884
    20         H         -1.9258     -2.1838      0.6383
    21         H         -3.1873     -3.0756     -0.2366

 General Reference for PM7:
 "Optimization of Parameters for Semiempirical Methods VI: More Modifications to the 
 NDDO Approximations and Re-optimization of Parameters", J. J. P. Stewart, J. Mol. Mod., 1:32, 19 (2013)
 https://link.springer.com/article/10.1007/s00894-012-1667-x

           Empirical Formula: C7 H12 O2  =    21 atoms



      MOLECULAR POINT GROUP   :   C1  


      RHF CALCULATION, NO. OF DOUBLY OCCUPIED LEVELS = 26

  SCF CRITERION =    0.1000E-07

 -------------------------------------------------------------------------------
 PM7 1SCF GRADIENTS DISP RELSCF=0.0001
 Title: ASE calculation



     1SCF WAS SPECIFIED, SO BFGS WAS NOT USED                 
     SCF FIELD WAS ACHIEVED                                   


                              PM7 CALCULATION
                                                       MOPAC v23.2 Linux
                                                       Fri Sep 19 21:35:58 2025




          FINAL HEAT OF FORMATION =        -38.45659 KCAL/MOL =    -160.90236 KJ/MOL

          TOTAL ENERGY            =     -37133.36735 KCAL/MOL = ELECTRONIC ENERGY + CORE-CORE REPULSION
          ENERGY OF ATOMS         =      37097.27293 KCAL/MOL
                              SUM =        -36.09442 KCAL/MOL
          DISPERSION ENERGY       =         -2.36217 KCAL/MOL
                              SUM =        -38.45659 KCAL/MOL = FINAL HEAT OF FORMATION



          TOTAL ENERGY            =      -1610.25521 EV
          ELECTRONIC ENERGY       =      -7716.41705 EV 
          CORE-CORE REPULSION     =       6106.16184 EV
          COSMO AREA              =        179.67 SQUARE ANGSTROMS
          COSMO VOLUME            =        179.46 CUBIC ANGSTROMS

          GRADIENT NORM           =          1.09182          =       0.23826 PER ATOM
          IONIZATION POTENTIAL    =          8.528337 EV
          HOMO LUMO ENERGIES (EV) =         -8.528  0.786
          NO. OF FILLED LEVELS    =         26
          MOLECULAR WEIGHT        =        128.1706         POINT GROUP:  C1  

          MOLECULAR DIMENSIONS (Angstroms)

            Atom       Atom       Distance
            H    21    H    11     6.94622
            H    16    H    12     5.29140
            H    17    H    19     2.98050


          SCF CALCULATIONS        =          1

          WALL-CLOCK TIME         =      0.609 SECONDS
          COMPUTATION TIME        =      0.676 SECONDS

          LARGEST ATOMIC GRADIENTS

          Atom     Label                     Cartesian Gradients           Cartesian Coordinates       |Gradient|
                                           X          Y          Z        X          Y          Z

            15       H                   0.206      0.304     -0.153   -1.24878    1.88846   -1.46116      0.398
            16       H                   0.122     -0.328      0.186   -0.17729    2.65343   -0.26898      0.396
             2       O                  -0.079     -0.086     -0.348    1.48397   -0.18731   -0.11820      0.367
            10       H                  -0.175      0.124     -0.235    2.71023   -0.70441    1.47772      0.318
             7       O                   0.252     -0.070     -0.052   -2.96725    0.13403   -0.27962      0.267
             5       C                   0.123      0.099      0.202   -0.39040    1.71157   -0.79584      0.257
            11       H                  -0.037      0.157      0.174    3.36808   -0.77870   -0.19470      0.237
            12       H                   0.044      0.038      0.227    2.24542   -2.06242    0.38251      0.234
            19       H                   0.070     -0.073     -0.202   -1.74010   -2.53684   -1.08843      0.226
             1       C                  -0.078      0.005     -0.210    2.50428   -1.00213    0.44548      0.225



       FINAL  POINT  AND  DERIVATIVES

   PARAMETER     ATOM    TYPE            VALUE        GRADIENT
      1          1  C    CARTESIAN X     2.504283     -0.078410  KCAL/ANGSTROM
      2          1  C    CARTESIAN Y    -1.002130      0.004669  KCAL/ANGSTROM
      3          1  C    CARTESIAN Z     0.445484     -0.210430  KCAL/ANGSTROM
      4          2  O    CARTESIAN X     1.483972     -0.078747  KCAL/ANGSTROM
      5          2  O    CARTESIAN Y    -0.187315     -0.086190  KCAL/ANGSTROM
      6          2  O    CARTESIAN Z    -0.118202     -0.347758  KCAL/ANGSTROM
      7          3  C    CARTESIAN X     0.275073      0.024929  KCAL/ANGSTROM
      8          3  C    CARTESIAN Y    -0.289339     -0.062289  KCAL/ANGSTROM
      9          3  C    CARTESIAN Z     0.514855     -0.082123  KCAL/ANGSTROM
     10          4  C    CARTESIAN X    -0.659381     -0.156566  KCAL/ANGSTROM
     11          4  C    CARTESIAN Y     0.613788     -0.027884  KCAL/ANGSTROM
     12          4  C    CARTESIAN Z     0.171233      0.064574  KCAL/ANGSTROM
     13          5  C    CARTESIAN X    -0.390397      0.122776  KCAL/ANGSTROM
     14          5  C    CARTESIAN Y     1.711574      0.099117  KCAL/ANGSTROM
     15          5  C    CARTESIAN Z    -0.795841      0.202405  KCAL/ANGSTROM
     16          6  C    CARTESIAN X    -2.028354     -0.027758  KCAL/ANGSTROM
     17          6  C    CARTESIAN Y     0.557586      0.016443  KCAL/ANGSTROM
     18          6  C    CARTESIAN Z     0.747859     -0.016187  KCAL/ANGSTROM
     19          7  O    CARTESIAN X    -2.967246      0.252470  KCAL/ANGSTROM
     20          7  O    CARTESIAN Y     0.134027     -0.070271  KCAL/ANGSTROM
     21          7  O    CARTESIAN Z    -0.279622     -0.051826  KCAL/ANGSTROM
     22          8  C    CARTESIAN X    -3.163618     -0.137727  KCAL/ANGSTROM
     23          8  C    CARTESIAN Y    -1.009359     -0.007222  KCAL/ANGSTROM
     24          8  C    CARTESIAN Z    -0.727335      0.092963  KCAL/ANGSTROM
     25          9  C    CARTESIAN X    -2.465370     -0.094913  KCAL/ANGSTROM
     26          9  C    CARTESIAN Y    -2.248242     -0.066890  KCAL/ANGSTROM
     27          9  C    CARTESIAN Z    -0.310594      0.184310  KCAL/ANGSTROM
     28         10  H    CARTESIAN X     2.710230     -0.174705  KCAL/ANGSTROM
     29         10  H    CARTESIAN Y    -0.704413      0.123912  KCAL/ANGSTROM
     30         10  H    CARTESIAN Z     1.477717     -0.234616  KCAL/ANGSTROM
     31         11  H    CARTESIAN X     3.368081     -0.036812  KCAL/ANGSTROM
     32         11  H    CARTESIAN Y    -0.778703      0.157203  KCAL/ANGSTROM
     33         11  H    CARTESIAN Z    -0.194705      0.173725  KCAL/ANGSTROM
     34         12  H    CARTESIAN X     2.245421      0.044481  KCAL/ANGSTROM
     35         12  H    CARTESIAN Y    -2.062423      0.038230  KCAL/ANGSTROM
     36         12  H    CARTESIAN Z     0.382509      0.226777  KCAL/ANGSTROM
     37         13  H    CARTESIAN X     0.156449     -0.005122  KCAL/ANGSTROM
     38         13  H    CARTESIAN Y    -1.091300     -0.099975  KCAL/ANGSTROM
     39         13  H    CARTESIAN Z     1.228264      0.012003  KCAL/ANGSTROM
     40         14  H    CARTESIAN X     0.477880      0.115433  KCAL/ANGSTROM
     41         14  H    CARTESIAN Y     1.501715      0.125312  KCAL/ANGSTROM
     42         14  H    CARTESIAN Z    -1.438676      0.086229  KCAL/ANGSTROM
     43         15  H    CARTESIAN X    -1.248775      0.206479  KCAL/ANGSTROM
     44         15  H    CARTESIAN Y     1.888458      0.303551  KCAL/ANGSTROM
     45         15  H    CARTESIAN Z    -1.461164     -0.152682  KCAL/ANGSTROM
     46         16  H    CARTESIAN X    -0.177291      0.122040  KCAL/ANGSTROM
     47         16  H    CARTESIAN Y     2.653428     -0.328000  KCAL/ANGSTROM
     48         16  H    CARTESIAN Z    -0.268981      0.185781  KCAL/ANGSTROM
     49         17  H    CARTESIAN X    -2.128803     -0.003018  KCAL/ANGSTROM
     50         17  H    CARTESIAN Y    -0.104488      0.088491  KCAL/ANGSTROM
     51         17  H    CARTESIAN Z     1.618625     -0.106357  KCAL/ANGSTROM
     52         18  H    CARTESIAN X    -2.416002     -0.145119  KCAL/ANGSTROM
     53         18  H    CARTESIAN Y     1.558558     -0.047244  KCAL/ANGSTROM
     54         18  H    CARTESIAN Z     1.013343     -0.104006  KCAL/ANGSTROM
     55         19  H    CARTESIAN X    -1.740102      0.070352  KCAL/ANGSTROM
     56         19  H    CARTESIAN Y    -2.536839     -0.072520  KCAL/ANGSTROM
     57         19  H    CARTESIAN Z    -1.088426     -0.201789  KCAL/ANGSTROM
     58         20  H    CARTESIAN X    -1.925808      0.108337  KCAL/ANGSTROM
     59         20  H    CARTESIAN Y    -2.183801     -0.001131  KCAL/ANGSTROM
     60         20  H    CARTESIAN Z     0.638265      0.141348  KCAL/ANGSTROM
     61         21  H    CARTESIAN X    -3.187262     -0.128400  KCAL/ANGSTROM
     62         21  H    CARTESIAN Y    -3.075581     -0.087314  KCAL/ANGSTROM
     63         21  H    CARTESIAN Z    -0.236649      0.137656  KCAL/ANGSTROM




   ATOM   CHEMICAL          X               Y               Z
  NUMBER   SYMBOL      (ANGSTROMS)     (ANGSTROMS)     (ANGSTROMS)

     1       C          2.50428255  *  -1.00213005  *   0.44548391  *
     2       O          1.48397205  *  -0.18731465  *  -0.11820158  *
     3       C          0.27507326  *  -0.28933854  *   0.51485520  *
     4       C         -0.65938144  *   0.61378790  *   0.17123332  *
     5       C         -0.39039670  *   1.71157420  *  -0.79584073  *
     6       C         -2.02835366  *   0.55758602  *   0.74785918  *
     7       O         -2.96724629  *   0.13402676  *  -0.27962245  *
     8       C         -3.16361778  *  -1.00935885  *  -0.72733518  *
     9       C         -2.46537023  *  -2.24824244  *  -0.31059381  *
    10       H          2.71023022  *  -0.70441265  *   1.47771701  *
    11       H          3.36808121  *  -0.77870339  *  -0.19470484  *
    12       H          2.24542095  *  -2.06242348  *   0.38250941  *
    13       H          0.15644852  *  -1.09130009  *   1.22826447  *
    14       H          0.47788036  *   1.50171495  *  -1.43867611  *
    15       H         -1.24877508  *   1.88845804  *  -1.46116448  *
    16       H         -0.17729148  *   2.65342839  *  -0.26898129  *
    17       H         -2.12880329  *  -0.10448822  *   1.61862528  *
    18       H         -2.41600220  *   1.55855770  *   1.01334320  *
    19       H         -1.74010250  *  -2.53683914  *  -1.08842608  *
    20       H         -1.92580832  *  -2.18380147  *   0.63826463  *
    21       H         -3.18726209  *  -3.07558087  *  -0.23664889  *

                             CARTESIAN COORDINATES

   1    C        2.504282552    -1.002130049     0.445483909
   2    O        1.483972052    -0.187314649    -0.118201583
   3    C        0.275073258    -0.289338535     0.514855196
   4    C       -0.659381436     0.613787903     0.171233324
   5    C       -0.390396704     1.711574200    -0.795840731
   6    C       -2.028353656     0.557586024     0.747859179
   7    O       -2.967246292     0.134026758    -0.279622445
   8    C       -3.163617778    -1.009358852    -0.727335184
   9    C       -2.465370229    -2.248242444    -0.310593814
  10    H        2.710230222    -0.704412649     1.477717009
  11    H        3.368081208    -0.778703394    -0.194704843
  12    H        2.245420951    -2.062423478     0.382509407
  13    H        0.156448519    -1.091300089     1.228264469
  14    H        0.477880359     1.501714948    -1.438676113
  15    H       -1.248775075     1.888458037    -1.461164483
  16    H       -0.177291482     2.653428385    -0.268981286
  17    H       -2.128803292    -0.104488219     1.618625279
  18    H       -2.416002196     1.558557703     1.013343199
  19    H       -1.740102499    -2.536839140    -1.088426080
  20    H       -1.925808320    -2.183801469     0.638264625
  21    H       -3.187262093    -3.075580870    -0.236648892


           Empirical Formula: C7 H12 O2  =    21 atoms



      MOLECULAR POINT GROUP   :   C1  


                  EIGENVALUES  
 -31.25396 -30.41169 -28.35373 -25.96595 -25.00434 -24.27504 -23.43482 -19.88315
 -18.42880 -17.24011 -16.54233 -16.29991 -15.69337 -15.24960 -14.72058 -14.11923
 -13.97472 -13.77988 -13.11516 -12.82776 -12.44389 -11.98698 -11.78726 -11.65009
  -9.47284  -8.52834   0.78644   1.72406   1.96857   2.32815   4.08978   4.51774
   4.67915   4.77243   5.26544   5.28858   5.30269   5.36405   5.46913   5.52995
   5.77524   5.89035   5.98678   6.01361   6.17616   6.37979   6.93018   7.17963


              NET ATOMIC CHARGES AND DIPOLE CONTRIBUTIONS

  ATOM NO.   TYPE          CHARGE      No. of ELECS.   s-Pop       p-Pop       
    1          C          -0.210827        4.2108     1.08638     3.12445
    2          O          -0.301128        6.3011     1.87079     4.43034
    3          C           0.010513        3.9895     1.10871     2.88078
    4          C          -0.112185        4.1122     1.06171     3.05048
    5          C          -0.424383        4.4244     1.04466     3.37972
    6          C          -0.178957        4.1790     1.09351     3.08544
    7          O          -0.220177        6.2202     1.83437     4.38581
    8          C           0.241807        3.7582     1.56363     2.19456
    9          C          -0.632641        4.6326     1.07054     3.56210
   10          H           0.132187        0.8678     0.86781
   11          H           0.153577        0.8464     0.84642
   12          H           0.128373        0.8716     0.87163
   13          H           0.134729        0.8653     0.86527
   14          H           0.161450        0.8385     0.83855
   15          H           0.160662        0.8393     0.83934
   16          H           0.154468        0.8455     0.84553
   17          H           0.125598        0.8744     0.87440
   18          H           0.158494        0.8415     0.84151
   19          H           0.185153        0.8148     0.81485
   20          H           0.152218        0.8478     0.84778
   21          H           0.181068        0.8189     0.81893
 DIPOLE           X         Y         Z       TOTAL
 POINT-CHG.     1.297    -1.323     1.451     2.353
 HYBRID         1.578    -0.352     1.146     1.982
 SUM            2.875    -1.676     2.597     4.221


          ATOMIC ORBITAL ELECTRON POPULATIONS

     Atom    s        px        py        pz   
    1  C   1.08638   0.96160   1.04762   1.11524
    2  O   1.87079   1.24778   1.64130   1.54126
    3  C   1.10871   0.85902   1.02545   0.99631
    4  C   1.06171   0.97581   1.01839   1.05627
    5  C   1.04466   1.18167   1.08567   1.11238
    6  C   1.09351   0.96072   1.13030   0.99443
    7  O   1.83437   1.48358   1.45225   1.44998
    8  C   1.56363   0.76276   0.71801   0.71378
    9  C   1.07054   1.18695   1.19739   1.17776
   10  H   0.86781
   11  H   0.84642
   12  H   0.87163
   13  H   0.86527
   14  H   0.83855
   15  H   0.83934
   16  H   0.84553
   17  H   0.87440
   18  H   0.84151
   19  H   0.81485
   20  H   0.84778
   21  H   0.81893

 **********************
 *                    *
 * JOB ENDED NORMALLY *
 *                    *
 **********************



 TOTAL JOB TIME:             0.91 SECONDS

 == MOPAC DONE ==
