 *******************************************************************************
 **                                                                           **
 **                              MOPAC v23.2                                  **
 **                                                                           **
 *******************************************************************************
 **          Digital Object Identifier (DOI): 10.5281/zenodo.6511958          **
 **    Visit the DOI location for information on how to cite this program.    **
 *******************************************************************************

                              PM7 CALCULATION RESULTS

 *******************************************************************************
 *  CALCULATION DONE: (MAX THREADS = 40)             Fri Sep 19 22:04:35 2025  *
 *  PM7        - The PM7 Hamiltonian to be used
 *
 *
 *
 *                 CHARGE ON SYSTEM = +1
 *
 *
 *
 *  EPS=37.5   - USE ANDREAS KLAMT'S COSMO IMPLICIT SOLVATION MODEL
 *  1SCF       - DO 1 SCF AND THEN STOP 
 *  T=         - A TIME OF 172800.0 SECONDS REQUESTED
 *  DUMP=N     - RESTART FILE WRITTEN EVERY 7200.0 SECONDS REQUESTED
 *  RELSCF     - DEFAULT SCF CRITERION MULTIPLIED BY 0.0001
 *              (DEFAULT SCF CRITERION = 0.00010)
 *  GRADIENTS  - ALL GRADIENTS TO BE PRINTED
 *  DISP       - PRINT DISPERSION AND HYDROGEN BOND ENERGIES
 *******************************************************************************
PM7 1SCF GRADIENTS EPS=37.5 DISP RELSCF=0.0001 CHARGE=1
 Title: ASE calculation

   ATOM   CHEMICAL          X               Y               Z
  NUMBER   SYMBOL      (ANGSTROMS)     (ANGSTROMS)     (ANGSTROMS)

     1       C          2.19611191  *  -1.38053807  *   1.76726302  *
     2       O          1.13776431  *  -0.88296180  *   0.92377472  *
     3       C         -0.06467150  *  -0.93754847  *   1.40387513  *
     4       C         -0.08274791  *  -0.61784964  *  -1.82791665  *
     5       N         -0.47402878  *   0.21605703  *  -0.84617567  *
     6       C         -0.28911480  *   1.54780918  *  -0.92394728  *
     7       C         -1.04039157  *  -0.35853701  *   0.36872731  *
     8       C         -2.37571256  *  -1.09477565  *   0.29641906  *
     9       C         -2.31058004  *   0.24200453  *   0.96217106  *
    10       H          2.88938675  *  -0.53677211  *   1.87632948  *
    11       H          2.64956193  *  -2.20746495  *   1.20610592  *
    12       H          1.81587191  *  -1.71731614  *   2.74033743  *
    13       H          0.39443851  *  -0.25812179  *  -2.74033743  *
    14       H         -0.22435535  *  -1.69622081  *  -1.73774952  *
    15       H         -0.59357032  *   2.20746495  *  -0.10997702  *
    16       H          0.17301443  *   2.01980582  *  -1.79191149  *
    17       H         -2.50978934  *  -2.00084173  *   0.90049242  *
    18       H         -2.88938675  *  -1.21493526  *  -0.65790355  *
    19       H         -2.78314571  *   1.11074136  *   0.50278415  *
    20       H         -2.39622333  *   0.31653978  *   2.05399279  *



          CARTESIAN COORDINATES 

    NO.       ATOM           X           Y           Z

     1         C          2.1961     -1.3805      1.7673
     2         O          1.1378     -0.8830      0.9238
     3         C         -0.0647     -0.9375      1.4039
     4         C         -0.0827     -0.6178     -1.8279
     5         N         -0.4740      0.2161     -0.8462
     6         C         -0.2891      1.5478     -0.9239
     7         C         -1.0404     -0.3585      0.3687
     8         C         -2.3757     -1.0948      0.2964
     9         C         -2.3106      0.2420      0.9622
    10         H          2.8894     -0.5368      1.8763
    11         H          2.6496     -2.2075      1.2061
    12         H          1.8159     -1.7173      2.7403
    13         H          0.3944     -0.2581     -2.7403
    14         H         -0.2244     -1.6962     -1.7377
    15         H         -0.5936      2.2075     -0.1100
    16         H          0.1730      2.0198     -1.7919
    17         H         -2.5098     -2.0008      0.9005
    18         H         -2.8894     -1.2149     -0.6579
    19         H         -2.7831      1.1107      0.5028
    20         H         -2.3962      0.3165      2.0540

 General Reference for PM7:
 "Optimization of Parameters for Semiempirical Methods VI: More Modifications to the 
 NDDO Approximations and Re-optimization of Parameters", J. J. P. Stewart, J. Mol. Mod., 1:32, 19 (2013)
 https://link.springer.com/article/10.1007/s00894-012-1667-x

           Empirical Formula: C7 H11 N O  =    20 atoms



      MOLECULAR POINT GROUP   :   C1  


          UHF CALCULATION, NO. OF ALPHA ELECTRONS =   25
                           NO. OF BETA  ELECTRONS =   24
  SCF CRITERION =    0.1000E-07

 -------------------------------------------------------------------------------
 PM7 1SCF GRADIENTS EPS=37.5 DISP RELSCF=0.0001 CHARGE=1
 Title: ASE calculation



     1SCF WAS SPECIFIED, SO BFGS WAS NOT USED                 
     SCF FIELD WAS ACHIEVED                                   


                              PM7 CALCULATION
                                                       MOPAC v23.2 Linux
                                                       Fri Sep 19 22:04:36 2025




          FINAL HEAT OF FORMATION =        173.48870 KCAL/MOL =     725.87672 KJ/MOL

          TOTAL ENERGY            =     -34148.12274 KCAL/MOL = ELECTRONIC ENERGY + CORE-CORE REPULSION + SOLVATION ENERGY
          ENERGY OF ATOMS         =      34323.93363 KCAL/MOL
                              SUM =        175.81089 KCAL/MOL
          DISPERSION ENERGY       =         -2.32219 KCAL/MOL
                              SUM =        173.48870 KCAL/MOL = FINAL HEAT OF FORMATION

          VAN DER WAALS AREA      =        176.01 SQUARE ANGSTROMS


          TOTAL ENERGY            =      -1480.80275 EV
          ELECTRONIC ENERGY       =      -2287.41936 EV 
          CORE-CORE REPULSION     =        806.61660 EV

          DIELECTRIC ENERGY       =         -2.18455 EV
          COSMO AREA              =        176.01 SQUARE ANGSTROMS
          COSMO VOLUME            =        176.56 CUBIC ANGSTROMS

          GRADIENT NORM           =         15.44507          =       3.45362 PER ATOM
          IONIZATION POTENTIAL    =         10.344862 EV
          ALPHA SOMO LUMO (EV)    =        -10.349 -1.142
          BETA  SOMO LUMO (EV)    =        -10.345 -1.770
          NO. OF ALPHA ELECTRONS  =         25
          NO. OF BETA  ELECTRONS  =         24
          MOLECULAR WEIGHT        =        125.1700         POINT GROUP:  C1  

          MOLECULAR DIMENSIONS (Angstroms)

            Atom       Atom       Distance
            H    19    H    11     6.40464
            H    16    H    17     5.53186
            H    12    H    13     4.32086


          SCF CALCULATIONS        =          2

          WALL-CLOCK TIME         =      0.703 SECONDS
          COMPUTATION TIME        =      0.859 SECONDS

          LARGEST ATOMIC GRADIENTS

          Atom     Label                     Cartesian Gradients           Cartesian Coordinates       |Gradient|
                                           X          Y          Z        X          Y          Z

             3       C                   3.641     -4.115      7.617   -0.06467   -0.93755    1.40388      9.392
             7       C                  -3.736      3.398     -6.498   -1.04039   -0.35854    0.36873      8.230
             6       C                   1.500      2.456     -2.952   -0.28911    1.54781   -0.92395      4.123
             5       N                  -2.519     -2.002      2.490   -0.47403    0.21606   -0.84618      4.069
             4       C                   0.785      1.503     -2.570   -0.08275   -0.61785   -1.82792      3.079
             9       C                   0.360      1.015     -2.583   -2.31058    0.24200    0.96217      2.799
             8       C                   0.363      1.232     -2.220   -2.37571   -1.09478    0.29642      2.565
             1       C                   2.375     -0.289     -0.103    2.19611   -1.38054    1.76726      2.395
            20       H                  -0.704     -0.543      1.672   -2.39622    0.31654    2.05399      1.894
            17       H                  -0.630     -0.580      1.522   -2.50979   -2.00084    0.90049      1.746



       FINAL  POINT  AND  DERIVATIVES

   PARAMETER     ATOM    TYPE            VALUE        GRADIENT
      1          1  C    CARTESIAN X     2.196112      2.375218  KCAL/ANGSTROM
      2          1  C    CARTESIAN Y    -1.380538     -0.288904  KCAL/ANGSTROM
      3          1  C    CARTESIAN Z     1.767263     -0.103020  KCAL/ANGSTROM
      4          2  O    CARTESIAN X     1.137764      0.112051  KCAL/ANGSTROM
      5          2  O    CARTESIAN Y    -0.882962      0.098488  KCAL/ANGSTROM
      6          2  O    CARTESIAN Z     0.923775     -1.325766  KCAL/ANGSTROM
      7          3  C    CARTESIAN X    -0.064672      3.641125  KCAL/ANGSTROM
      8          3  C    CARTESIAN Y    -0.937548     -4.115414  KCAL/ANGSTROM
      9          3  C    CARTESIAN Z     1.403875      7.617068  KCAL/ANGSTROM
     10          4  C    CARTESIAN X    -0.082748      0.785049  KCAL/ANGSTROM
     11          4  C    CARTESIAN Y    -0.617850      1.502913  KCAL/ANGSTROM
     12          4  C    CARTESIAN Z    -1.827917     -2.570212  KCAL/ANGSTROM
     13          5  N    CARTESIAN X    -0.474029     -2.519166  KCAL/ANGSTROM
     14          5  N    CARTESIAN Y     0.216057     -2.002239  KCAL/ANGSTROM
     15          5  N    CARTESIAN Z    -0.846176      2.490232  KCAL/ANGSTROM
     16          6  C    CARTESIAN X    -0.289115      1.499792  KCAL/ANGSTROM
     17          6  C    CARTESIAN Y     1.547809      2.455948  KCAL/ANGSTROM
     18          6  C    CARTESIAN Z    -0.923947     -2.952428  KCAL/ANGSTROM
     19          7  C    CARTESIAN X    -1.040392     -3.735745  KCAL/ANGSTROM
     20          7  C    CARTESIAN Y    -0.358537      3.398159  KCAL/ANGSTROM
     21          7  C    CARTESIAN Z     0.368727     -6.498354  KCAL/ANGSTROM
     22          8  C    CARTESIAN X    -2.375713      0.363079  KCAL/ANGSTROM
     23          8  C    CARTESIAN Y    -1.094776      1.232199  KCAL/ANGSTROM
     24          8  C    CARTESIAN Z     0.296419     -2.220098  KCAL/ANGSTROM
     25          9  C    CARTESIAN X    -2.310580      0.360384  KCAL/ANGSTROM
     26          9  C    CARTESIAN Y     0.242005      1.015464  KCAL/ANGSTROM
     27          9  C    CARTESIAN Z     0.962171     -2.582768  KCAL/ANGSTROM
     28         10  H    CARTESIAN X     2.889387      0.045558  KCAL/ANGSTROM
     29         10  H    CARTESIAN Y    -0.536772      0.327175  KCAL/ANGSTROM
     30         10  H    CARTESIAN Z     1.876329     -0.125816  KCAL/ANGSTROM
     31         11  H    CARTESIAN X     2.649562      0.251192  KCAL/ANGSTROM
     32         11  H    CARTESIAN Y    -2.207465     -0.235038  KCAL/ANGSTROM
     33         11  H    CARTESIAN Z     1.206106     -0.053825  KCAL/ANGSTROM
     34         12  H    CARTESIAN X     1.815872     -0.929410  KCAL/ANGSTROM
     35         12  H    CARTESIAN Y    -1.717316     -0.248518  KCAL/ANGSTROM
     36         12  H    CARTESIAN Z     2.740337      0.864597  KCAL/ANGSTROM
     37         13  H    CARTESIAN X     0.394439      0.456565  KCAL/ANGSTROM
     38         13  H    CARTESIAN Y    -0.258122     -1.141312  KCAL/ANGSTROM
     39         13  H    CARTESIAN Z    -2.740337      0.071445  KCAL/ANGSTROM
     40         14  H    CARTESIAN X    -0.224355      0.178237  KCAL/ANGSTROM
     41         14  H    CARTESIAN Y    -1.696221     -0.600414  KCAL/ANGSTROM
     42         14  H    CARTESIAN Z    -1.737750      0.629990  KCAL/ANGSTROM
     43         15  H    CARTESIAN X    -0.593570     -0.076046  KCAL/ANGSTROM
     44         15  H    CARTESIAN Y     2.207465     -0.063998  KCAL/ANGSTROM
     45         15  H    CARTESIAN Z    -0.109977      0.343237  KCAL/ANGSTROM
     46         16  H    CARTESIAN X     0.173014      0.064884  KCAL/ANGSTROM
     47         16  H    CARTESIAN Y     2.019806      0.990614  KCAL/ANGSTROM
     48         16  H    CARTESIAN Z    -1.791911      0.894051  KCAL/ANGSTROM
     49         17  H    CARTESIAN X    -2.509789     -0.630286  KCAL/ANGSTROM
     50         17  H    CARTESIAN Y    -2.000842     -0.580396  KCAL/ANGSTROM
     51         17  H    CARTESIAN Z     0.900492      1.521537  KCAL/ANGSTROM
     52         18  H    CARTESIAN X    -2.889387     -0.723448  KCAL/ANGSTROM
     53         18  H    CARTESIAN Y    -1.214935     -0.289394  KCAL/ANGSTROM
     54         18  H    CARTESIAN Z    -0.657904      1.330854  KCAL/ANGSTROM
     55         19  H    CARTESIAN X    -2.783146     -0.814842  KCAL/ANGSTROM
     56         19  H    CARTESIAN Y     1.110741     -0.912646  KCAL/ANGSTROM
     57         19  H    CARTESIAN Z     0.502784      0.996979  KCAL/ANGSTROM
     58         20  H    CARTESIAN X    -2.396223     -0.704189  KCAL/ANGSTROM
     59         20  H    CARTESIAN Y     0.316540     -0.542691  KCAL/ANGSTROM
     60         20  H    CARTESIAN Z     2.053993      1.672295  KCAL/ANGSTROM




   ATOM   CHEMICAL          X               Y               Z
  NUMBER   SYMBOL      (ANGSTROMS)     (ANGSTROMS)     (ANGSTROMS)

     1       C          2.19611191  *  -1.38053807  *   1.76726302  *
     2       O          1.13776431  *  -0.88296180  *   0.92377472  *
     3       C         -0.06467150  *  -0.93754847  *   1.40387513  *
     4       C         -0.08274791  *  -0.61784964  *  -1.82791665  *
     5       N         -0.47402878  *   0.21605703  *  -0.84617567  *
     6       C         -0.28911480  *   1.54780918  *  -0.92394728  *
     7       C         -1.04039157  *  -0.35853701  *   0.36872731  *
     8       C         -2.37571256  *  -1.09477565  *   0.29641906  *
     9       C         -2.31058004  *   0.24200453  *   0.96217106  *
    10       H          2.88938675  *  -0.53677211  *   1.87632948  *
    11       H          2.64956193  *  -2.20746495  *   1.20610592  *
    12       H          1.81587191  *  -1.71731614  *   2.74033743  *
    13       H          0.39443851  *  -0.25812179  *  -2.74033743  *
    14       H         -0.22435535  *  -1.69622081  *  -1.73774952  *
    15       H         -0.59357032  *   2.20746495  *  -0.10997702  *
    16       H          0.17301443  *   2.01980582  *  -1.79191149  *
    17       H         -2.50978934  *  -2.00084173  *   0.90049242  *
    18       H         -2.88938675  *  -1.21493526  *  -0.65790355  *
    19       H         -2.78314571  *   1.11074136  *   0.50278415  *
    20       H         -2.39622333  *   0.31653978  *   2.05399279  *

                             CARTESIAN COORDINATES

   1    C        2.196111907    -1.380538069     1.767263017
   2    O        1.137764313    -0.882961798     0.923774718
   3    C       -0.064671502    -0.937548474     1.403875125
   4    C       -0.082747911    -0.617849640    -1.827916650
   5    N       -0.474028779     0.216057025    -0.846175666
   6    C       -0.289114797     1.547809184    -0.923947283
   7    C       -1.040391565    -0.358537015     0.368727313
   8    C       -2.375712562    -1.094775649     0.296419061
   9    C       -2.310580041     0.242004531     0.962171062
  10    H        2.889386746    -0.536772107     1.876329480
  11    H        2.649561931    -2.207464945     1.206105920
  12    H        1.815871907    -1.717316145     2.740337431
  13    H        0.394438515    -0.258121790    -2.740337431
  14    H       -0.224355353    -1.696220805    -1.737749520
  15    H       -0.593570319     2.207464945    -0.109977024
  16    H        0.173014427     2.019805822    -1.791911489
  17    H       -2.509789342    -2.000841728     0.900492422
  18    H       -2.889386746    -1.214935257    -0.657903554
  19    H       -2.783145715     1.110741357     0.502784154
  20    H       -2.396223327     0.316539777     2.053992794


           Empirical Formula: C7 H11 N O  =    20 atoms



      MOLECULAR POINT GROUP   :   C1  


          ALPHA EIGENVALUES  
 -38.78813 -31.54597 -30.98445 -26.37259 -25.79541 -23.99597 -22.35852 -21.52953
 -20.15769 -18.53963 -18.07103 -17.39192 -16.35742 -16.32506 -15.36627 -14.99590
 -14.71227 -14.51869 -13.48339 -13.24070 -12.95482 -12.50707 -12.19062 -10.39604
 -10.34914  -1.14201   0.29483   0.51810   1.39816   1.54547   2.77732   3.06432
   3.39384   3.59927   3.80818   4.61888   4.67468   4.73340   4.82719   4.88562
   5.00455   5.26692   5.33725   5.41091   5.67322   5.74042   5.80689


           BETA EIGENVALUES 
 -39.26842 -31.54580 -31.00036 -26.18771 -25.78178 -23.96864 -22.34549 -21.51509
 -20.09157 -18.53497 -17.97172 -17.42900 -16.34694 -16.32279 -15.32215 -14.89269
 -14.52717 -14.44360 -13.48896 -13.23278 -12.94758 -12.46519 -12.18076 -10.34486
  -1.76996   0.12132   0.28998   0.43407   1.40108   1.55433   2.75050   3.02964
   3.41196   3.58834   3.85972   4.62061   4.81644   4.85257   4.89340   4.97909
   5.04923   5.26683   5.33683   5.41007   5.67340   5.73935   5.80629


              NET ATOMIC CHARGES AND DIPOLE CONTRIBUTIONS

  ATOM NO.   TYPE          CHARGE      No. of ELECS.   s-Pop       p-Pop       
    1          C          -0.144170        4.1442     1.10041     3.04376
    2          O          -0.419785        6.4198     1.83082     4.58896
    3          C           0.334646        3.6654     1.67316     1.99219
    4          C          -0.088261        4.0883     1.14574     2.94252
    5          N           0.036224        4.9638     1.48407     3.47971
    6          C          -0.088658        4.0887     1.14591     2.94275
    7          C          -0.210959        4.2110     1.09959     3.11137
    8          C          -0.266781        4.2668     1.06461     3.20217
    9          C          -0.267828        4.2678     1.06398     3.20385
   10          H           0.162226        0.8378     0.83777
   11          H           0.162947        0.8371     0.83705
   12          H           0.158727        0.8413     0.84127
   13          H           0.219793        0.7802     0.78021
   14          H           0.211605        0.7884     0.78840
   15          H           0.213234        0.7868     0.78677
   16          H           0.219664        0.7803     0.78034
   17          H           0.193610        0.8064     0.80639
   18          H           0.190514        0.8095     0.80949
   19          H           0.189515        0.8105     0.81048
   20          H           0.193736        0.8063     0.80626
 DIPOLE           X         Y         Z       TOTAL
 POINT-CHG.     0.478     1.376    -2.505     2.898
 HYBRID         0.333     0.895    -2.089     2.297
 SUM            0.812     2.271    -4.594     5.189


          ATOMIC ORBITAL ELECTRON POPULATIONS

     Atom    s        px        py        pz   
    1  C   1.10041   0.88756   1.12114   1.03506
    2  O   1.83082   1.34328   1.68577   1.55992
    3  C   1.67316   0.66633   0.42592   0.89994
    4  C   1.14574   0.91781   1.06626   0.95845
    5  N   1.48407   1.23078   1.11227   1.13666
    6  C   1.14591   0.93937   0.85837   1.14501
    7  C   1.09959   1.01874   1.15950   0.93313
    8  C   1.06461   0.97236   1.05535   1.17446
    9  C   1.06398   0.98343   1.06266   1.15775
   10  H   0.83777
   11  H   0.83705
   12  H   0.84127
   13  H   0.78021
   14  H   0.78840
   15  H   0.78677
   16  H   0.78034
   17  H   0.80639
   18  H   0.80949
   19  H   0.81048
   20  H   0.80626


                    (SZ)    =    0.500000
                    (S**2)  =    0.837123


          ATOMIC ORBITAL SPIN POPULATIONS

    Atom   Total    s     px     py     pz   
         Atomic
    1  C -0.0006 -0.000 -0.000 -0.000 -0.000
    2  O  0.0008  0.000  0.000  0.000  0.000
    3  C -0.0142  0.002 -0.001 -0.004 -0.011
    4  C  0.7037  0.018  0.519  0.028  0.139
    5  N -0.3272 -0.018 -0.214 -0.030 -0.066
    6  C  0.7050  0.018  0.523  0.032  0.131
    7  C  0.0224  0.002  0.005  0.005  0.010
    8  C -0.0089 -0.001 -0.007 -0.000 -0.001
    9  C -0.0030 -0.000 -0.003  0.000 -0.000
   10  H  0.0000  0.000
   11  H  0.0000  0.000
   12  H  0.0000  0.000
   13  H -0.0196 -0.020
   14  H -0.0201 -0.020
   15  H -0.0201 -0.020
   16  H -0.0197 -0.020
   17  H  0.0004  0.000
   18  H  0.0004  0.000
   19  H  0.0002  0.000
   20  H  0.0003  0.000

 **********************
 *                    *
 * JOB ENDED NORMALLY *
 *                    *
 **********************



 TOTAL JOB TIME:             0.95 SECONDS

 == MOPAC DONE ==
