 *******************************************************************************
 **                                                                           **
 **                              MOPAC v23.2                                  **
 **                                                                           **
 *******************************************************************************
 **          Digital Object Identifier (DOI): 10.5281/zenodo.6511958          **
 **    Visit the DOI location for information on how to cite this program.    **
 *******************************************************************************

                              PM7 CALCULATION RESULTS

 *******************************************************************************
 *  CALCULATION DONE: (MAX THREADS = 40)             Fri Sep 19 21:28:27 2025  *
 *  PM7        - The PM7 Hamiltonian to be used
 *
 *
 *
 *                 CHARGE ON SYSTEM = +1
 *
 *
 *
 *  1SCF       - DO 1 SCF AND THEN STOP 
 *  T=         - A TIME OF 172800.0 SECONDS REQUESTED
 *  DUMP=N     - RESTART FILE WRITTEN EVERY 7200.0 SECONDS REQUESTED
 *  RELSCF     - DEFAULT SCF CRITERION MULTIPLIED BY 0.0001
 *              (DEFAULT SCF CRITERION = 0.00010)
 *  GRADIENTS  - ALL GRADIENTS TO BE PRINTED
 *  DISP       - PRINT DISPERSION AND HYDROGEN BOND ENERGIES
 *******************************************************************************
PM7 1SCF GRADIENTS DISP RELSCF=0.0001 CHARGE=1
 Title: ASE calculation

   ATOM   CHEMICAL          X               Y               Z
  NUMBER   SYMBOL      (ANGSTROMS)     (ANGSTROMS)     (ANGSTROMS)

     1       C         -1.19365664  *   1.72601877  *  -0.44561331  *
     2       N         -0.52381551  *   0.44750639  *  -0.25411952  *
     3       C          0.78016996  *   0.22341825  *  -0.59924115  *
     4       C          1.13371377  *  -1.20346401  *  -0.32219309  *
     5       C          2.52610946  *  -1.61336992  *  -0.06009862  *
     6       O          0.29469390  *  -2.07942706  *  -1.08370566  *
     7       C         -0.16125764  *  -1.79950145  *   0.24105092  *
     8       C         -1.14624715  *  -0.67470957  *   0.24101607  *
     9       C         -2.52729722  *  -0.73665747  *   0.68605380  *
    10       H         -1.78936375  *   2.00946264  *   0.44881297  *
    11       H         -0.47420068  *   2.55090878  *  -0.63239866  *
    12       H         -1.88781314  *   1.68775543  *  -1.31618270  *
    13       H          1.44790182  *   0.97567105  *  -0.99877290  *
    14       H          3.16224680  *  -1.51548575  *  -0.96193375  *
    15       H          3.00519127  *  -1.02532055  *   0.74043689  *
    16       H          2.60060616  *  -2.67713463  *   0.24003399  *
    17       H         -0.26027822  *  -2.63957640  *   0.92458076  *
    18       H         -2.81969039  *   0.07745540  *   1.37980064  *
    19       H         -2.76599441  *  -1.68657196  *   1.21260587  *
    20       H         -3.24963672  *  -0.68689400  *  -0.16184584  *



          CARTESIAN COORDINATES 

    NO.       ATOM           X           Y           Z

     1         C         -1.1937      1.7260     -0.4456
     2         N         -0.5238      0.4475     -0.2541
     3         C          0.7802      0.2234     -0.5992
     4         C          1.1337     -1.2035     -0.3222
     5         C          2.5261     -1.6134     -0.0601
     6         O          0.2947     -2.0794     -1.0837
     7         C         -0.1613     -1.7995      0.2411
     8         C         -1.1462     -0.6747      0.2410
     9         C         -2.5273     -0.7367      0.6861
    10         H         -1.7894      2.0095      0.4488
    11         H         -0.4742      2.5509     -0.6324
    12         H         -1.8878      1.6878     -1.3162
    13         H          1.4479      0.9757     -0.9988
    14         H          3.1622     -1.5155     -0.9619
    15         H          3.0052     -1.0253      0.7404
    16         H          2.6006     -2.6771      0.2400
    17         H         -0.2603     -2.6396      0.9246
    18         H         -2.8197      0.0775      1.3798
    19         H         -2.7660     -1.6866      1.2126
    20         H         -3.2496     -0.6869     -0.1618

 General Reference for PM7:
 "Optimization of Parameters for Semiempirical Methods VI: More Modifications to the 
 NDDO Approximations and Re-optimization of Parameters", J. J. P. Stewart, J. Mol. Mod., 1:32, 19 (2013)
 https://link.springer.com/article/10.1007/s00894-012-1667-x

           Empirical Formula: C7 H11 N O  =    20 atoms



      MOLECULAR POINT GROUP   :   C1  


          UHF CALCULATION, NO. OF ALPHA ELECTRONS =   25
                           NO. OF BETA  ELECTRONS =   24
  SCF CRITERION =    0.1000E-07

 -------------------------------------------------------------------------------
 PM7 1SCF GRADIENTS DISP RELSCF=0.0001 CHARGE=1
 Title: ASE calculation



     1SCF WAS SPECIFIED, SO BFGS WAS NOT USED                 
     SCF FIELD WAS ACHIEVED                                   


                              PM7 CALCULATION
                                                       MOPAC v23.2 Linux
                                                       Fri Sep 19 21:28:28 2025




          FINAL HEAT OF FORMATION =        172.30757 KCAL/MOL =     720.93487 KJ/MOL

          TOTAL ENERGY            =     -34149.60678 KCAL/MOL = ELECTRONIC ENERGY + CORE-CORE REPULSION
          ENERGY OF ATOMS         =      34323.93363 KCAL/MOL
                              SUM =        174.32686 KCAL/MOL
          DISPERSION ENERGY       =         -2.01929 KCAL/MOL
                              SUM =        172.30757 KCAL/MOL = FINAL HEAT OF FORMATION



          TOTAL ENERGY            =      -1480.86711 EV
          ELECTRONIC ENERGY       =      -7477.22935 EV 
          CORE-CORE REPULSION     =       5996.36224 EV
          COSMO AREA              =        167.72 SQUARE ANGSTROMS
          COSMO VOLUME            =        165.11 CUBIC ANGSTROMS

          GRADIENT NORM           =          0.84856          =       0.18974 PER ATOM
          IONIZATION POTENTIAL    =         14.192612 EV
          ALPHA SOMO LUMO (EV)    =        -14.193 -5.486
          BETA  SOMO LUMO (EV)    =        -15.053 -6.182
          NO. OF ALPHA ELECTRONS  =         25
          NO. OF BETA  ELECTRONS  =         24
          MOLECULAR WEIGHT        =        125.1700         POINT GROUP:  C1  

          MOLECULAR DIMENSIONS (Angstroms)

            Atom       Atom       Distance
            H    18    H    14     6.61852
            H    17    H    11     5.34939
            H    20    H    15     3.27425


          SCF CALCULATIONS        =          1

          WALL-CLOCK TIME         =      0.781 SECONDS
          COMPUTATION TIME        =      0.642 SECONDS

          LARGEST ATOMIC GRADIENTS

          Atom     Label                     Cartesian Gradients           Cartesian Coordinates       |Gradient|
                                           X          Y          Z        X          Y          Z

            11       H                  -0.235      0.159      0.216   -0.47420    2.55091   -0.63240      0.357
            20       H                  -0.103      0.211     -0.222   -3.24964   -0.68689   -0.16185      0.323
            10       H                   0.069     -0.239     -0.002   -1.78936    2.00946    0.44881      0.249
            15       H                  -0.042      0.034     -0.241    3.00519   -1.02532    0.74044      0.247
            18       H                   0.014      0.229     -0.034   -2.81969    0.07746    1.37980      0.232
            16       H                  -0.021     -0.079      0.180    2.60061   -2.67713    0.24003      0.198
            17       H                  -0.056     -0.093      0.161   -0.26028   -2.63958    0.92458      0.194
            12       H                  -0.167      0.035     -0.082   -1.88781    1.68776   -1.31618      0.189
            19       H                   0.090     -0.116      0.097   -2.76599   -1.68657    1.21261      0.176
             6       O                   0.087     -0.134     -0.070    0.29469   -2.07943   -1.08371      0.174



       FINAL  POINT  AND  DERIVATIVES

   PARAMETER     ATOM    TYPE            VALUE        GRADIENT
      1          1  C    CARTESIAN X    -1.193657     -0.032589  KCAL/ANGSTROM
      2          1  C    CARTESIAN Y     1.726019     -0.036852  KCAL/ANGSTROM
      3          1  C    CARTESIAN Z    -0.445613     -0.072099  KCAL/ANGSTROM
      4          2  N    CARTESIAN X    -0.523816      0.096647  KCAL/ANGSTROM
      5          2  N    CARTESIAN Y     0.447506      0.018947  KCAL/ANGSTROM
      6          2  N    CARTESIAN Z    -0.254120      0.016872  KCAL/ANGSTROM
      7          3  C    CARTESIAN X     0.780170      0.117829  KCAL/ANGSTROM
      8          3  C    CARTESIAN Y     0.223418     -0.034550  KCAL/ANGSTROM
      9          3  C    CARTESIAN Z    -0.599241     -0.007563  KCAL/ANGSTROM
     10          4  C    CARTESIAN X     1.133714      0.071292  KCAL/ANGSTROM
     11          4  C    CARTESIAN Y    -1.203464     -0.001268  KCAL/ANGSTROM
     12          4  C    CARTESIAN Z    -0.322193      0.114175  KCAL/ANGSTROM
     13          5  C    CARTESIAN X     2.526109      0.026634  KCAL/ANGSTROM
     14          5  C    CARTESIAN Y    -1.613370     -0.103114  KCAL/ANGSTROM
     15          5  C    CARTESIAN Z    -0.060099     -0.066115  KCAL/ANGSTROM
     16          6  O    CARTESIAN X     0.294694      0.086891  KCAL/ANGSTROM
     17          6  O    CARTESIAN Y    -2.079427     -0.133852  KCAL/ANGSTROM
     18          6  O    CARTESIAN Z    -1.083706     -0.069683  KCAL/ANGSTROM
     19          7  C    CARTESIAN X    -0.161258      0.043313  KCAL/ANGSTROM
     20          7  C    CARTESIAN Y    -1.799501     -0.063709  KCAL/ANGSTROM
     21          7  C    CARTESIAN Z     0.241051      0.089716  KCAL/ANGSTROM
     22          8  C    CARTESIAN X    -1.146247      0.076065  KCAL/ANGSTROM
     23          8  C    CARTESIAN Y    -0.674710      0.069427  KCAL/ANGSTROM
     24          8  C    CARTESIAN Z     0.241016      0.012858  KCAL/ANGSTROM
     25          9  C    CARTESIAN X    -2.527297     -0.047886  KCAL/ANGSTROM
     26          9  C    CARTESIAN Y    -0.736657      0.056642  KCAL/ANGSTROM
     27          9  C    CARTESIAN Z     0.686054     -0.056460  KCAL/ANGSTROM
     28         10  H    CARTESIAN X    -1.789364      0.068780  KCAL/ANGSTROM
     29         10  H    CARTESIAN Y     2.009463     -0.238788  KCAL/ANGSTROM
     30         10  H    CARTESIAN Z     0.448813     -0.002121  KCAL/ANGSTROM
     31         11  H    CARTESIAN X    -0.474201     -0.235374  KCAL/ANGSTROM
     32         11  H    CARTESIAN Y     2.550909      0.158878  KCAL/ANGSTROM
     33         11  H    CARTESIAN Z    -0.632399      0.215631  KCAL/ANGSTROM
     34         12  H    CARTESIAN X    -1.887813     -0.166740  KCAL/ANGSTROM
     35         12  H    CARTESIAN Y     1.687755      0.034605  KCAL/ANGSTROM
     36         12  H    CARTESIAN Z    -1.316183     -0.082256  KCAL/ANGSTROM
     37         13  H    CARTESIAN X     1.447902     -0.065927  KCAL/ANGSTROM
     38         13  H    CARTESIAN Y     0.975671      0.045562  KCAL/ANGSTROM
     39         13  H    CARTESIAN Z    -0.998773      0.090878  KCAL/ANGSTROM
     40         14  H    CARTESIAN X     3.162247      0.079018  KCAL/ANGSTROM
     41         14  H    CARTESIAN Y    -1.515486      0.041819  KCAL/ANGSTROM
     42         14  H    CARTESIAN Z    -0.961934     -0.124268  KCAL/ANGSTROM
     43         15  H    CARTESIAN X     3.005191     -0.041859  KCAL/ANGSTROM
     44         15  H    CARTESIAN Y    -1.025321      0.034093  KCAL/ANGSTROM
     45         15  H    CARTESIAN Z     0.740437     -0.241277  KCAL/ANGSTROM
     46         16  H    CARTESIAN X     2.600606     -0.020912  KCAL/ANGSTROM
     47         16  H    CARTESIAN Y    -2.677135     -0.079044  KCAL/ANGSTROM
     48         16  H    CARTESIAN Z     0.240034      0.179802  KCAL/ANGSTROM
     49         17  H    CARTESIAN X    -0.260278     -0.055979  KCAL/ANGSTROM
     50         17  H    CARTESIAN Y    -2.639576     -0.093104  KCAL/ANGSTROM
     51         17  H    CARTESIAN Z     0.924581      0.160787  KCAL/ANGSTROM
     52         18  H    CARTESIAN X    -2.819690      0.013828  KCAL/ANGSTROM
     53         18  H    CARTESIAN Y     0.077455      0.228959  KCAL/ANGSTROM
     54         18  H    CARTESIAN Z     1.379801     -0.033821  KCAL/ANGSTROM
     55         19  H    CARTESIAN X    -2.765994      0.090374  KCAL/ANGSTROM
     56         19  H    CARTESIAN Y    -1.686572     -0.115734  KCAL/ANGSTROM
     57         19  H    CARTESIAN Z     1.212606      0.096780  KCAL/ANGSTROM
     58         20  H    CARTESIAN X    -3.249637     -0.103404  KCAL/ANGSTROM
     59         20  H    CARTESIAN Y    -0.686894      0.211078  KCAL/ANGSTROM
     60         20  H    CARTESIAN Z    -0.161846     -0.221841  KCAL/ANGSTROM




   ATOM   CHEMICAL          X               Y               Z
  NUMBER   SYMBOL      (ANGSTROMS)     (ANGSTROMS)     (ANGSTROMS)

     1       C         -1.19365664  *   1.72601877  *  -0.44561331  *
     2       N         -0.52381551  *   0.44750639  *  -0.25411952  *
     3       C          0.78016996  *   0.22341825  *  -0.59924115  *
     4       C          1.13371377  *  -1.20346401  *  -0.32219309  *
     5       C          2.52610946  *  -1.61336992  *  -0.06009862  *
     6       O          0.29469390  *  -2.07942706  *  -1.08370566  *
     7       C         -0.16125764  *  -1.79950145  *   0.24105092  *
     8       C         -1.14624715  *  -0.67470957  *   0.24101607  *
     9       C         -2.52729722  *  -0.73665747  *   0.68605380  *
    10       H         -1.78936375  *   2.00946264  *   0.44881297  *
    11       H         -0.47420068  *   2.55090878  *  -0.63239866  *
    12       H         -1.88781314  *   1.68775543  *  -1.31618270  *
    13       H          1.44790182  *   0.97567105  *  -0.99877290  *
    14       H          3.16224680  *  -1.51548575  *  -0.96193375  *
    15       H          3.00519127  *  -1.02532055  *   0.74043689  *
    16       H          2.60060616  *  -2.67713463  *   0.24003399  *
    17       H         -0.26027822  *  -2.63957640  *   0.92458076  *
    18       H         -2.81969039  *   0.07745540  *   1.37980064  *
    19       H         -2.76599441  *  -1.68657196  *   1.21260587  *
    20       H         -3.24963672  *  -0.68689400  *  -0.16184584  *

                             CARTESIAN COORDINATES

   1    C       -1.193656637     1.726018767    -0.445613305
   2    N       -0.523815506     0.447506392    -0.254119521
   3    C        0.780169960     0.223418249    -0.599241154
   4    C        1.133713767    -1.203464012    -0.322193092
   5    C        2.526109462    -1.613369921    -0.060098621
   6    O        0.294693898    -2.079427062    -1.083705662
   7    C       -0.161257645    -1.799501450     0.241050918
   8    C       -1.146247148    -0.674709566     0.241016071
   9    C       -2.527297219    -0.736657467     0.686053803
  10    H       -1.789363745     2.009462640     0.448812974
  11    H       -0.474200680     2.550908775    -0.632398665
  12    H       -1.887813138     1.687755432    -1.316182703
  13    H        1.447901822     0.975671050    -0.998772896
  14    H        3.162246796    -1.515485746    -0.961933752
  15    H        3.005191265    -1.025320554     0.740436888
  16    H        2.600606158    -2.677134630     0.240033986
  17    H       -0.260278220    -2.639576397     0.924580762
  18    H       -2.819690391     0.077455401     1.379800640
  19    H       -2.765994406    -1.686571959     1.212605875
  20    H       -3.249636716    -0.686893997    -0.161845842


           Empirical Formula: C7 H11 N O  =    20 atoms



      MOLECULAR POINT GROUP   :   C1  


          ALPHA EIGENVALUES  
 -43.25676 -36.93629 -32.46322 -31.81303 -30.44036 -28.15363 -27.87651 -25.35471
 -24.03288 -22.44490 -21.61970 -21.02170 -20.20944 -20.05911 -19.52226 -18.98665
 -18.82616 -18.46449 -18.19140 -17.82392 -17.39267 -17.10037 -15.63885 -15.11936
 -14.19261  -5.48641  -3.78138  -2.85043  -2.30541  -2.11565  -1.78863  -1.35225
  -1.00345  -0.89168  -0.39052  -0.20307   0.24807   0.33841   0.48959   0.69784
   0.82257   1.07757   1.11516   1.70512   1.71087   1.97180   2.86554


           BETA EIGENVALUES 
 -43.65882 -36.82656 -32.34120 -31.68279 -30.44030 -28.02200 -27.84279 -25.34128
 -23.93350 -22.40259 -21.54533 -20.88954 -20.20432 -20.00293 -19.35786 -18.83313
 -18.73503 -18.42333 -18.08938 -17.78789 -17.21570 -17.05022 -15.75877 -15.05340
  -6.18223  -4.45294  -3.85180  -2.71469  -2.12003  -2.00635  -1.62145  -1.20719
  -0.92567  -0.83257  -0.34988  -0.18919   0.22164   0.33084   0.59539   0.77001
   0.84990   1.08623   1.10367   1.70605   1.71056   1.99358   2.86531


              NET ATOMIC CHARGES AND DIPOLE CONTRIBUTIONS

  ATOM NO.   TYPE          CHARGE      No. of ELECS.   s-Pop       p-Pop       
    1          C          -0.303321        4.3033     1.07127     3.23205
    2          N          -0.064550        5.0645     1.51118     3.55337
    3          C          -0.006649        4.0066     1.14303     2.86362
    4          C           0.147630        3.8524     1.07552     2.77685
    5          C          -0.459783        4.4598     1.04869     3.41109
    6          O          -0.220845        6.2208     1.92847     4.29237
    7          C          -0.077252        4.0773     1.10259     2.97466
    8          C           0.192530        3.8075     1.11466     2.69281
    9          C          -0.482462        4.4825     1.04855     3.43391
   10          H           0.198586        0.8014     0.80141
   11          H           0.200077        0.7999     0.79992
   12          H           0.205338        0.7947     0.79466
   13          H           0.219698        0.7803     0.78030
   14          H           0.200205        0.7998     0.79980
   15          H           0.187510        0.8125     0.81249
   16          H           0.202092        0.7979     0.79791
   17          H           0.219152        0.7808     0.78085
   18          H           0.205232        0.7948     0.79477
   19          H           0.217024        0.7830     0.78298
   20          H           0.219789        0.7802     0.78021
 DIPOLE           X         Y         Z       TOTAL
 POINT-CHG.    -1.457     3.932     2.102     4.691
 HYBRID        -0.405     0.132    -0.615     0.748
 SUM           -1.863     4.065     1.487     4.712


          ATOMIC ORBITAL ELECTRON POPULATIONS

     Atom    s        px        py        pz   
    1  C   1.07127   1.13669   0.88562   1.20974
    2  N   1.51118   1.13513   1.13607   1.28217
    3  C   1.14303   0.85661   1.06244   0.94456
    4  C   1.07552   0.94381   0.85954   0.97351
    5  C   1.04869   0.99059   1.20942   1.21108
    6  O   1.92847   1.45639   1.64210   1.19388
    7  C   1.10259   0.96141   1.05293   0.96032
    8  C   1.11466   0.97151   0.85403   0.86727
    9  C   1.04855   0.99774   1.24057   1.19561
   10  H   0.80141
   11  H   0.79992
   12  H   0.79466
   13  H   0.78030
   14  H   0.79980
   15  H   0.81249
   16  H   0.79791
   17  H   0.78085
   18  H   0.79477
   19  H   0.78298
   20  H   0.78021


                    (SZ)    =    0.500000
                    (S**2)  =    0.831056


          ATOMIC ORBITAL SPIN POPULATIONS

    Atom   Total    s     px     py     pz   
         Atomic
    1  C  0.0158  0.002  0.004  0.010  0.000
    2  N -0.3049 -0.017 -0.043 -0.036 -0.210
    3  C  0.6993  0.019  0.076  0.061  0.543
    4  C -0.0382 -0.004  0.000 -0.019 -0.015
    5  C  0.0050  0.001  0.003  0.001  0.000
    6  O  0.0733  0.001  0.039  0.016  0.017
    7  C -0.0287 -0.003 -0.003 -0.007 -0.015
    8  C  0.5862  0.017  0.061  0.054  0.455
    9  C -0.0159 -0.003 -0.016 -0.002  0.005
   10  H -0.0063 -0.006
   11  H -0.0016 -0.002
   12  H -0.0106 -0.011
   13  H -0.0187 -0.019
   14  H  0.0001  0.000
   15  H -0.0008 -0.001
   16  H -0.0007 -0.001
   17  H  0.0035  0.004
   18  H  0.0161  0.016
   19  H  0.0020  0.002
   20  H  0.0250  0.025

 **********************
 *                    *
 * JOB ENDED NORMALLY *
 *                    *
 **********************



 TOTAL JOB TIME:             1.20 SECONDS

 == MOPAC DONE ==
