 *******************************************************************************
 **                                                                           **
 **                              MOPAC v23.2                                  **
 **                                                                           **
 *******************************************************************************
 **          Digital Object Identifier (DOI): 10.5281/zenodo.6511958          **
 **    Visit the DOI location for information on how to cite this program.    **
 *******************************************************************************

                              PM7 CALCULATION RESULTS

 *******************************************************************************
 *  CALCULATION DONE: (MAX THREADS = 40)             Fri Sep 19 21:55:41 2025  *
 *  PM7        - The PM7 Hamiltonian to be used
 *  1SCF       - DO 1 SCF AND THEN STOP 
 *  T=         - A TIME OF 172800.0 SECONDS REQUESTED
 *  DUMP=N     - RESTART FILE WRITTEN EVERY 7200.0 SECONDS REQUESTED
 *  RELSCF     - DEFAULT SCF CRITERION MULTIPLIED BY 0.0001
 *              (DEFAULT SCF CRITERION = 0.00010)
 *  GRADIENTS  - ALL GRADIENTS TO BE PRINTED
 *  DISP       - PRINT DISPERSION AND HYDROGEN BOND ENERGIES
 *******************************************************************************
PM7 1SCF GRADIENTS DISP RELSCF=0.0001
 Title: ASE calculation

   ATOM   CHEMICAL          X               Y               Z
  NUMBER   SYMBOL      (ANGSTROMS)     (ANGSTROMS)     (ANGSTROMS)

     1       C          1.91128455  *   0.39972590  *   0.66029802  *
     2       C          1.60209721  *   0.42445040  *  -0.83506250  *
     3       C          0.24932354  *   1.10768575  *  -1.11773164  *
     4       C         -0.87755948  *   0.30681050  *  -0.60664240  *
     5       N         -1.36719694  *  -0.82691028  *  -1.27365218  *
     6       C         -2.39746954  *  -1.35776695  *  -0.50488549  *
     7       N         -2.60042079  *  -0.60908864  *   0.59218643  *
     8       C         -1.65902481  *   0.42320783  *   0.55331537  *
     9       N         -1.53274915  *   1.32279927  *   1.61594300  *
    10       H          2.84445611  *  -0.13272063  *   0.86880337  *
    11       H          1.10879671  *  -0.09937206  *   1.22408856  *
    12       H          2.00116332  *   1.41050890  *   1.07302953  *
    13       H          2.40542037  *   0.95806423  *  -1.37768738  *
    14       H          1.59485244  *  -0.60648455  *  -1.23501032  *
    15       H          0.24388818  *   2.11716006  *  -0.65211962  *
    16       H          0.14315041  *   1.29080995  *  -2.20745756  *
    17       H         -0.99546798  *  -1.18638171  *  -2.12101291  *
    18       H         -2.95203986  *  -2.24045470  *  -0.77158454  *
    19       H         -2.24999992  *   1.22449317  *   2.32172472  *
    20       H         -1.39943536  *   2.28123729  *   1.34236370  *



          CARTESIAN COORDINATES 

    NO.       ATOM           X           Y           Z

     1         C          1.9113      0.3997      0.6603
     2         C          1.6021      0.4245     -0.8351
     3         C          0.2493      1.1077     -1.1177
     4         C         -0.8776      0.3068     -0.6066
     5         N         -1.3672     -0.8269     -1.2737
     6         C         -2.3975     -1.3578     -0.5049
     7         N         -2.6004     -0.6091      0.5922
     8         C         -1.6590      0.4232      0.5533
     9         N         -1.5327      1.3228      1.6159
    10         H          2.8445     -0.1327      0.8688
    11         H          1.1088     -0.0994      1.2241
    12         H          2.0012      1.4105      1.0730
    13         H          2.4054      0.9581     -1.3777
    14         H          1.5949     -0.6065     -1.2350
    15         H          0.2439      2.1172     -0.6521
    16         H          0.1432      1.2908     -2.2075
    17         H         -0.9955     -1.1864     -2.1210
    18         H         -2.9520     -2.2405     -0.7716
    19         H         -2.2500      1.2245      2.3217
    20         H         -1.3994      2.2812      1.3424

 General Reference for PM7:
 "Optimization of Parameters for Semiempirical Methods VI: More Modifications to the 
 NDDO Approximations and Re-optimization of Parameters", J. J. P. Stewart, J. Mol. Mod., 1:32, 19 (2013)
 https://link.springer.com/article/10.1007/s00894-012-1667-x

           Empirical Formula: C6 H11 N3  =    20 atoms



      MOLECULAR POINT GROUP   :   C1  


      RHF CALCULATION, NO. OF DOUBLY OCCUPIED LEVELS = 25

  SCF CRITERION =    0.1000E-07

 -------------------------------------------------------------------------------
 PM7 1SCF GRADIENTS DISP RELSCF=0.0001
 Title: ASE calculation



     1SCF WAS SPECIFIED, SO BFGS WAS NOT USED                 
     SCF FIELD WAS ACHIEVED                                   


                              PM7 CALCULATION
                                                       MOPAC v23.2 Linux
                                                       Fri Sep 19 21:55:42 2025




          FINAL HEAT OF FORMATION =         16.27672 KCAL/MOL =      68.10180 KJ/MOL

          TOTAL ENERGY            =     -33302.97130 KCAL/MOL = ELECTRONIC ENERGY + CORE-CORE REPULSION
          ENERGY OF ATOMS         =      33321.83911 KCAL/MOL
                              SUM =         18.86780 KCAL/MOL
          DISPERSION ENERGY       =         -2.59108 KCAL/MOL
                              SUM =         16.27672 KCAL/MOL = FINAL HEAT OF FORMATION



          TOTAL ENERGY            =      -1444.15352 EV
          ELECTRONIC ENERGY       =      -7310.65614 EV 
          CORE-CORE REPULSION     =       5866.50262 EV
          COSMO AREA              =        166.78 SQUARE ANGSTROMS
          COSMO VOLUME            =        167.55 CUBIC ANGSTROMS

          GRADIENT NORM           =          1.10634          =       0.24739 PER ATOM
          IONIZATION POTENTIAL    =          8.275993 EV
          HOMO LUMO ENERGIES (EV) =         -8.276  0.699
          NO. OF FILLED LEVELS    =         25
          MOLECULAR WEIGHT        =        125.1730         POINT GROUP:  C1  

          MOLECULAR DIMENSIONS (Angstroms)

            Atom       Atom       Distance
            H    18    H    12     6.42389
            H    19    H    14     5.47457
            H    10    H    16     3.75941


          SCF CALCULATIONS        =          1

          WALL-CLOCK TIME         =      1.109 SECONDS
          COMPUTATION TIME        =      0.621 SECONDS

          LARGEST ATOMIC GRADIENTS

          Atom     Label                     Cartesian Gradients           Cartesian Coordinates       |Gradient|
                                           X          Y          Z        X          Y          Z

             3       C                  -0.430     -0.041      0.106    0.24932    1.10769   -1.11773      0.445
            15       H                   0.161      0.122     -0.336    0.24389    2.11716   -0.65212      0.392
             2       C                  -0.336      0.000     -0.190    1.60210    0.42445   -0.83506      0.386
            11       H                   0.039     -0.163      0.256    1.10880   -0.09937    1.22409      0.306
             7       N                  -0.038      0.153     -0.251   -2.60042   -0.60909    0.59219      0.296
            16       H                   0.013     -0.062      0.285    0.14315    1.29081   -2.20746      0.292
            18       H                   0.250      0.082     -0.015   -2.95204   -2.24045   -0.77158      0.264
             4       C                  -0.057     -0.206      0.150   -0.87756    0.30681   -0.60664      0.261
            14       H                   0.102     -0.156     -0.132    1.59485   -0.60648   -1.23501      0.228
             6       C                   0.193     -0.078     -0.062   -2.39747   -1.35777   -0.50489      0.217



       FINAL  POINT  AND  DERIVATIVES

   PARAMETER     ATOM    TYPE            VALUE        GRADIENT
      1          1  C    CARTESIAN X     1.911285     -0.090594  KCAL/ANGSTROM
      2          1  C    CARTESIAN Y     0.399726     -0.029284  KCAL/ANGSTROM
      3          1  C    CARTESIAN Z     0.660298     -0.116685  KCAL/ANGSTROM
      4          2  C    CARTESIAN X     1.602097     -0.335930  KCAL/ANGSTROM
      5          2  C    CARTESIAN Y     0.424450      0.000283  KCAL/ANGSTROM
      6          2  C    CARTESIAN Z    -0.835063     -0.190422  KCAL/ANGSTROM
      7          3  C    CARTESIAN X     0.249324     -0.430079  KCAL/ANGSTROM
      8          3  C    CARTESIAN Y     1.107686     -0.040730  KCAL/ANGSTROM
      9          3  C    CARTESIAN Z    -1.117732      0.105968  KCAL/ANGSTROM
     10          4  C    CARTESIAN X    -0.877559     -0.057356  KCAL/ANGSTROM
     11          4  C    CARTESIAN Y     0.306810     -0.205639  KCAL/ANGSTROM
     12          4  C    CARTESIAN Z    -0.606642      0.150109  KCAL/ANGSTROM
     13          5  N    CARTESIAN X    -1.367197     -0.000447  KCAL/ANGSTROM
     14          5  N    CARTESIAN Y    -0.826910     -0.022812  KCAL/ANGSTROM
     15          5  N    CARTESIAN Z    -1.273652     -0.060587  KCAL/ANGSTROM
     16          6  C    CARTESIAN X    -2.397470      0.193200  KCAL/ANGSTROM
     17          6  C    CARTESIAN Y    -1.357767     -0.078192  KCAL/ANGSTROM
     18          6  C    CARTESIAN Z    -0.504885     -0.061857  KCAL/ANGSTROM
     19          7  N    CARTESIAN X    -2.600421     -0.037952  KCAL/ANGSTROM
     20          7  N    CARTESIAN Y    -0.609089      0.153392  KCAL/ANGSTROM
     21          7  N    CARTESIAN Z     0.592186     -0.250676  KCAL/ANGSTROM
     22          8  C    CARTESIAN X    -1.659025     -0.006132  KCAL/ANGSTROM
     23          8  C    CARTESIAN Y     0.423208      0.065951  KCAL/ANGSTROM
     24          8  C    CARTESIAN Z     0.553315     -0.015996  KCAL/ANGSTROM
     25          9  N    CARTESIAN X    -1.532749     -0.000623  KCAL/ANGSTROM
     26          9  N    CARTESIAN Y     1.322799      0.100083  KCAL/ANGSTROM
     27          9  N    CARTESIAN Z     1.615943     -0.053684  KCAL/ANGSTROM
     28         10  H    CARTESIAN X     2.844456      0.210592  KCAL/ANGSTROM
     29         10  H    CARTESIAN Y    -0.132721      0.011137  KCAL/ANGSTROM
     30         10  H    CARTESIAN Z     0.868803     -0.040673  KCAL/ANGSTROM
     31         11  H    CARTESIAN X     1.108797      0.039343  KCAL/ANGSTROM
     32         11  H    CARTESIAN Y    -0.099372     -0.162720  KCAL/ANGSTROM
     33         11  H    CARTESIAN Z     1.224089      0.256134  KCAL/ANGSTROM
     34         12  H    CARTESIAN X     2.001163     -0.078976  KCAL/ANGSTROM
     35         12  H    CARTESIAN Y     1.410509      0.023613  KCAL/ANGSTROM
     36         12  H    CARTESIAN Z     1.073030      0.144685  KCAL/ANGSTROM
     37         13  H    CARTESIAN X     2.405420      0.083174  KCAL/ANGSTROM
     38         13  H    CARTESIAN Y     0.958064     -0.061311  KCAL/ANGSTROM
     39         13  H    CARTESIAN Z    -1.377687      0.008292  KCAL/ANGSTROM
     40         14  H    CARTESIAN X     1.594852      0.102375  KCAL/ANGSTROM
     41         14  H    CARTESIAN Y    -0.606485     -0.155777  KCAL/ANGSTROM
     42         14  H    CARTESIAN Z    -1.235010     -0.131786  KCAL/ANGSTROM
     43         15  H    CARTESIAN X     0.243888      0.161006  KCAL/ANGSTROM
     44         15  H    CARTESIAN Y     2.117160      0.121738  KCAL/ANGSTROM
     45         15  H    CARTESIAN Z    -0.652120     -0.335976  KCAL/ANGSTROM
     46         16  H    CARTESIAN X     0.143150      0.013278  KCAL/ANGSTROM
     47         16  H    CARTESIAN Y     1.290810     -0.061750  KCAL/ANGSTROM
     48         16  H    CARTESIAN Z    -2.207458      0.285240  KCAL/ANGSTROM
     49         17  H    CARTESIAN X    -0.995468     -0.009221  KCAL/ANGSTROM
     50         17  H    CARTESIAN Y    -1.186382      0.144623  KCAL/ANGSTROM
     51         17  H    CARTESIAN Z    -2.121013      0.115627  KCAL/ANGSTROM
     52         18  H    CARTESIAN X    -2.952040      0.250055  KCAL/ANGSTROM
     53         18  H    CARTESIAN Y    -2.240455      0.082344  KCAL/ANGSTROM
     54         18  H    CARTESIAN Z    -0.771585     -0.014514  KCAL/ANGSTROM
     55         19  H    CARTESIAN X    -2.250000      0.062911  KCAL/ANGSTROM
     56         19  H    CARTESIAN Y     1.224493     -0.041249  KCAL/ANGSTROM
     57         19  H    CARTESIAN Z     2.321725      0.107860  KCAL/ANGSTROM
     58         20  H    CARTESIAN X    -1.399435     -0.068620  KCAL/ANGSTROM
     59         20  H    CARTESIAN Y     2.281237      0.156297  KCAL/ANGSTROM
     60         20  H    CARTESIAN Z     1.342364      0.098937  KCAL/ANGSTROM




   ATOM   CHEMICAL          X               Y               Z
  NUMBER   SYMBOL      (ANGSTROMS)     (ANGSTROMS)     (ANGSTROMS)

     1       C          1.91128455  *   0.39972590  *   0.66029802  *
     2       C          1.60209721  *   0.42445040  *  -0.83506250  *
     3       C          0.24932354  *   1.10768575  *  -1.11773164  *
     4       C         -0.87755948  *   0.30681050  *  -0.60664240  *
     5       N         -1.36719694  *  -0.82691028  *  -1.27365218  *
     6       C         -2.39746954  *  -1.35776695  *  -0.50488549  *
     7       N         -2.60042079  *  -0.60908864  *   0.59218643  *
     8       C         -1.65902481  *   0.42320783  *   0.55331537  *
     9       N         -1.53274915  *   1.32279927  *   1.61594300  *
    10       H          2.84445611  *  -0.13272063  *   0.86880337  *
    11       H          1.10879671  *  -0.09937206  *   1.22408856  *
    12       H          2.00116332  *   1.41050890  *   1.07302953  *
    13       H          2.40542037  *   0.95806423  *  -1.37768738  *
    14       H          1.59485244  *  -0.60648455  *  -1.23501032  *
    15       H          0.24388818  *   2.11716006  *  -0.65211962  *
    16       H          0.14315041  *   1.29080995  *  -2.20745756  *
    17       H         -0.99546798  *  -1.18638171  *  -2.12101291  *
    18       H         -2.95203986  *  -2.24045470  *  -0.77158454  *
    19       H         -2.24999992  *   1.22449317  *   2.32172472  *
    20       H         -1.39943536  *   2.28123729  *   1.34236370  *

                             CARTESIAN COORDINATES

   1    C        1.911284546     0.399725898     0.660298024
   2    C        1.602097213     0.424450402    -0.835062501
   3    C        0.249323540     1.107685753    -1.117731642
   4    C       -0.877559476     0.306810497    -0.606642396
   5    N       -1.367196945    -0.826910278    -1.273652183
   6    C       -2.397469540    -1.357766945    -0.504885489
   7    N       -2.600420790    -0.609088645     0.592186432
   8    C       -1.659024814     0.423207828     0.553315374
   9    N       -1.532749148     1.322799272     1.615942997
  10    H        2.844456107    -0.132720632     0.868803365
  11    H        1.108796715    -0.099372062     1.224088565
  12    H        2.001163316     1.410508904     1.073029532
  13    H        2.405420372     0.958064229    -1.377687384
  14    H        1.594852444    -0.606484547    -1.235010316
  15    H        0.243888184     2.117160056    -0.652119619
  16    H        0.143150406     1.290809949    -2.207457560
  17    H       -0.995467983    -1.186381707    -2.121012910
  18    H       -2.952039860    -2.240454701    -0.771584541
  19    H       -2.249999922     1.224493165     2.321724717
  20    H       -1.399435365     2.281237291     1.342363699


           Empirical Formula: C6 H11 N3  =    20 atoms



      MOLECULAR POINT GROUP   :   C1  


                  EIGENVALUES  
 -38.69343 -36.10949 -33.28621 -28.64857 -25.36088 -23.51329 -21.95716 -20.45283
 -19.78069 -18.17026 -17.03960 -15.90976 -15.53375 -15.34264 -14.55928 -14.45482
 -13.80599 -13.35628 -12.21128 -12.10067 -11.66987 -11.51601 -10.82773 -10.11309
  -8.27599   0.69854   1.60380   2.10359   3.29334   3.50616   4.02052   4.10624
   4.40691   4.66833   4.99867   5.21818   5.46014   5.62268   5.70831   6.04351
   6.18114   6.20634   6.25538   6.41042   6.48777   7.04049   7.30425


              NET ATOMIC CHARGES AND DIPOLE CONTRIBUTIONS

  ATOM NO.   TYPE          CHARGE      No. of ELECS.   s-Pop       p-Pop       
    1          C          -0.439361        4.4394     1.05196     3.38740
    2          C          -0.237424        4.2374     1.05566     3.18176
    3          C          -0.251451        4.2515     1.04838     3.20307
    4          C          -0.073303        4.0733     1.05185     3.02146
    5          N          -0.362504        5.3625     1.52406     3.83844
    6          C           0.092762        3.9072     1.09276     2.81448
    7          N          -0.439489        5.4395     1.77103     3.66846
    8          C           0.214438        3.7856     1.04478     2.74078
    9          N          -0.576918        5.5769     1.58493     3.99199
   10          H           0.138443        0.8616     0.86156
   11          H           0.164517        0.8355     0.83548
   12          H           0.144815        0.8552     0.85518
   13          H           0.133234        0.8668     0.86677
   14          H           0.130272        0.8697     0.86973
   15          H           0.156917        0.8431     0.84308
   16          H           0.142530        0.8575     0.85747
   17          H           0.313307        0.6867     0.68669
   18          H           0.188408        0.8116     0.81159
   19          H           0.288803        0.7112     0.71120
   20          H           0.272005        0.7280     0.72800
 DIPOLE           X         Y         Z       TOTAL
 POINT-CHG.     1.347     0.511    -2.324     2.735
 HYBRID        -0.082     0.262    -0.966     1.004
 SUM            1.266     0.773    -3.291     3.609


          ATOMIC ORBITAL ELECTRON POPULATIONS

     Atom    s        px        py        pz   
    1  C   1.05196   1.17135   1.18010   1.03596
    2  C   1.05566   1.02328   1.12341   1.03507
    3  C   1.04838   0.98535   1.08614   1.13158
    4  C   1.05185   1.05647   0.95902   1.00596
    5  N   1.52406   1.31415   1.26498   1.25931
    6  C   1.09276   0.92528   1.01728   0.87192
    7  N   1.77103   1.27373   1.13847   1.25626
    8  C   1.04478   0.92785   0.92088   0.89205
    9  N   1.58493   1.57640   1.18934   1.22625
   10  H   0.86156
   11  H   0.83548
   12  H   0.85518
   13  H   0.86677
   14  H   0.86973
   15  H   0.84308
   16  H   0.85747
   17  H   0.68669
   18  H   0.81159
   19  H   0.71120
   20  H   0.72800

 **********************
 *                    *
 * JOB ENDED NORMALLY *
 *                    *
 **********************



 TOTAL JOB TIME:             1.80 SECONDS

 == MOPAC DONE ==
