 *******************************************************************************
 **                                                                           **
 **                              MOPAC v23.2                                  **
 **                                                                           **
 *******************************************************************************
 **          Digital Object Identifier (DOI): 10.5281/zenodo.6511958          **
 **    Visit the DOI location for information on how to cite this program.    **
 *******************************************************************************

                              PM7 CALCULATION RESULTS

 *******************************************************************************
 *  CALCULATION DONE: (MAX THREADS = 40)             Fri Sep 19 21:51:13 2025  *
 *  PM7        - The PM7 Hamiltonian to be used
 *  1SCF       - DO 1 SCF AND THEN STOP 
 *  T=         - A TIME OF 172800.0 SECONDS REQUESTED
 *  DUMP=N     - RESTART FILE WRITTEN EVERY 7200.0 SECONDS REQUESTED
 *  RELSCF     - DEFAULT SCF CRITERION MULTIPLIED BY 0.0001
 *              (DEFAULT SCF CRITERION = 0.00010)
 *  GRADIENTS  - ALL GRADIENTS TO BE PRINTED
 *  DISP       - PRINT DISPERSION AND HYDROGEN BOND ENERGIES
 *******************************************************************************
PM7 1SCF GRADIENTS DISP RELSCF=0.0001
 Title: ASE calculation

   ATOM   CHEMICAL          X               Y               Z
  NUMBER   SYMBOL      (ANGSTROMS)     (ANGSTROMS)     (ANGSTROMS)

     1       C          1.85808041  *  -0.20009809  *   0.16407882  *
     2       N          0.60007708  *  -0.76063660  *   0.64442216  *
     3       C         -0.45648851  *   0.11756211  *   1.18156531  *
     4       C         -0.48080108  *   1.58679063  *   0.82291425  *
     5       O         -0.40079030  *   2.54275097  *   1.55153055  *
     6       N         -0.64644719  *   1.69874473  *  -0.55446634  *
     7       C         -0.75961918  *   0.40429616  *  -1.25272804  *
     8       C         -0.64814360  *  -0.64980841  *  -0.13482568  *
     9       C         -1.46337526  *  -1.88761918  *  -0.30610315  *
    10       H          2.52522453  *  -0.06427571  *   1.03792021  *
    11       H          2.33109072  *  -0.93866592  *  -0.50882040  *
    12       H          1.79550027  *   0.76350018  *  -0.36429120  *
    13       H         -0.86191898  *  -0.15006214  *   2.15659131  *
    14       H         -0.74802107  *   2.56249406  *  -1.04377743  *
    15       H         -1.73355136  *   0.32532121  *  -1.78040500  *
    16       H          0.04638971  *   0.29121971  *  -2.00796012  *
    17       H         -1.27709038  *  -2.61026596  *   0.50624921  *
    18       H         -1.22159063  *  -2.40451235  *  -1.24465341  *
    19       H         -2.53985094  *  -1.66798971  *  -0.30670428  *



          CARTESIAN COORDINATES 

    NO.       ATOM           X           Y           Z

     1         C          1.8581     -0.2001      0.1641
     2         N          0.6001     -0.7606      0.6444
     3         C         -0.4565      0.1176      1.1816
     4         C         -0.4808      1.5868      0.8229
     5         O         -0.4008      2.5428      1.5515
     6         N         -0.6464      1.6987     -0.5545
     7         C         -0.7596      0.4043     -1.2527
     8         C         -0.6481     -0.6498     -0.1348
     9         C         -1.4634     -1.8876     -0.3061
    10         H          2.5252     -0.0643      1.0379
    11         H          2.3311     -0.9387     -0.5088
    12         H          1.7955      0.7635     -0.3643
    13         H         -0.8619     -0.1501      2.1566
    14         H         -0.7480      2.5625     -1.0438
    15         H         -1.7336      0.3253     -1.7804
    16         H          0.0464      0.2912     -2.0080
    17         H         -1.2771     -2.6103      0.5062
    18         H         -1.2216     -2.4045     -1.2447
    19         H         -2.5399     -1.6680     -0.3067

 General Reference for PM7:
 "Optimization of Parameters for Semiempirical Methods VI: More Modifications to the 
 NDDO Approximations and Re-optimization of Parameters", J. J. P. Stewart, J. Mol. Mod., 1:32, 19 (2013)
 https://link.springer.com/article/10.1007/s00894-012-1667-x

           Empirical Formula: C6 H10 N2 O  =    19 atoms



      MOLECULAR POINT GROUP   :   C1  


      RHF CALCULATION, NO. OF DOUBLY OCCUPIED LEVELS = 25

  SCF CRITERION =    0.1000E-07

 -------------------------------------------------------------------------------
 PM7 1SCF GRADIENTS DISP RELSCF=0.0001
 Title: ASE calculation



     1SCF WAS SPECIFIED, SO BFGS WAS NOT USED                 
     SCF FIELD WAS ACHIEVED                                   


                              PM7 CALCULATION
                                                       MOPAC v23.2 Linux
                                                       Fri Sep 19 21:51:14 2025




          FINAL HEAT OF FORMATION =         -6.26502 KCAL/MOL =     -26.21283 KJ/MOL

          TOTAL ENERGY            =     -35484.68068 KCAL/MOL = ELECTRONIC ENERGY + CORE-CORE REPULSION
          ENERGY OF ATOMS         =      35480.40871 KCAL/MOL
                              SUM =         -4.27197 KCAL/MOL
          DISPERSION ENERGY       =         -2.00186 KCAL/MOL
          MM CORR. FOR -CO-NH-    =          0.00881 KCAL/MOL
                              SUM =         -6.26502 KCAL/MOL = FINAL HEAT OF FORMATION



          TOTAL ENERGY            =      -1538.76139 EV
          ELECTRONIC ENERGY       =      -7621.14164 EV 
          CORE-CORE REPULSION     =       6082.38025 EV
          COSMO AREA              =        156.01 SQUARE ANGSTROMS
          COSMO VOLUME            =        155.84 CUBIC ANGSTROMS

          GRADIENT NORM           =          1.15425          =       0.26480 PER ATOM
          IONIZATION POTENTIAL    =          9.934914 EV
          HOMO LUMO ENERGIES (EV) =         -9.935  0.848
          NO. OF FILLED LEVELS    =         25
          MOLECULAR WEIGHT        =        126.1578         POINT GROUP:  C1  

          MOLECULAR DIMENSIONS (Angstroms)

            Atom       Atom       Distance
            H    18    O     5     5.74176
            H    10    H    15     4.85014
            H    16    H    13     3.84095


          SCF CALCULATIONS        =          1

          WALL-CLOCK TIME         =      0.445 SECONDS
          COMPUTATION TIME        =      0.462 SECONDS

          LARGEST ATOMIC GRADIENTS

          Atom     Label                     Cartesian Gradients           Cartesian Coordinates       |Gradient|
                                           X          Y          Z        X          Y          Z

             2       N                   0.125      0.014      0.411    0.60008   -0.76064    0.64442      0.430
            11       H                   0.173     -0.126     -0.339    2.33109   -0.93867   -0.50882      0.401
            18       H                  -0.222      0.280      0.180   -1.22159   -2.40451   -1.24465      0.400
             6       N                   0.239     -0.230     -0.000   -0.64645    1.69874   -0.55447      0.332
            12       H                  -0.248      0.142     -0.095    1.79550    0.76350   -0.36429      0.301
            14       H                  -0.143     -0.150      0.197   -0.74802    2.56249   -1.04378      0.286
             3       C                  -0.262      0.016     -0.092   -0.45649    0.11756    1.18157      0.278
            17       H                  -0.226     -0.060     -0.140   -1.27709   -2.61027    0.50625      0.273
            19       H                   0.064      0.015     -0.262   -2.53985   -1.66799   -0.30670      0.270
             9       C                   0.012      0.211      0.143   -1.46338   -1.88762   -0.30610      0.255



       FINAL  POINT  AND  DERIVATIVES

   PARAMETER     ATOM    TYPE            VALUE        GRADIENT
      1          1  C    CARTESIAN X     1.858080      0.093490  KCAL/ANGSTROM
      2          1  C    CARTESIAN Y    -0.200098     -0.026544  KCAL/ANGSTROM
      3          1  C    CARTESIAN Z     0.164079     -0.016489  KCAL/ANGSTROM
      4          2  N    CARTESIAN X     0.600077      0.124981  KCAL/ANGSTROM
      5          2  N    CARTESIAN Y    -0.760637      0.014204  KCAL/ANGSTROM
      6          2  N    CARTESIAN Z     0.644422      0.411095  KCAL/ANGSTROM
      7          3  C    CARTESIAN X    -0.456489     -0.261942  KCAL/ANGSTROM
      8          3  C    CARTESIAN Y     0.117562      0.016034  KCAL/ANGSTROM
      9          3  C    CARTESIAN Z     1.181565     -0.091614  KCAL/ANGSTROM
     10          4  C    CARTESIAN X    -0.480801     -0.112114  KCAL/ANGSTROM
     11          4  C    CARTESIAN Y     1.586791     -0.018574  KCAL/ANGSTROM
     12          4  C    CARTESIAN Z     0.822914      0.098086  KCAL/ANGSTROM
     13          5  O    CARTESIAN X    -0.400790     -0.086601  KCAL/ANGSTROM
     14          5  O    CARTESIAN Y     2.542751     -0.009144  KCAL/ANGSTROM
     15          5  O    CARTESIAN Z     1.551531     -0.087357  KCAL/ANGSTROM
     16          6  N    CARTESIAN X    -0.646447      0.238530  KCAL/ANGSTROM
     17          6  N    CARTESIAN Y     1.698745     -0.230290  KCAL/ANGSTROM
     18          6  N    CARTESIAN Z    -0.554466     -0.000013  KCAL/ANGSTROM
     19          7  C    CARTESIAN X    -0.759619      0.044246  KCAL/ANGSTROM
     20          7  C    CARTESIAN Y     0.404296      0.026072  KCAL/ANGSTROM
     21          7  C    CARTESIAN Z    -1.252728     -0.051991  KCAL/ANGSTROM
     22          8  C    CARTESIAN X    -0.648144      0.240116  KCAL/ANGSTROM
     23          8  C    CARTESIAN Y    -0.649808      0.057164  KCAL/ANGSTROM
     24          8  C    CARTESIAN Z    -0.134826      0.040592  KCAL/ANGSTROM
     25          9  C    CARTESIAN X    -1.463375      0.012002  KCAL/ANGSTROM
     26          9  C    CARTESIAN Y    -1.887619      0.210728  KCAL/ANGSTROM
     27          9  C    CARTESIAN Z    -0.306103      0.142612  KCAL/ANGSTROM
     28         10  H    CARTESIAN X     2.525225      0.038473  KCAL/ANGSTROM
     29         10  H    CARTESIAN Y    -0.064276      0.089032  KCAL/ANGSTROM
     30         10  H    CARTESIAN Z     1.037920      0.135334  KCAL/ANGSTROM
     31         11  H    CARTESIAN X     2.331091      0.173324  KCAL/ANGSTROM
     32         11  H    CARTESIAN Y    -0.938666     -0.126309  KCAL/ANGSTROM
     33         11  H    CARTESIAN Z    -0.508820     -0.338506  KCAL/ANGSTROM
     34         12  H    CARTESIAN X     1.795500     -0.248406  KCAL/ANGSTROM
     35         12  H    CARTESIAN Y     0.763500      0.142304  KCAL/ANGSTROM
     36         12  H    CARTESIAN Z    -0.364291     -0.094578  KCAL/ANGSTROM
     37         13  H    CARTESIAN X    -0.861919      0.217798  KCAL/ANGSTROM
     38         13  H    CARTESIAN Y    -0.150062      0.007057  KCAL/ANGSTROM
     39         13  H    CARTESIAN Z     2.156591      0.024503  KCAL/ANGSTROM
     40         14  H    CARTESIAN X    -0.748021     -0.142667  KCAL/ANGSTROM
     41         14  H    CARTESIAN Y     2.562494     -0.149982  KCAL/ANGSTROM
     42         14  H    CARTESIAN Z    -1.043777      0.197476  KCAL/ANGSTROM
     43         15  H    CARTESIAN X    -1.733551     -0.080353  KCAL/ANGSTROM
     44         15  H    CARTESIAN Y     0.325321     -0.119794  KCAL/ANGSTROM
     45         15  H    CARTESIAN Z    -1.780405     -0.069324  KCAL/ANGSTROM
     46         16  H    CARTESIAN X     0.046390      0.133367  KCAL/ANGSTROM
     47         16  H    CARTESIAN Y     0.291220     -0.117766  KCAL/ANGSTROM
     48         16  H    CARTESIAN Z    -2.007960     -0.078427  KCAL/ANGSTROM
     49         17  H    CARTESIAN X    -1.277090     -0.226329  KCAL/ANGSTROM
     50         17  H    CARTESIAN Y    -2.610266     -0.059989  KCAL/ANGSTROM
     51         17  H    CARTESIAN Z     0.506249     -0.139844  KCAL/ANGSTROM
     52         18  H    CARTESIAN X    -1.221591     -0.221586  KCAL/ANGSTROM
     53         18  H    CARTESIAN Y    -2.404512      0.280388  KCAL/ANGSTROM
     54         18  H    CARTESIAN Z    -1.244653      0.180286  KCAL/ANGSTROM
     55         19  H    CARTESIAN X    -2.539851      0.063671  KCAL/ANGSTROM
     56         19  H    CARTESIAN Y    -1.667990      0.015407  KCAL/ANGSTROM
     57         19  H    CARTESIAN Z    -0.306704     -0.261848  KCAL/ANGSTROM




   ATOM   CHEMICAL          X               Y               Z
  NUMBER   SYMBOL      (ANGSTROMS)     (ANGSTROMS)     (ANGSTROMS)

     1       C          1.85808041  *  -0.20009809  *   0.16407882  *
     2       N          0.60007708  *  -0.76063660  *   0.64442216  *
     3       C         -0.45648851  *   0.11756211  *   1.18156531  *
     4       C         -0.48080108  *   1.58679063  *   0.82291425  *
     5       O         -0.40079030  *   2.54275097  *   1.55153055  *
     6       N         -0.64644719  *   1.69874473  *  -0.55446634  *
     7       C         -0.75961918  *   0.40429616  *  -1.25272804  *
     8       C         -0.64814360  *  -0.64980841  *  -0.13482568  *
     9       C         -1.46337526  *  -1.88761918  *  -0.30610315  *
    10       H          2.52522453  *  -0.06427571  *   1.03792021  *
    11       H          2.33109072  *  -0.93866592  *  -0.50882040  *
    12       H          1.79550027  *   0.76350018  *  -0.36429120  *
    13       H         -0.86191898  *  -0.15006214  *   2.15659131  *
    14       H         -0.74802107  *   2.56249406  *  -1.04377743  *
    15       H         -1.73355136  *   0.32532121  *  -1.78040500  *
    16       H          0.04638971  *   0.29121971  *  -2.00796012  *
    17       H         -1.27709038  *  -2.61026596  *   0.50624921  *
    18       H         -1.22159063  *  -2.40451235  *  -1.24465341  *
    19       H         -2.53985094  *  -1.66798971  *  -0.30670428  *

                             CARTESIAN COORDINATES

   1    C        1.858080410    -0.200098091     0.164078819
   2    N        0.600077080    -0.760636602     0.644422160
   3    C       -0.456488513     0.117562113     1.181565311
   4    C       -0.480801080     1.586790626     0.822914248
   5    O       -0.400790295     2.542750972     1.551530553
   6    N       -0.646447189     1.698744726    -0.554466341
   7    C       -0.759619178     0.404296156    -1.252728037
   8    C       -0.648143604    -0.649808408    -0.134825676
   9    C       -1.463375256    -1.887619177    -0.306103149
  10    H        2.525224533    -0.064275708     1.037920207
  11    H        2.331090720    -0.938665921    -0.508820404
  12    H        1.795500268     0.763500184    -0.364291196
  13    H       -0.861918981    -0.150062141     2.156591308
  14    H       -0.748021068     2.562494063    -1.043777431
  15    H       -1.733551358     0.325321206    -1.780405003
  16    H        0.046389714     0.291219712    -2.007960117
  17    H       -1.277090381    -2.610265961     0.506249214
  18    H       -1.221590626    -2.404512347    -1.244653414
  19    H       -2.539850937    -1.667989710    -0.306704281


           Empirical Formula: C6 H10 N2 O  =    19 atoms



      MOLECULAR POINT GROUP   :   C1  


                  EIGENVALUES  
 -37.96510 -35.75741 -30.52672 -27.75219 -25.75489 -24.49725 -23.58898 -20.34570
 -19.34094 -17.56149 -16.94284 -16.29325 -15.89241 -15.26917 -14.80911 -14.51854
 -13.95434 -13.91852 -13.90000 -13.18940 -11.91443 -11.83719 -10.62130  -9.99697
  -9.93491   0.84762   1.74465   1.88843   2.29778   2.73304   3.09523   3.55739
   3.86516   4.49613   4.60018   4.75947   5.06235   5.26740   5.29516   5.33841
   5.37330   5.44276   5.69780   6.21139   6.44564   6.46848


              NET ATOMIC CHARGES AND DIPOLE CONTRIBUTIONS

  ATOM NO.   TYPE          CHARGE      No. of ELECS.   s-Pop       p-Pop       
    1          C          -0.289247        4.2892     1.06156     3.22769
    2          N          -0.333549        5.3335     1.73576     3.59779
    3          C          -0.177189        4.1772     1.08928     3.08791
    4          C           0.568744        3.4313     1.08479     2.34646
    5          O          -0.481629        6.4816     1.87815     4.60348
    6          N          -0.630614        5.6306     1.56625     4.06437
    7          C          -0.098466        4.0985     1.07428     3.02418
    8          C           0.093394        3.9066     1.06280     2.84380
    9          C          -0.439876        4.4399     1.04870     3.39117
   10          H           0.167302        0.8327     0.83270
   11          H           0.157080        0.8429     0.84292
   12          H           0.140030        0.8600     0.85997
   13          H           0.199392        0.8006     0.80061
   14          H           0.327209        0.6728     0.67279
   15          H           0.152044        0.8480     0.84796
   16          H           0.150402        0.8496     0.84960
   17          H           0.177335        0.8227     0.82266
   18          H           0.158556        0.8414     0.84144
   19          H           0.159080        0.8409     0.84092
 DIPOLE           X         Y         Z       TOTAL
 POINT-CHG.    -0.619    -3.035    -3.621     4.765
 HYBRID         0.047     1.233    -0.596     1.370
 SUM           -0.572    -1.802    -4.216     4.621


          ATOMIC ORBITAL ELECTRON POPULATIONS

     Atom    s        px        py        pz   
    1  C   1.06156   0.94988   1.12625   1.15156
    2  N   1.73576   1.01095   1.34926   1.23758
    3  C   1.08928   1.05968   0.95836   1.06986
    4  C   1.08479   0.72437   0.86866   0.75344
    5  O   1.87815   1.52803   1.47020   1.60526
    6  N   1.56625   1.75013   1.14973   1.16450
    7  C   1.07428   1.15586   0.84857   1.01975
    8  C   1.06280   0.95931   0.97118   0.91331
    9  C   1.04870   1.12416   1.07121   1.19580
   10  H   0.83270
   11  H   0.84292
   12  H   0.85997
   13  H   0.80061
   14  H   0.67279
   15  H   0.84796
   16  H   0.84960
   17  H   0.82266
   18  H   0.84144
   19  H   0.84092

 **********************
 *                    *
 * JOB ENDED NORMALLY *
 *                    *
 **********************



 TOTAL JOB TIME:             0.84 SECONDS

 == MOPAC DONE ==
