 *******************************************************************************
 **                                                                           **
 **                              MOPAC v23.2                                  **
 **                                                                           **
 *******************************************************************************
 **          Digital Object Identifier (DOI): 10.5281/zenodo.6511958          **
 **    Visit the DOI location for information on how to cite this program.    **
 *******************************************************************************

                              PM7 CALCULATION RESULTS

 *******************************************************************************
 *  CALCULATION DONE: (MAX THREADS = 40)             Fri Sep 19 22:05:47 2025  *
 *  PM7        - The PM7 Hamiltonian to be used
 *  1SCF       - DO 1 SCF AND THEN STOP 
 *  T=         - A TIME OF 172800.0 SECONDS REQUESTED
 *  DUMP=N     - RESTART FILE WRITTEN EVERY 7200.0 SECONDS REQUESTED
 *  RELSCF     - DEFAULT SCF CRITERION MULTIPLIED BY 0.0001
 *              (DEFAULT SCF CRITERION = 0.00010)
 *  GRADIENTS  - ALL GRADIENTS TO BE PRINTED
 *  DISP       - PRINT DISPERSION AND HYDROGEN BOND ENERGIES
 *******************************************************************************
PM7 1SCF GRADIENTS DISP RELSCF=0.0001
 Title: ASE calculation

   ATOM   CHEMICAL          X               Y               Z
  NUMBER   SYMBOL      (ANGSTROMS)     (ANGSTROMS)     (ANGSTROMS)

     1       C         -2.60379467  *  -0.69078393  *   0.68107450  *
     2       C         -2.01445785  *   0.71018602  *   0.47358549  *
     3       N         -0.63263218  *   0.69045264  *   0.01444992  *
     4       C         -0.29794514  *   0.19777726  *  -1.34299571  *
     5       C          1.18255004  *  -0.10698867  *  -1.24436765  *
     6       C          1.61474484  *   0.07408129  *   0.01543904  *
     7       C          2.95536779  *  -0.07881274  *   0.59465227  *
     8       C          0.45622512  *   0.49899569  *   0.87798705  *
     9       O          0.42510150  *   0.70283469  *   2.06570962  *
    10       H         -2.60801829  *  -1.27559938  *  -0.24362704  *
    11       H         -3.63658265  *  -0.63160704  *   1.04296614  *
    12       H         -2.02736014  *  -1.25450221  *   1.42629559  *
    13       H         -2.62291458  *   1.28382266  *  -0.26167980  *
    14       H         -2.04258923  *   1.28139936  *   1.43609829  *
    15       H         -0.89006601  *  -0.69898445  *  -1.61826686  *
    16       H         -0.51060790  *   0.99286231  *  -2.08925379  *
    17       H          1.73938816  *  -0.40561177  *  -2.11072092  *
    18       H          2.96994296  *  -0.85987262  *   1.37471599  *
    19       H          3.71742881  *  -0.33923236  *  -0.15228030  *
    20       H          3.27993735  *   0.85242629  *   1.09275090  *



          CARTESIAN COORDINATES 

    NO.       ATOM           X           Y           Z

     1         C         -2.6038     -0.6908      0.6811
     2         C         -2.0145      0.7102      0.4736
     3         N         -0.6326      0.6905      0.0144
     4         C         -0.2979      0.1978     -1.3430
     5         C          1.1826     -0.1070     -1.2444
     6         C          1.6147      0.0741      0.0154
     7         C          2.9554     -0.0788      0.5947
     8         C          0.4562      0.4990      0.8780
     9         O          0.4251      0.7028      2.0657
    10         H         -2.6080     -1.2756     -0.2436
    11         H         -3.6366     -0.6316      1.0430
    12         H         -2.0274     -1.2545      1.4263
    13         H         -2.6229      1.2838     -0.2617
    14         H         -2.0426      1.2814      1.4361
    15         H         -0.8901     -0.6990     -1.6183
    16         H         -0.5106      0.9929     -2.0893
    17         H          1.7394     -0.4056     -2.1107
    18         H          2.9699     -0.8599      1.3747
    19         H          3.7174     -0.3392     -0.1523
    20         H          3.2799      0.8524      1.0928

 General Reference for PM7:
 "Optimization of Parameters for Semiempirical Methods VI: More Modifications to the 
 NDDO Approximations and Re-optimization of Parameters", J. J. P. Stewart, J. Mol. Mod., 1:32, 19 (2013)
 https://link.springer.com/article/10.1007/s00894-012-1667-x

           Empirical Formula: C7 H11 N O  =    20 atoms



      MOLECULAR POINT GROUP   :   C1  


      RHF CALCULATION, NO. OF DOUBLY OCCUPIED LEVELS = 25

  SCF CRITERION =    0.1000E-07

 -------------------------------------------------------------------------------
 PM7 1SCF GRADIENTS DISP RELSCF=0.0001
 Title: ASE calculation



     1SCF WAS SPECIFIED, SO BFGS WAS NOT USED                 
     SCF FIELD WAS ACHIEVED                                   


                              PM7 CALCULATION
                                                       MOPAC v23.2 Linux
                                                       Fri Sep 19 22:05:47 2025




          FINAL HEAT OF FORMATION =        -35.60319 KCAL/MOL =    -148.96376 KJ/MOL

          TOTAL ENERGY            =     -34357.42413 KCAL/MOL = ELECTRONIC ENERGY + CORE-CORE REPULSION
          ENERGY OF ATOMS         =      34323.93363 KCAL/MOL
                              SUM =        -33.49049 KCAL/MOL
          DISPERSION ENERGY       =         -2.11270 KCAL/MOL
                              SUM =        -35.60319 KCAL/MOL = FINAL HEAT OF FORMATION



          TOTAL ENERGY            =      -1489.87892 EV
          ELECTRONIC ENERGY       =      -7378.94441 EV 
          CORE-CORE REPULSION     =       5889.06549 EV
          COSMO AREA              =        168.26 SQUARE ANGSTROMS
          COSMO VOLUME            =        166.74 CUBIC ANGSTROMS

          GRADIENT NORM           =          1.11400          =       0.24910 PER ATOM
          IONIZATION POTENTIAL    =          9.343099 EV
          HOMO LUMO ENERGIES (EV) =         -9.343  0.050
          NO. OF FILLED LEVELS    =         25
          MOLECULAR WEIGHT        =        125.1700         POINT GROUP:  C1  

          MOLECULAR DIMENSIONS (Angstroms)

            Atom       Atom       Distance
            H    19    H    11     7.45624
            H    16    H    18     4.43604
            H    15    H    14     3.08458


          SCF CALCULATIONS        =          1

          WALL-CLOCK TIME         =      0.328 SECONDS
          COMPUTATION TIME        =      1.672 SECONDS

          LARGEST ATOMIC GRADIENTS

          Atom     Label                     Cartesian Gradients           Cartesian Coordinates       |Gradient|
                                           X          Y          Z        X          Y          Z

             6       C                  -0.098     -0.108      0.383    1.61474    0.07408    0.01544      0.409
             3       N                   0.133      0.067     -0.294   -0.63263    0.69045    0.01445      0.330
             9       O                   0.314     -0.092      0.008    0.42510    0.70283    2.06571      0.328
            15       H                  -0.141      0.090      0.254   -0.89007   -0.69898   -1.61827      0.304
            17       H                   0.119     -0.071     -0.265    1.73939   -0.40561   -2.11072      0.299
            20       H                  -0.217     -0.005     -0.203    3.27994    0.85243    1.09275      0.298
            11       H                  -0.252     -0.110     -0.045   -3.63658   -0.63161    1.04297      0.279
             8       C                  -0.182     -0.191      0.086    0.45623    0.49900    0.87799      0.277
            16       H                  -0.161     -0.132      0.181   -0.51061    0.99286   -2.08925      0.276
             5       C                  -0.076      0.129      0.201    1.18255   -0.10699   -1.24437      0.251



       FINAL  POINT  AND  DERIVATIVES

   PARAMETER     ATOM    TYPE            VALUE        GRADIENT
      1          1  C    CARTESIAN X    -2.603795     -0.015984  KCAL/ANGSTROM
      2          1  C    CARTESIAN Y    -0.690784      0.165106  KCAL/ANGSTROM
      3          1  C    CARTESIAN Z     0.681075     -0.023984  KCAL/ANGSTROM
      4          2  C    CARTESIAN X    -2.014458      0.184467  KCAL/ANGSTROM
      5          2  C    CARTESIAN Y     0.710186      0.110174  KCAL/ANGSTROM
      6          2  C    CARTESIAN Z     0.473585     -0.048616  KCAL/ANGSTROM
      7          3  N    CARTESIAN X    -0.632632      0.133365  KCAL/ANGSTROM
      8          3  N    CARTESIAN Y     0.690453      0.066743  KCAL/ANGSTROM
      9          3  N    CARTESIAN Z     0.014450     -0.294393  KCAL/ANGSTROM
     10          4  C    CARTESIAN X    -0.297945     -0.009518  KCAL/ANGSTROM
     11          4  C    CARTESIAN Y     0.197777     -0.070142  KCAL/ANGSTROM
     12          4  C    CARTESIAN Z    -1.342996      0.058753  KCAL/ANGSTROM
     13          5  C    CARTESIAN X     1.182550     -0.076323  KCAL/ANGSTROM
     14          5  C    CARTESIAN Y    -0.106989      0.129440  KCAL/ANGSTROM
     15          5  C    CARTESIAN Z    -1.244368      0.200583  KCAL/ANGSTROM
     16          6  C    CARTESIAN X     1.614745     -0.097729  KCAL/ANGSTROM
     17          6  C    CARTESIAN Y     0.074081     -0.107801  KCAL/ANGSTROM
     18          6  C    CARTESIAN Z     0.015439      0.382579  KCAL/ANGSTROM
     19          7  C    CARTESIAN X     2.955368      0.115896  KCAL/ANGSTROM
     20          7  C    CARTESIAN Y    -0.078813     -0.031412  KCAL/ANGSTROM
     21          7  C    CARTESIAN Z     0.594652      0.111370  KCAL/ANGSTROM
     22          8  C    CARTESIAN X     0.456225     -0.181931  KCAL/ANGSTROM
     23          8  C    CARTESIAN Y     0.498996     -0.190813  KCAL/ANGSTROM
     24          8  C    CARTESIAN Z     0.877987      0.086394  KCAL/ANGSTROM
     25          9  O    CARTESIAN X     0.425101      0.314314  KCAL/ANGSTROM
     26          9  O    CARTESIAN Y     0.702835     -0.092020  KCAL/ANGSTROM
     27          9  O    CARTESIAN Z     2.065710      0.008312  KCAL/ANGSTROM
     28         10  H    CARTESIAN X    -2.608018      0.172852  KCAL/ANGSTROM
     29         10  H    CARTESIAN Y    -1.275599     -0.004218  KCAL/ANGSTROM
     30         10  H    CARTESIAN Z    -0.243627     -0.130844  KCAL/ANGSTROM
     31         11  H    CARTESIAN X    -3.636583     -0.252298  KCAL/ANGSTROM
     32         11  H    CARTESIAN Y    -0.631607     -0.110049  KCAL/ANGSTROM
     33         11  H    CARTESIAN Z     1.042966     -0.044943  KCAL/ANGSTROM
     34         12  H    CARTESIAN X    -2.027360     -0.008719  KCAL/ANGSTROM
     35         12  H    CARTESIAN Y    -1.254502     -0.035687  KCAL/ANGSTROM
     36         12  H    CARTESIAN Z     1.426296     -0.106404  KCAL/ANGSTROM
     37         13  H    CARTESIAN X    -2.622915      0.115839  KCAL/ANGSTROM
     38         13  H    CARTESIAN Y     1.283823     -0.026004  KCAL/ANGSTROM
     39         13  H    CARTESIAN Z    -0.261680      0.084785  KCAL/ANGSTROM
     40         14  H    CARTESIAN X    -2.042589     -0.121137  KCAL/ANGSTROM
     41         14  H    CARTESIAN Y     1.281399      0.120190  KCAL/ANGSTROM
     42         14  H    CARTESIAN Z     1.436098     -0.139187  KCAL/ANGSTROM
     43         15  H    CARTESIAN X    -0.890066     -0.141443  KCAL/ANGSTROM
     44         15  H    CARTESIAN Y    -0.698984      0.089736  KCAL/ANGSTROM
     45         15  H    CARTESIAN Z    -1.618267      0.253647  KCAL/ANGSTROM
     46         16  H    CARTESIAN X    -0.510608     -0.160988  KCAL/ANGSTROM
     47         16  H    CARTESIAN Y     0.992862     -0.132066  KCAL/ANGSTROM
     48         16  H    CARTESIAN Z    -2.089254      0.181314  KCAL/ANGSTROM
     49         17  H    CARTESIAN X     1.739388      0.118702  KCAL/ANGSTROM
     50         17  H    CARTESIAN Y    -0.405612     -0.071348  KCAL/ANGSTROM
     51         17  H    CARTESIAN Z    -2.110721     -0.264502  KCAL/ANGSTROM
     52         18  H    CARTESIAN X     2.969943      0.151985  KCAL/ANGSTROM
     53         18  H    CARTESIAN Y    -0.859873      0.076744  KCAL/ANGSTROM
     54         18  H    CARTESIAN Z     1.374716     -0.089282  KCAL/ANGSTROM
     55         19  H    CARTESIAN X     3.717429     -0.024271  KCAL/ANGSTROM
     56         19  H    CARTESIAN Y    -0.339232      0.118044  KCAL/ANGSTROM
     57         19  H    CARTESIAN Z    -0.152280     -0.022120  KCAL/ANGSTROM
     58         20  H    CARTESIAN X     3.279937     -0.217077  KCAL/ANGSTROM
     59         20  H    CARTESIAN Y     0.852426     -0.004619  KCAL/ANGSTROM
     60         20  H    CARTESIAN Z     1.092751     -0.203465  KCAL/ANGSTROM




   ATOM   CHEMICAL          X               Y               Z
  NUMBER   SYMBOL      (ANGSTROMS)     (ANGSTROMS)     (ANGSTROMS)

     1       C         -2.60379467  *  -0.69078393  *   0.68107450  *
     2       C         -2.01445785  *   0.71018602  *   0.47358549  *
     3       N         -0.63263218  *   0.69045264  *   0.01444992  *
     4       C         -0.29794514  *   0.19777726  *  -1.34299571  *
     5       C          1.18255004  *  -0.10698867  *  -1.24436765  *
     6       C          1.61474484  *   0.07408129  *   0.01543904  *
     7       C          2.95536779  *  -0.07881274  *   0.59465227  *
     8       C          0.45622512  *   0.49899569  *   0.87798705  *
     9       O          0.42510150  *   0.70283469  *   2.06570962  *
    10       H         -2.60801829  *  -1.27559938  *  -0.24362704  *
    11       H         -3.63658265  *  -0.63160704  *   1.04296614  *
    12       H         -2.02736014  *  -1.25450221  *   1.42629559  *
    13       H         -2.62291458  *   1.28382266  *  -0.26167980  *
    14       H         -2.04258923  *   1.28139936  *   1.43609829  *
    15       H         -0.89006601  *  -0.69898445  *  -1.61826686  *
    16       H         -0.51060790  *   0.99286231  *  -2.08925379  *
    17       H          1.73938816  *  -0.40561177  *  -2.11072092  *
    18       H          2.96994296  *  -0.85987262  *   1.37471599  *
    19       H          3.71742881  *  -0.33923236  *  -0.15228030  *
    20       H          3.27993735  *   0.85242629  *   1.09275090  *

                             CARTESIAN COORDINATES

   1    C       -2.603794666    -0.690783925     0.681074504
   2    C       -2.014457853     0.710186017     0.473585492
   3    N       -0.632632177     0.690452638     0.014449919
   4    C       -0.297945143     0.197777263    -1.342995709
   5    C        1.182550037    -0.106988667    -1.244367648
   6    C        1.614744837     0.074081289     0.015439035
   7    C        2.955367792    -0.078812737     0.594652265
   8    C        0.456225115     0.498995693     0.877987048
   9    O        0.425101499     0.702834691     2.065709623
  10    H       -2.608018291    -1.275599380    -0.243627038
  11    H       -3.636582652    -0.631607040     1.042966140
  12    H       -2.027360140    -1.254502207     1.426295589
  13    H       -2.622914580     1.283822656    -0.261679802
  14    H       -2.042589230     1.281399361     1.436098290
  15    H       -0.890066007    -0.698984452    -1.618266865
  16    H       -0.510607897     0.992862312    -2.089253791
  17    H        1.739388159    -0.405611767    -2.110720920
  18    H        2.969942958    -0.859872624     1.374715994
  19    H        3.717428809    -0.339232356    -0.152280295
  20    H        3.279937349     0.852426293     1.092750902


           Empirical Formula: C7 H11 N O  =    20 atoms



      MOLECULAR POINT GROUP   :   C1  


                  EIGENVALUES  
 -36.70003 -30.20843 -29.18050 -26.70120 -25.55612 -23.59378 -21.89552 -19.93702
 -18.80146 -16.97185 -16.35018 -15.67014 -15.09242 -14.61827 -14.40460 -14.26784
 -13.89148 -13.42205 -13.04516 -12.99492 -12.85375 -12.03409 -10.29865 -10.18538
  -9.34310   0.05001   1.68982   2.09274   3.02864   3.54009   4.02331   4.25735
   4.63799   4.83343   5.00968   5.15737   5.35508   5.47282   5.55300   5.59372
   5.64893   5.74821   5.79328   5.88789   6.18264   6.72992   6.77075


              NET ATOMIC CHARGES AND DIPOLE CONTRIBUTIONS

  ATOM NO.   TYPE          CHARGE      No. of ELECS.   s-Pop       p-Pop       
    1          C          -0.479181        4.4792     1.05880     3.42038
    2          C          -0.035407        4.0354     1.06101     2.97439
    3          N          -0.510736        5.5107     1.60575     3.90498
    4          C          -0.090651        4.0907     1.06838     3.02227
    5          C          -0.184834        4.1848     1.10071     3.08412
    6          C          -0.066589        4.0666     1.08600     2.98059
    7          C          -0.430600        4.4306     1.04244     3.38816
    8          C           0.559800        3.4402     1.09115     2.34904
    9          O          -0.499730        6.4997     1.87733     4.62240
   10          H           0.143876        0.8561     0.85612
   11          H           0.154124        0.8459     0.84588
   12          H           0.161913        0.8381     0.83809
   13          H           0.136926        0.8631     0.86307
   14          H           0.164992        0.8350     0.83501
   15          H           0.149696        0.8503     0.85030
   16          H           0.159395        0.8406     0.84060
   17          H           0.163869        0.8361     0.83613
   18          H           0.172705        0.8273     0.82730
   19          H           0.155829        0.8442     0.84417
   20          H           0.174602        0.8254     0.82540
 DIPOLE           X         Y         Z       TOTAL
 POINT-CHG.    -0.535    -1.201    -3.629     3.860
 HYBRID        -0.188    -0.273     0.166     0.371
 SUM           -0.723    -1.474    -3.463     3.833


          ATOMIC ORBITAL ELECTRON POPULATIONS

     Atom    s        px        py        pz   
    1  C   1.05880   1.16241   1.07701   1.18096
    2  C   1.06101   0.82699   1.01858   1.12883
    3  N   1.60575   1.13017   1.64852   1.12629
    4  C   1.06838   1.01087   1.10820   0.90321
    5  C   1.10071   1.00602   1.02612   1.05198
    6  C   1.08600   0.98908   1.00170   0.98982
    7  C   1.04244   1.03740   1.19233   1.15843
    8  C   1.09115   0.82197   0.72606   0.80101
    9  O   1.87733   1.84553   1.53252   1.24435
   10  H   0.85612
   11  H   0.84588
   12  H   0.83809
   13  H   0.86307
   14  H   0.83501
   15  H   0.85030
   16  H   0.84060
   17  H   0.83613
   18  H   0.82730
   19  H   0.84417
   20  H   0.82540

 **********************
 *                    *
 * JOB ENDED NORMALLY *
 *                    *
 **********************



 TOTAL JOB TIME:             0.62 SECONDS

 == MOPAC DONE ==
