 *******************************************************************************
 **                                                                           **
 **                              MOPAC v23.2                                  **
 **                                                                           **
 *******************************************************************************
 **          Digital Object Identifier (DOI): 10.5281/zenodo.6511958          **
 **    Visit the DOI location for information on how to cite this program.    **
 *******************************************************************************

                              PM7 CALCULATION RESULTS

 *******************************************************************************
 *  CALCULATION DONE: (MAX THREADS = 40)             Fri Sep 19 21:32:45 2025  *
 *  PM7        - The PM7 Hamiltonian to be used
 *  1SCF       - DO 1 SCF AND THEN STOP 
 *  T=         - A TIME OF 172800.0 SECONDS REQUESTED
 *  DUMP=N     - RESTART FILE WRITTEN EVERY 7200.0 SECONDS REQUESTED
 *  RELSCF     - DEFAULT SCF CRITERION MULTIPLIED BY 0.0001
 *              (DEFAULT SCF CRITERION = 0.00010)
 *  GRADIENTS  - ALL GRADIENTS TO BE PRINTED
 *  DISP       - PRINT DISPERSION AND HYDROGEN BOND ENERGIES
 *******************************************************************************
PM7 1SCF GRADIENTS DISP RELSCF=0.0001
 Title: ASE calculation

   ATOM   CHEMICAL          X               Y               Z
  NUMBER   SYMBOL      (ANGSTROMS)     (ANGSTROMS)     (ANGSTROMS)

     1       C          2.32777311  *  -0.91524768  *   0.02567324  *
     2       C          1.00234665  *  -0.50360758  *   0.64642848  *
     3       O         -0.03113865  *  -1.12914067  *  -0.12632787  *
     4       C         -1.05223317  *  -0.20070863  *  -0.50671620  *
     5       C         -2.32239187  *  -0.53835780  *   0.25894259  *
     6       C         -0.52549817  *   1.18879068  *  -0.16522918  *
     7       O         -0.41977304  *   1.40347538  *   1.24725387  *
     8       C          0.76674543  *   0.99964964  *   0.55687557  *
     9       H          2.44353453  *  -0.50349761  *  -0.98444191  *
    10       H          2.38281041  *  -2.00877089  *  -0.07358244  *
    11       H          3.17953085  *  -0.58673459  *   0.63004662  *
    12       H          0.87182214  *  -0.88813890  *   1.68131552  *
    13       H         -1.16315909  *  -0.35618253  *  -1.60082650  *
    14       H         -2.17668962  *  -0.39896974  *   1.34018671  *
    15       H         -2.60265926  *  -1.58791546  *   0.10695896  *
    16       H         -3.16192152  *   0.09333236  *  -0.04868232  *
    17       H         -0.81855940  *   2.04395749  *  -0.75524970  *
    18       H          1.59795300  *   1.68990982  *   0.58684560  *



          CARTESIAN COORDINATES 

    NO.       ATOM           X           Y           Z

     1         C          2.3278     -0.9152      0.0257
     2         C          1.0023     -0.5036      0.6464
     3         O         -0.0311     -1.1291     -0.1263
     4         C         -1.0522     -0.2007     -0.5067
     5         C         -2.3224     -0.5384      0.2589
     6         C         -0.5255      1.1888     -0.1652
     7         O         -0.4198      1.4035      1.2473
     8         C          0.7667      0.9996      0.5569
     9         H          2.4435     -0.5035     -0.9844
    10         H          2.3828     -2.0088     -0.0736
    11         H          3.1795     -0.5867      0.6300
    12         H          0.8718     -0.8881      1.6813
    13         H         -1.1632     -0.3562     -1.6008
    14         H         -2.1767     -0.3990      1.3402
    15         H         -2.6027     -1.5879      0.1070
    16         H         -3.1619      0.0933     -0.0487
    17         H         -0.8186      2.0440     -0.7552
    18         H          1.5980      1.6899      0.5868

 General Reference for PM7:
 "Optimization of Parameters for Semiempirical Methods VI: More Modifications to the 
 NDDO Approximations and Re-optimization of Parameters", J. J. P. Stewart, J. Mol. Mod., 1:32, 19 (2013)
 https://link.springer.com/article/10.1007/s00894-012-1667-x

           Empirical Formula: C6 H10 O2  =    18 atoms



      MOLECULAR POINT GROUP   :   C1  


      RHF CALCULATION, NO. OF DOUBLY OCCUPIED LEVELS = 23

  SCF CRITERION =    0.1000E-07

 -------------------------------------------------------------------------------
 PM7 1SCF GRADIENTS DISP RELSCF=0.0001
 Title: ASE calculation



     1SCF WAS SPECIFIED, SO BFGS WAS NOT USED                 
     SCF FIELD WAS ACHIEVED                                   


                              PM7 CALCULATION
                                                       MOPAC v23.2 Linux
                                                       Fri Sep 19 21:32:46 2025




          FINAL HEAT OF FORMATION =        -60.00591 KCAL/MOL =    -251.06473 KJ/MOL

          TOTAL ENERGY            =     -33702.38134 KCAL/MOL = ELECTRONIC ENERGY + CORE-CORE REPULSION
          ENERGY OF ATOMS         =      33643.72257 KCAL/MOL
                              SUM =        -58.65877 KCAL/MOL
          DISPERSION ENERGY       =         -1.34714 KCAL/MOL
                              SUM =        -60.00591 KCAL/MOL = FINAL HEAT OF FORMATION



          TOTAL ENERGY            =      -1461.47358 EV
          ELECTRONIC ENERGY       =      -6818.11424 EV 
          CORE-CORE REPULSION     =       5356.64066 EV
          COSMO AREA              =        148.13 SQUARE ANGSTROMS
          COSMO VOLUME            =        143.87 CUBIC ANGSTROMS

          GRADIENT NORM           =          1.31042          =       0.30887 PER ATOM
          IONIZATION POTENTIAL    =          9.931041 EV
          HOMO LUMO ENERGIES (EV) =         -9.931  1.894
          NO. OF FILLED LEVELS    =         23
          MOLECULAR WEIGHT        =        114.1438         POINT GROUP:  C1  

          MOLECULAR DIMENSIONS (Angstroms)

            Atom       Atom       Distance
            H    16    H    11     6.41383
            H    17    H    15     3.93178
            O     7    H    13     3.14882


          SCF CALCULATIONS        =          1

          WALL-CLOCK TIME         =      0.727 SECONDS
          COMPUTATION TIME        =      0.854 SECONDS

          LARGEST ATOMIC GRADIENTS

          Atom     Label                     Cartesian Gradients           Cartesian Coordinates       |Gradient|
                                           X          Y          Z        X          Y          Z

             6       C                   0.106     -0.397     -0.120   -0.52550    1.18879   -0.16523      0.428
            17       H                   0.104     -0.308      0.259   -0.81856    2.04396   -0.75525      0.415
             3       O                   0.041     -0.169     -0.327   -0.03114   -1.12914   -0.12633      0.370
            18       H                   0.171      0.283     -0.150    1.59795    1.68991    0.58685      0.363
            11       H                   0.205      0.198     -0.223    3.17953   -0.58673    0.63005      0.362
             5       C                  -0.157      0.316     -0.003   -2.32239   -0.53836    0.25894      0.353
             9       H                  -0.046      0.248      0.239    2.44353   -0.50350   -0.98444      0.348
            16       H                  -0.186      0.251      0.139   -3.16192    0.09333   -0.04868      0.342
            13       H                   0.029     -0.230      0.242   -1.16316   -0.35618   -1.60083      0.335
             7       O                  -0.245     -0.118     -0.195   -0.41977    1.40348    1.24725      0.335



       FINAL  POINT  AND  DERIVATIVES

   PARAMETER     ATOM    TYPE            VALUE        GRADIENT
      1          1  C    CARTESIAN X     2.327773     -0.024292  KCAL/ANGSTROM
      2          1  C    CARTESIAN Y    -0.915248      0.007233  KCAL/ANGSTROM
      3          1  C    CARTESIAN Z     0.025673      0.198601  KCAL/ANGSTROM
      4          2  C    CARTESIAN X     1.002347     -0.099573  KCAL/ANGSTROM
      5          2  C    CARTESIAN Y    -0.503608     -0.186549  KCAL/ANGSTROM
      6          2  C    CARTESIAN Z     0.646428      0.030260  KCAL/ANGSTROM
      7          3  O    CARTESIAN X    -0.031139      0.040924  KCAL/ANGSTROM
      8          3  O    CARTESIAN Y    -1.129141     -0.168566  KCAL/ANGSTROM
      9          3  O    CARTESIAN Z    -0.126328     -0.326934  KCAL/ANGSTROM
     10          4  C    CARTESIAN X    -1.052233     -0.041105  KCAL/ANGSTROM
     11          4  C    CARTESIAN Y    -0.200709     -0.074354  KCAL/ANGSTROM
     12          4  C    CARTESIAN Z    -0.506716     -0.067052  KCAL/ANGSTROM
     13          5  C    CARTESIAN X    -2.322392     -0.157088  KCAL/ANGSTROM
     14          5  C    CARTESIAN Y    -0.538358      0.316387  KCAL/ANGSTROM
     15          5  C    CARTESIAN Z     0.258943     -0.003363  KCAL/ANGSTROM
     16          6  C    CARTESIAN X    -0.525498      0.105795  KCAL/ANGSTROM
     17          6  C    CARTESIAN Y     1.188791     -0.396896  KCAL/ANGSTROM
     18          6  C    CARTESIAN Z    -0.165229     -0.120296  KCAL/ANGSTROM
     19          7  O    CARTESIAN X    -0.419773     -0.245477  KCAL/ANGSTROM
     20          7  O    CARTESIAN Y     1.403475     -0.117984  KCAL/ANGSTROM
     21          7  O    CARTESIAN Z     1.247254     -0.194663  KCAL/ANGSTROM
     22          8  C    CARTESIAN X     0.766745      0.108084  KCAL/ANGSTROM
     23          8  C    CARTESIAN Y     0.999650     -0.126137  KCAL/ANGSTROM
     24          8  C    CARTESIAN Z     0.556876      0.284880  KCAL/ANGSTROM
     25          9  H    CARTESIAN X     2.443535     -0.046412  KCAL/ANGSTROM
     26          9  H    CARTESIAN Y    -0.503498      0.247980  KCAL/ANGSTROM
     27          9  H    CARTESIAN Z    -0.984442      0.239430  KCAL/ANGSTROM
     28         10  H    CARTESIAN X     2.382810      0.023378  KCAL/ANGSTROM
     29         10  H    CARTESIAN Y    -2.008771      0.050219  KCAL/ANGSTROM
     30         10  H    CARTESIAN Z    -0.073582     -0.110563  KCAL/ANGSTROM
     31         11  H    CARTESIAN X     3.179531      0.205072  KCAL/ANGSTROM
     32         11  H    CARTESIAN Y    -0.586735      0.198488  KCAL/ANGSTROM
     33         11  H    CARTESIAN Z     0.630047     -0.222589  KCAL/ANGSTROM
     34         12  H    CARTESIAN X     0.871822     -0.211542  KCAL/ANGSTROM
     35         12  H    CARTESIAN Y    -0.888139      0.006674  KCAL/ANGSTROM
     36         12  H    CARTESIAN Z     1.681316     -0.068125  KCAL/ANGSTROM
     37         13  H    CARTESIAN X    -1.163159      0.029470  KCAL/ANGSTROM
     38         13  H    CARTESIAN Y    -0.356183     -0.230289  KCAL/ANGSTROM
     39         13  H    CARTESIAN Z    -1.600826      0.241594  KCAL/ANGSTROM
     40         14  H    CARTESIAN X    -2.176690      0.111866  KCAL/ANGSTROM
     41         14  H    CARTESIAN Y    -0.398970      0.009242  KCAL/ANGSTROM
     42         14  H    CARTESIAN Z     1.340187     -0.146866  KCAL/ANGSTROM
     43         15  H    CARTESIAN X    -2.602659      0.112136  KCAL/ANGSTROM
     44         15  H    CARTESIAN Y    -1.587915      0.237780  KCAL/ANGSTROM
     45         15  H    CARTESIAN Z     0.106959      0.018419  KCAL/ANGSTROM
     46         16  H    CARTESIAN X    -3.161922     -0.186393  KCAL/ANGSTROM
     47         16  H    CARTESIAN Y     0.093332      0.251007  KCAL/ANGSTROM
     48         16  H    CARTESIAN Z    -0.048682      0.138650  KCAL/ANGSTROM
     49         17  H    CARTESIAN X    -0.818559      0.104318  KCAL/ANGSTROM
     50         17  H    CARTESIAN Y     2.043957     -0.307695  KCAL/ANGSTROM
     51         17  H    CARTESIAN Z    -0.755250      0.258560  KCAL/ANGSTROM
     52         18  H    CARTESIAN X     1.597953      0.170836  KCAL/ANGSTROM
     53         18  H    CARTESIAN Y     1.689910      0.283456  KCAL/ANGSTROM
     54         18  H    CARTESIAN Z     0.586846     -0.149950  KCAL/ANGSTROM




   ATOM   CHEMICAL          X               Y               Z
  NUMBER   SYMBOL      (ANGSTROMS)     (ANGSTROMS)     (ANGSTROMS)

     1       C          2.32777311  *  -0.91524768  *   0.02567324  *
     2       C          1.00234665  *  -0.50360758  *   0.64642848  *
     3       O         -0.03113865  *  -1.12914067  *  -0.12632787  *
     4       C         -1.05223317  *  -0.20070863  *  -0.50671620  *
     5       C         -2.32239187  *  -0.53835780  *   0.25894259  *
     6       C         -0.52549817  *   1.18879068  *  -0.16522918  *
     7       O         -0.41977304  *   1.40347538  *   1.24725387  *
     8       C          0.76674543  *   0.99964964  *   0.55687557  *
     9       H          2.44353453  *  -0.50349761  *  -0.98444191  *
    10       H          2.38281041  *  -2.00877089  *  -0.07358244  *
    11       H          3.17953085  *  -0.58673459  *   0.63004662  *
    12       H          0.87182214  *  -0.88813890  *   1.68131552  *
    13       H         -1.16315909  *  -0.35618253  *  -1.60082650  *
    14       H         -2.17668962  *  -0.39896974  *   1.34018671  *
    15       H         -2.60265926  *  -1.58791546  *   0.10695896  *
    16       H         -3.16192152  *   0.09333236  *  -0.04868232  *
    17       H         -0.81855940  *   2.04395749  *  -0.75524970  *
    18       H          1.59795300  *   1.68990982  *   0.58684560  *

                             CARTESIAN COORDINATES

   1    C        2.327773112    -0.915247683     0.025673243
   2    C        1.002346655    -0.503607584     0.646428477
   3    O       -0.031138651    -1.129140671    -0.126327870
   4    C       -1.052233170    -0.200708634    -0.506716199
   5    C       -2.322391870    -0.538357802     0.258942592
   6    C       -0.525498173     1.188790681    -0.165229183
   7    O       -0.419773040     1.403475375     1.247253873
   8    C        0.766745430     0.999649643     0.556875573
   9    H        2.443534532    -0.503497615    -0.984441907
  10    H        2.382810407    -2.008770892    -0.073582438
  11    H        3.179530851    -0.586734589     0.630046619
  12    H        0.871822135    -0.888138902     1.681315521
  13    H       -1.163159086    -0.356182532    -1.600826495
  14    H       -2.176689621    -0.398969738     1.340186714
  15    H       -2.602659256    -1.587915456     0.106958958
  16    H       -3.161921517     0.093332361    -0.048682315
  17    H       -0.818559395     2.043957490    -0.755249704
  18    H        1.597953004     1.689909815     0.586845605


           Empirical Formula: C6 H10 O2  =    18 atoms



      MOLECULAR POINT GROUP   :   C1  


                  EIGENVALUES  
 -32.70901 -29.27890 -27.62131 -26.02800 -24.10634 -22.39238 -20.51026 -20.15212
 -17.63194 -16.46548 -15.84262 -15.16417 -14.76041 -14.27759 -13.92678 -13.29717
 -13.06589 -12.78098 -12.55605 -12.04625 -11.68184 -10.39322  -9.93104   1.89358
   2.09551   2.25766   3.21542   3.65566   3.96008   4.19815   4.26492   4.67745
   5.31758   5.38477   5.47788   5.55946   5.63708   5.80697   5.86758   5.98459
   6.77526   7.01309


              NET ATOMIC CHARGES AND DIPOLE CONTRIBUTIONS

  ATOM NO.   TYPE          CHARGE      No. of ELECS.   s-Pop       p-Pop       
    1          C          -0.476953        4.4770     1.05682     3.42013
    2          C           0.118525        3.8815     1.08961     2.79186
    3          O          -0.427894        6.4279     1.88597     4.54193
    4          C           0.118922        3.8811     1.08918     2.79190
    5          C          -0.475573        4.4756     1.05709     3.41848
    6          C          -0.048774        4.0488     1.10291     2.94586
    7          O          -0.330380        6.3304     1.92304     4.40734
    8          C          -0.048433        4.0484     1.10342     2.94501
    9          H           0.158020        0.8420     0.84198
   10          H           0.167016        0.8330     0.83298
   11          H           0.152819        0.8472     0.84718
   12          H           0.145661        0.8543     0.85434
   13          H           0.137692        0.8623     0.86231
   14          H           0.170732        0.8293     0.82927
   15          H           0.160651        0.8393     0.83935
   16          H           0.151900        0.8481     0.84810
   17          H           0.161934        0.8381     0.83807
   18          H           0.164136        0.8359     0.83586
 DIPOLE           X         Y         Z       TOTAL
 POINT-CHG.     1.080     0.664    -1.587     2.031
 HYBRID        -0.239     0.111     0.466     0.535
 SUM            0.842     0.775    -1.121     1.602


          ATOMIC ORBITAL ELECTRON POPULATIONS

     Atom    s        px        py        pz   
    1  C   1.05682   1.06732   1.18935   1.16346
    2  C   1.08961   0.86771   0.91909   1.00506
    3  O   1.88597   1.39424   1.39068   1.75701
    4  C   1.08918   0.87593   0.87000   1.04597
    5  C   1.05709   1.07293   1.17633   1.16923
    6  C   1.10291   1.01828   1.05826   0.86932
    7  O   1.92304   1.32390   1.89432   1.18912
    8  C   1.10342   0.91637   1.03151   0.99713
    9  H   0.84198
   10  H   0.83298
   11  H   0.84718
   12  H   0.85434
   13  H   0.86231
   14  H   0.82927
   15  H   0.83935
   16  H   0.84810
   17  H   0.83807
   18  H   0.83586

 **********************
 *                    *
 * JOB ENDED NORMALLY *
 *                    *
 **********************



 TOTAL JOB TIME:             1.20 SECONDS

 == MOPAC DONE ==
