 *******************************************************************************
 **                                                                           **
 **                              MOPAC v23.2                                  **
 **                                                                           **
 *******************************************************************************
 **          Digital Object Identifier (DOI): 10.5281/zenodo.6511958          **
 **    Visit the DOI location for information on how to cite this program.    **
 *******************************************************************************

                              PM7 CALCULATION RESULTS

 *******************************************************************************
 *  CALCULATION DONE: (MAX THREADS = 40)             Fri Sep 19 21:32:31 2025  *
 *  PM7        - The PM7 Hamiltonian to be used
 *  1SCF       - DO 1 SCF AND THEN STOP 
 *  T=         - A TIME OF 172800.0 SECONDS REQUESTED
 *  DUMP=N     - RESTART FILE WRITTEN EVERY 7200.0 SECONDS REQUESTED
 *  RELSCF     - DEFAULT SCF CRITERION MULTIPLIED BY 0.0001
 *              (DEFAULT SCF CRITERION = 0.00010)
 *  GRADIENTS  - ALL GRADIENTS TO BE PRINTED
 *  DISP       - PRINT DISPERSION AND HYDROGEN BOND ENERGIES
 *******************************************************************************
PM7 1SCF GRADIENTS DISP RELSCF=0.0001
 Title: ASE calculation

   ATOM   CHEMICAL          X               Y               Z
  NUMBER   SYMBOL      (ANGSTROMS)     (ANGSTROMS)     (ANGSTROMS)

     1       N          0.86595079  *   1.87351551  *  -0.26932263  *
     2       C          0.95126330  *   0.60073794  *  -0.21598577  *
     3       N          2.21847376  *  -0.03847927  *  -0.27553276  *
     4       C          2.01821324  *  -1.43459685  *  -0.19647918  *
     5       N          0.76438065  *  -1.77458746  *  -0.09218916  *
     6       C         -0.05769757  *  -0.55897360  *  -0.09075857  *
     7       C         -1.07494246  *  -0.44973725  *   1.07874525  *
     8       C         -2.24065893  *  -0.39900221  *   0.05595818  *
     9       C         -1.22953851  *  -0.55173538  *  -1.11110618  *
    10       H         -0.02470846  *   2.33597197  *  -0.22808934  *
    11       H          3.08395109  *   0.45107643  *  -0.35974879  *
    12       H          2.86477890  *  -2.11561345  *  -0.22453314  *
    13       H         -0.95877771  *   0.43389593  *   1.70875331  *
    14       H         -1.08285227  *  -1.33315745  *   1.72946286  *
    15       H         -2.95147204  *  -1.22619185  *   0.14465445  *
    16       H         -2.80723553  *   0.53453841  *   0.05245203  *
    17       H         -1.20867723  *   0.26897513  *  -1.83022701  *
    18       H         -1.32287281  *  -1.49142458  *  -1.66979032  *



          CARTESIAN COORDINATES 

    NO.       ATOM           X           Y           Z

     1         N          0.8660      1.8735     -0.2693
     2         C          0.9513      0.6007     -0.2160
     3         N          2.2185     -0.0385     -0.2755
     4         C          2.0182     -1.4346     -0.1965
     5         N          0.7644     -1.7746     -0.0922
     6         C         -0.0577     -0.5590     -0.0908
     7         C         -1.0749     -0.4497      1.0787
     8         C         -2.2407     -0.3990      0.0560
     9         C         -1.2295     -0.5517     -1.1111
    10         H         -0.0247      2.3360     -0.2281
    11         H          3.0840      0.4511     -0.3597
    12         H          2.8648     -2.1156     -0.2245
    13         H         -0.9588      0.4339      1.7088
    14         H         -1.0829     -1.3332      1.7295
    15         H         -2.9515     -1.2262      0.1447
    16         H         -2.8072      0.5345      0.0525
    17         H         -1.2087      0.2690     -1.8302
    18         H         -1.3229     -1.4914     -1.6698

 General Reference for PM7:
 "Optimization of Parameters for Semiempirical Methods VI: More Modifications to the 
 NDDO Approximations and Re-optimization of Parameters", J. J. P. Stewart, J. Mol. Mod., 1:32, 19 (2013)
 https://link.springer.com/article/10.1007/s00894-012-1667-x

           Empirical Formula: C6 H9 N3  =    18 atoms



      MOLECULAR POINT GROUP   :   Cs  


      RHF CALCULATION, NO. OF DOUBLY OCCUPIED LEVELS = 24

  SCF CRITERION =    0.1000E-07

 -------------------------------------------------------------------------------
 PM7 1SCF GRADIENTS DISP RELSCF=0.0001
 Title: ASE calculation



     1SCF WAS SPECIFIED, SO BFGS WAS NOT USED                 
     SCF FIELD WAS ACHIEVED                                   


                              PM7 CALCULATION
                                                       MOPAC v23.2 Linux
                                                       Fri Sep 19 21:32:32 2025




          FINAL HEAT OF FORMATION =         51.20997 KCAL/MOL =     214.26251 KJ/MOL

          TOTAL ENERGY            =     -32653.87337 KCAL/MOL = ELECTRONIC ENERGY + CORE-CORE REPULSION
          ENERGY OF ATOMS         =      32707.06941 KCAL/MOL
                              SUM =         53.19605 KCAL/MOL
          DISPERSION ENERGY       =         -1.98608 KCAL/MOL
                              SUM =         51.20997 KCAL/MOL = FINAL HEAT OF FORMATION



          TOTAL ENERGY            =      -1416.00597 EV
          ELECTRONIC ENERGY       =      -7031.91467 EV 
          CORE-CORE REPULSION     =       5615.90870 EV
          COSMO AREA              =        157.95 SQUARE ANGSTROMS
          COSMO VOLUME            =        157.60 CUBIC ANGSTROMS

          GRADIENT NORM           =          1.06721          =       0.25154 PER ATOM
          IONIZATION POTENTIAL    =          9.490227 EV
          HOMO LUMO ENERGIES (EV) =         -9.490  0.108
          NO. OF FILLED LEVELS    =         24
          MOLECULAR WEIGHT        =        123.1572         POINT GROUP:  Cs  

          MOLECULAR DIMENSIONS (Angstroms)

            Atom       Atom       Distance
            H    15    H    11     6.28442
            H    12    H    10     5.06443
            H    17    H    13     3.55162


          SCF CALCULATIONS        =          1

          WALL-CLOCK TIME         =      0.711 SECONDS
          COMPUTATION TIME        =      1.257 SECONDS

          LARGEST ATOMIC GRADIENTS

          Atom     Label                     Cartesian Gradients           Cartesian Coordinates       |Gradient|
                                           X          Y          Z        X          Y          Z

            13       H                   0.260     -0.226      0.299   -0.95878    0.43390    1.70875      0.456
            17       H                   0.216     -0.253     -0.309   -1.20868    0.26898   -1.83023      0.454
            11       H                   0.360     -0.106     -0.021    3.08395    0.45108   -0.35975      0.376
            16       H                  -0.266     -0.169      0.026   -2.80724    0.53454    0.05245      0.316
            14       H                   0.052      0.214      0.220   -1.08285   -1.33316    1.72946      0.312
            18       H                   0.018      0.192     -0.243   -1.32287   -1.49142   -1.66979      0.310
             5       N                  -0.248     -0.108      0.023    0.76438   -1.77459   -0.09219      0.272
            12       H                   0.231      0.061     -0.019    2.86478   -2.11561   -0.22453      0.239
             2       C                  -0.108      0.150     -0.000    0.95126    0.60074   -0.21599      0.185
             6       C                  -0.162      0.004      0.011   -0.05770   -0.55897   -0.09076      0.162



       FINAL  POINT  AND  DERIVATIVES

   PARAMETER     ATOM    TYPE            VALUE        GRADIENT
      1          1  N    CARTESIAN X     0.865951      0.038737  KCAL/ANGSTROM
      2          1  N    CARTESIAN Y     1.873516      0.119402  KCAL/ANGSTROM
      3          1  N    CARTESIAN Z    -0.269323     -0.010064  KCAL/ANGSTROM
      4          2  C    CARTESIAN X     0.951263     -0.108266  KCAL/ANGSTROM
      5          2  C    CARTESIAN Y     0.600738      0.149848  KCAL/ANGSTROM
      6          2  C    CARTESIAN Z    -0.215986     -0.000230  KCAL/ANGSTROM
      7          3  N    CARTESIAN X     2.218474     -0.008800  KCAL/ANGSTROM
      8          3  N    CARTESIAN Y    -0.038479      0.119022  KCAL/ANGSTROM
      9          3  N    CARTESIAN Z    -0.275533     -0.005147  KCAL/ANGSTROM
     10          4  C    CARTESIAN X     2.018213     -0.138873  KCAL/ANGSTROM
     11          4  C    CARTESIAN Y    -1.434597      0.004677  KCAL/ANGSTROM
     12          4  C    CARTESIAN Z    -0.196479      0.009430  KCAL/ANGSTROM
     13          5  N    CARTESIAN X     0.764381     -0.248265  KCAL/ANGSTROM
     14          5  N    CARTESIAN Y    -1.774587     -0.107929  KCAL/ANGSTROM
     15          5  N    CARTESIAN Z    -0.092189      0.022813  KCAL/ANGSTROM
     16          6  C    CARTESIAN X    -0.057698     -0.161564  KCAL/ANGSTROM
     17          6  C    CARTESIAN Y    -0.558974      0.003964  KCAL/ANGSTROM
     18          6  C    CARTESIAN Z    -0.090759      0.011356  KCAL/ANGSTROM
     19          7  C    CARTESIAN X    -1.074942     -0.043278  KCAL/ANGSTROM
     20          7  C    CARTESIAN Y    -0.449737      0.044349  KCAL/ANGSTROM
     21          7  C    CARTESIAN Z     1.078745      0.034194  KCAL/ANGSTROM
     22          8  C    CARTESIAN X    -2.240659     -0.053000  KCAL/ANGSTROM
     23          8  C    CARTESIAN Y    -0.399002     -0.009827  KCAL/ANGSTROM
     24          8  C    CARTESIAN Z     0.055958      0.004838  KCAL/ANGSTROM
     25          9  C    CARTESIAN X    -1.229539     -0.048275  KCAL/ANGSTROM
     26          9  C    CARTESIAN Y    -0.551735      0.041488  KCAL/ANGSTROM
     27          9  C    CARTESIAN Z    -1.111106     -0.030931  KCAL/ANGSTROM
     28         10  H    CARTESIAN X    -0.024708     -0.003008  KCAL/ANGSTROM
     29         10  H    CARTESIAN Y     2.335972     -0.147930  KCAL/ANGSTROM
     30         10  H    CARTESIAN Z    -0.228089      0.006363  KCAL/ANGSTROM
     31         11  H    CARTESIAN X     3.083951      0.360261  KCAL/ANGSTROM
     32         11  H    CARTESIAN Y     0.451076     -0.105811  KCAL/ANGSTROM
     33         11  H    CARTESIAN Z    -0.359749     -0.021375  KCAL/ANGSTROM
     34         12  H    CARTESIAN X     2.864779      0.230632  KCAL/ANGSTROM
     35         12  H    CARTESIAN Y    -2.115613      0.061464  KCAL/ANGSTROM
     36         12  H    CARTESIAN Z    -0.224533     -0.019066  KCAL/ANGSTROM
     37         13  H    CARTESIAN X    -0.958778      0.259899  KCAL/ANGSTROM
     38         13  H    CARTESIAN Y     0.433896     -0.225971  KCAL/ANGSTROM
     39         13  H    CARTESIAN Z     1.708753      0.298573  KCAL/ANGSTROM
     40         14  H    CARTESIAN X    -1.082852      0.051989  KCAL/ANGSTROM
     41         14  H    CARTESIAN Y    -1.333157      0.214420  KCAL/ANGSTROM
     42         14  H    CARTESIAN Z     1.729463      0.220496  KCAL/ANGSTROM
     43         15  H    CARTESIAN X    -2.951472     -0.096219  KCAL/ANGSTROM
     44         15  H    CARTESIAN Y    -1.226192      0.068952  KCAL/ANGSTROM
     45         15  H    CARTESIAN Z     0.144654      0.004120  KCAL/ANGSTROM
     46         16  H    CARTESIAN X    -2.807236     -0.266079  KCAL/ANGSTROM
     47         16  H    CARTESIAN Y     0.534538     -0.169198  KCAL/ANGSTROM
     48         16  H    CARTESIAN Z     0.052452      0.026201  KCAL/ANGSTROM
     49         17  H    CARTESIAN X    -1.208677      0.215684  KCAL/ANGSTROM
     50         17  H    CARTESIAN Y     0.268975     -0.253305  KCAL/ANGSTROM
     51         17  H    CARTESIAN Z    -1.830227     -0.308859  KCAL/ANGSTROM
     52         18  H    CARTESIAN X    -1.322873      0.018422  KCAL/ANGSTROM
     53         18  H    CARTESIAN Y    -1.491425      0.192381  KCAL/ANGSTROM
     54         18  H    CARTESIAN Z    -1.669790     -0.242717  KCAL/ANGSTROM




   ATOM   CHEMICAL          X               Y               Z
  NUMBER   SYMBOL      (ANGSTROMS)     (ANGSTROMS)     (ANGSTROMS)

     1       N          0.86595079  *   1.87351551  *  -0.26932263  *
     2       C          0.95126330  *   0.60073794  *  -0.21598577  *
     3       N          2.21847376  *  -0.03847927  *  -0.27553276  *
     4       C          2.01821324  *  -1.43459685  *  -0.19647918  *
     5       N          0.76438065  *  -1.77458746  *  -0.09218916  *
     6       C         -0.05769757  *  -0.55897360  *  -0.09075857  *
     7       C         -1.07494246  *  -0.44973725  *   1.07874525  *
     8       C         -2.24065893  *  -0.39900221  *   0.05595818  *
     9       C         -1.22953851  *  -0.55173538  *  -1.11110618  *
    10       H         -0.02470846  *   2.33597197  *  -0.22808934  *
    11       H          3.08395109  *   0.45107643  *  -0.35974879  *
    12       H          2.86477890  *  -2.11561345  *  -0.22453314  *
    13       H         -0.95877771  *   0.43389593  *   1.70875331  *
    14       H         -1.08285227  *  -1.33315745  *   1.72946286  *
    15       H         -2.95147204  *  -1.22619185  *   0.14465445  *
    16       H         -2.80723553  *   0.53453841  *   0.05245203  *
    17       H         -1.20867723  *   0.26897513  *  -1.83022701  *
    18       H         -1.32287281  *  -1.49142458  *  -1.66979032  *

                             CARTESIAN COORDINATES

   1    N        0.865950789     1.873515505    -0.269322626
   2    C        0.951263295     0.600737940    -0.215985771
   3    N        2.218473759    -0.038479272    -0.275532758
   4    C        2.018213240    -1.434596853    -0.196479176
   5    N        0.764380648    -1.774587458    -0.092189156
   6    C       -0.057697573    -0.558973604    -0.090758567
   7    C       -1.074942465    -0.449737253     1.078745250
   8    C       -2.240658925    -0.399002206     0.055958179
   9    C       -1.229538510    -0.551735378    -1.111106178
  10    H       -0.024708463     2.335971969    -0.228089343
  11    H        3.083951093     0.451076431    -0.359748793
  12    H        2.864778899    -2.115613451    -0.224533137
  13    H       -0.958777713     0.433895930     1.708753310
  14    H       -1.082852268    -1.333157449     1.729462864
  15    H       -2.951472037    -1.226191854     0.144654453
  16    H       -2.807235529     0.534538414     0.052452033
  17    H       -1.208677234     0.268975129    -1.830227013
  18    H       -1.322872811    -1.491424580    -1.669790317


           Empirical Formula: C6 H9 N3  =    18 atoms



      MOLECULAR POINT GROUP   :   Cs  


                  EIGENVALUES  
 -38.62806 -35.35545 -33.76943 -30.18044 -24.42460 -23.41901 -21.86787 -21.32393
 -19.41803 -17.96087 -17.24402 -16.20409 -15.62485 -15.47905 -14.71649 -13.78673
 -13.21050 -12.39820 -12.27617 -12.01752 -11.80863 -11.78960 -10.14666  -9.49023
   0.10831   1.20318   1.63709   2.51299   2.89399   3.20227   3.27622   3.29124
   4.08769   4.21900   4.72293   4.86134   5.02924   5.35649   5.49835   5.90496
   6.16148   6.23266   6.29405   6.33908   6.80902


              NET ATOMIC CHARGES AND DIPOLE CONTRIBUTIONS

  ATOM NO.   TYPE          CHARGE      No. of ELECS.   s-Pop       p-Pop       
    1          N          -0.585815        5.5858     1.72113     3.86468
    2          C           0.337975        3.6620     1.08150     2.58052
    3          N          -0.568774        5.5688     1.55110     4.01768
    4          C           0.247561        3.7524     1.10774     2.64470
    5          N          -0.454011        5.4540     1.77746     3.67655
    6          C           0.096999        3.9030     1.08321     2.81979
    7          C          -0.274383        4.2744     1.07256     3.20182
    8          C          -0.269368        4.2694     1.06577     3.20360
    9          C          -0.274405        4.2744     1.07255     3.20186
   10          H           0.288078        0.7119     0.71192
   11          H           0.340748        0.6593     0.65925
   12          H           0.189809        0.8102     0.81019
   13          H           0.146957        0.8530     0.85304
   14          H           0.169178        0.8308     0.83082
   15          H           0.151582        0.8484     0.84842
   16          H           0.141748        0.8583     0.85825
   17          H           0.146951        0.8530     0.85305
   18          H           0.169172        0.8308     0.83083
 DIPOLE           X         Y         Z       TOTAL
 POINT-CHG.    -0.231    -0.738     0.050     0.775
 HYBRID         0.202     0.717    -0.048     0.747
 SUM           -0.029    -0.021     0.002     0.036


          ATOMIC ORBITAL ELECTRON POPULATIONS

     Atom    s        px        py        pz   
    1  N   1.72113   1.42756   1.14949   1.28764
    2  C   1.08150   0.84312   0.87625   0.86115
    3  N   1.55110   1.16770   1.13317   1.71681
    4  C   1.10774   0.95410   0.80800   0.88260
    5  N   1.77746   1.09381   1.31166   1.27108
    6  C   1.08321   0.92608   0.86376   1.02995
    7  C   1.07256   0.99582   1.17736   1.02864
    8  C   1.06577   1.03165   1.16717   1.00477
    9  C   1.07255   0.98998   1.17977   1.03211
   10  H   0.71192
   11  H   0.65925
   12  H   0.81019
   13  H   0.85304
   14  H   0.83082
   15  H   0.84842
   16  H   0.85825
   17  H   0.85305
   18  H   0.83083

 **********************
 *                    *
 * JOB ENDED NORMALLY *
 *                    *
 **********************



 TOTAL JOB TIME:             1.09 SECONDS

 == MOPAC DONE ==
