 *******************************************************************************
 **                                                                           **
 **                              MOPAC v23.2                                  **
 **                                                                           **
 *******************************************************************************
 **          Digital Object Identifier (DOI): 10.5281/zenodo.6511958          **
 **    Visit the DOI location for information on how to cite this program.    **
 *******************************************************************************

                              PM7 CALCULATION RESULTS

 *******************************************************************************
 *  CALCULATION DONE: (MAX THREADS = 40)             Fri Sep 19 21:37:24 2025  *
 *  PM7        - The PM7 Hamiltonian to be used
 *
 *
 *
 *                 CHARGE ON SYSTEM = +1
 *
 *
 *
 *  1SCF       - DO 1 SCF AND THEN STOP 
 *  T=         - A TIME OF 172800.0 SECONDS REQUESTED
 *  DUMP=N     - RESTART FILE WRITTEN EVERY 7200.0 SECONDS REQUESTED
 *  RELSCF     - DEFAULT SCF CRITERION MULTIPLIED BY 0.0001
 *              (DEFAULT SCF CRITERION = 0.00010)
 *  GRADIENTS  - ALL GRADIENTS TO BE PRINTED
 *  DISP       - PRINT DISPERSION AND HYDROGEN BOND ENERGIES
 *******************************************************************************
PM7 1SCF GRADIENTS DISP RELSCF=0.0001 CHARGE=1
 Title: ASE calculation

   ATOM   CHEMICAL          X               Y               Z
  NUMBER   SYMBOL      (ANGSTROMS)     (ANGSTROMS)     (ANGSTROMS)

     1       C         -1.85724201  *  -0.08506143  *  -0.45931710  *
     2       C         -0.49690115  *  -0.17825050  *  -1.06623679  *
     3       C          0.60298915  *   0.84210584  *  -0.80296992  *
     4       C          0.44144651  *   1.78167532  *   0.37055391  *
     5       O          0.36196005  *   0.97153706  *   1.56914003  *
     6       C          0.52584418  *  -0.33748552  *   1.35148395  *
     7       O          0.53146769  *  -1.21560861  *   2.14129853  *
     8       C          0.73574861  *  -0.56518949  *  -0.23419789  *
     9       N          1.63754466  *  -1.55551158  *  -0.52614383  *
    10       H         -2.52023592  *   0.56326855  *  -1.06464643  *
    11       H         -1.88430375  *   0.32231824  *   0.56144160  *
    12       H         -2.35922920  *  -1.06844558  *  -0.42031874  *
    13       H         -0.53409145  *  -0.60218324  *  -2.09028099  *
    14       H          1.20670310  *   1.21926469  *  -1.63529929  *
    15       H          1.30561703  *   2.45740703  *   0.53516407  *
    16       H         -0.49996574  *   2.37055252  *   0.35710409  *
    17       H          1.32676676  *  -2.51188000  *  -0.65436283  *
    18       H          2.63303926  *  -1.37710189  *  -0.53398050  *



          CARTESIAN COORDINATES 

    NO.       ATOM           X           Y           Z

     1         C         -1.8572     -0.0851     -0.4593
     2         C         -0.4969     -0.1783     -1.0662
     3         C          0.6030      0.8421     -0.8030
     4         C          0.4414      1.7817      0.3706
     5         O          0.3620      0.9715      1.5691
     6         C          0.5258     -0.3375      1.3515
     7         O          0.5315     -1.2156      2.1413
     8         C          0.7357     -0.5652     -0.2342
     9         N          1.6375     -1.5555     -0.5261
    10         H         -2.5202      0.5633     -1.0646
    11         H         -1.8843      0.3223      0.5614
    12         H         -2.3592     -1.0684     -0.4203
    13         H         -0.5341     -0.6022     -2.0903
    14         H          1.2067      1.2193     -1.6353
    15         H          1.3056      2.4574      0.5352
    16         H         -0.5000      2.3706      0.3571
    17         H          1.3268     -2.5119     -0.6544
    18         H          2.6330     -1.3771     -0.5340

 General Reference for PM7:
 "Optimization of Parameters for Semiempirical Methods VI: More Modifications to the 
 NDDO Approximations and Re-optimization of Parameters", J. J. P. Stewart, J. Mol. Mod., 1:32, 19 (2013)
 https://link.springer.com/article/10.1007/s00894-012-1667-x

           Empirical Formula: C6 H9 N O2  =    18 atoms



      MOLECULAR POINT GROUP   :   C1  


          UHF CALCULATION, NO. OF ALPHA ELECTRONS =   25
                           NO. OF BETA  ELECTRONS =   24
  SCF CRITERION =    0.1000E-07

 -------------------------------------------------------------------------------
 PM7 1SCF GRADIENTS DISP RELSCF=0.0001 CHARGE=1
 Title: ASE calculation



     1SCF WAS SPECIFIED, SO BFGS WAS NOT USED                 
     SCF FIELD WAS ACHIEVED                                   


                              PM7 CALCULATION
                                                       MOPAC v23.2 Linux
                                                       Fri Sep 19 21:37:24 2025




          FINAL HEAT OF FORMATION =        145.50525 KCAL/MOL =     608.79397 KJ/MOL

          TOTAL ENERGY            =     -37491.68216 KCAL/MOL = ELECTRONIC ENERGY + CORE-CORE REPULSION
          ENERGY OF ATOMS         =      37638.97832 KCAL/MOL
                              SUM =        147.29615 KCAL/MOL
          DISPERSION ENERGY       =         -1.79090 KCAL/MOL
                              SUM =        145.50525 KCAL/MOL = FINAL HEAT OF FORMATION



          TOTAL ENERGY            =      -1625.79321 EV
          ELECTRONIC ENERGY       =      -7776.99449 EV 
          CORE-CORE REPULSION     =       6151.20127 EV
          COSMO AREA              =        153.84 SQUARE ANGSTROMS
          COSMO VOLUME            =        151.48 CUBIC ANGSTROMS

          GRADIENT NORM           =          0.91533          =       0.21574 PER ATOM
          IONIZATION POTENTIAL    =         15.353594 EV
          ALPHA SOMO LUMO (EV)    =        -15.354 -4.237
          BETA  SOMO LUMO (EV)    =        -15.659 -7.613
          NO. OF ALPHA ELECTRONS  =         25
          NO. OF BETA  ELECTRONS  =         24
          MOLECULAR WEIGHT        =        127.1426         POINT GROUP:  C1  

          MOLECULAR DIMENSIONS (Angstroms)

            Atom       Atom       Distance
            H    18    H    10     5.53199
            H    17    H    15     4.83646
            O     7    H    14     4.29257


          SCF CALCULATIONS        =          1

          WALL-CLOCK TIME         =      0.570 SECONDS
          COMPUTATION TIME        =      0.637 SECONDS

          LARGEST ATOMIC GRADIENTS

          Atom     Label                     Cartesian Gradients           Cartesian Coordinates       |Gradient|
                                           X          Y          Z        X          Y          Z

             8       C                  -0.221      0.022      0.222    0.73575   -0.56519   -0.23420      0.314
             3       C                  -0.273      0.094     -0.107    0.60299    0.84211   -0.80297      0.308
             5       O                  -0.046      0.027      0.290    0.36196    0.97154    1.56914      0.295
            14       H                   0.238     -0.091     -0.056    1.20670    1.21926   -1.63530      0.261
             2       C                  -0.136     -0.205     -0.078   -0.49690   -0.17825   -1.06624      0.258
            12       H                   0.058      0.050     -0.238   -2.35923   -1.06845   -0.42032      0.250
            18       H                   0.185     -0.041     -0.144    2.63304   -1.37710   -0.53398      0.238
             4       C                   0.039     -0.019      0.218    0.44145    1.78168    0.37055      0.222
             6       C                   0.039     -0.185      0.093    0.52584   -0.33749    1.35148      0.211
            15       H                   0.087      0.163     -0.086    1.30562    2.45741    0.53516      0.204



       FINAL  POINT  AND  DERIVATIVES

   PARAMETER     ATOM    TYPE            VALUE        GRADIENT
      1          1  C    CARTESIAN X    -1.857242     -0.069840  KCAL/ANGSTROM
      2          1  C    CARTESIAN Y    -0.085061     -0.019216  KCAL/ANGSTROM
      3          1  C    CARTESIAN Z    -0.459317     -0.036766  KCAL/ANGSTROM
      4          2  C    CARTESIAN X    -0.496901     -0.135660  KCAL/ANGSTROM
      5          2  C    CARTESIAN Y    -0.178251     -0.205249  KCAL/ANGSTROM
      6          2  C    CARTESIAN Z    -1.066237     -0.077767  KCAL/ANGSTROM
      7          3  C    CARTESIAN X     0.602989     -0.272607  KCAL/ANGSTROM
      8          3  C    CARTESIAN Y     0.842106      0.094216  KCAL/ANGSTROM
      9          3  C    CARTESIAN Z    -0.802970     -0.107423  KCAL/ANGSTROM
     10          4  C    CARTESIAN X     0.441447      0.038642  KCAL/ANGSTROM
     11          4  C    CARTESIAN Y     1.781675     -0.018598  KCAL/ANGSTROM
     12          4  C    CARTESIAN Z     0.370554      0.217777  KCAL/ANGSTROM
     13          5  O    CARTESIAN X     0.361960     -0.046360  KCAL/ANGSTROM
     14          5  O    CARTESIAN Y     0.971537      0.027054  KCAL/ANGSTROM
     15          5  O    CARTESIAN Z     1.569140      0.290416  KCAL/ANGSTROM
     16          6  C    CARTESIAN X     0.525844      0.039342  KCAL/ANGSTROM
     17          6  C    CARTESIAN Y    -0.337486     -0.185285  KCAL/ANGSTROM
     18          6  C    CARTESIAN Z     1.351484      0.093437  KCAL/ANGSTROM
     19          7  O    CARTESIAN X     0.531468      0.094210  KCAL/ANGSTROM
     20          7  O    CARTESIAN Y    -1.215609      0.181044  KCAL/ANGSTROM
     21          7  O    CARTESIAN Z     2.141299      0.008271  KCAL/ANGSTROM
     22          8  C    CARTESIAN X     0.735749     -0.220688  KCAL/ANGSTROM
     23          8  C    CARTESIAN Y    -0.565189      0.021601  KCAL/ANGSTROM
     24          8  C    CARTESIAN Z    -0.234198      0.221791  KCAL/ANGSTROM
     25          9  N    CARTESIAN X     1.637545     -0.062150  KCAL/ANGSTROM
     26          9  N    CARTESIAN Y    -1.555512      0.088759  KCAL/ANGSTROM
     27          9  N    CARTESIAN Z    -0.526144      0.132106  KCAL/ANGSTROM
     28         10  H    CARTESIAN X    -2.520236     -0.055861  KCAL/ANGSTROM
     29         10  H    CARTESIAN Y     0.563269     -0.011027  KCAL/ANGSTROM
     30         10  H    CARTESIAN Z    -1.064646      0.130677  KCAL/ANGSTROM
     31         11  H    CARTESIAN X    -1.884304      0.061903  KCAL/ANGSTROM
     32         11  H    CARTESIAN Y     0.322318      0.106302  KCAL/ANGSTROM
     33         11  H    CARTESIAN Z     0.561442     -0.039024  KCAL/ANGSTROM
     34         12  H    CARTESIAN X    -2.359229      0.057848  KCAL/ANGSTROM
     35         12  H    CARTESIAN Y    -1.068446      0.049565  KCAL/ANGSTROM
     36         12  H    CARTESIAN Z    -0.420319     -0.238271  KCAL/ANGSTROM
     37         13  H    CARTESIAN X    -0.534091     -0.001526  KCAL/ANGSTROM
     38         13  H    CARTESIAN Y    -0.602183     -0.020088  KCAL/ANGSTROM
     39         13  H    CARTESIAN Z    -2.090281     -0.040418  KCAL/ANGSTROM
     40         14  H    CARTESIAN X     1.206703      0.237955  KCAL/ANGSTROM
     41         14  H    CARTESIAN Y     1.219265     -0.090616  KCAL/ANGSTROM
     42         14  H    CARTESIAN Z    -1.635299     -0.056204  KCAL/ANGSTROM
     43         15  H    CARTESIAN X     1.305617      0.086937  KCAL/ANGSTROM
     44         15  H    CARTESIAN Y     2.457407      0.163466  KCAL/ANGSTROM
     45         15  H    CARTESIAN Z     0.535164     -0.086391  KCAL/ANGSTROM
     46         16  H    CARTESIAN X    -0.499966     -0.001939  KCAL/ANGSTROM
     47         16  H    CARTESIAN Y     2.370553     -0.046601  KCAL/ANGSTROM
     48         16  H    CARTESIAN Z     0.357104     -0.122204  KCAL/ANGSTROM
     49         17  H    CARTESIAN X     1.326767      0.064653  KCAL/ANGSTROM
     50         17  H    CARTESIAN Y    -2.511880     -0.094475  KCAL/ANGSTROM
     51         17  H    CARTESIAN Z    -0.654363     -0.145741  KCAL/ANGSTROM
     52         18  H    CARTESIAN X     2.633039      0.185140  KCAL/ANGSTROM
     53         18  H    CARTESIAN Y    -1.377102     -0.040855  KCAL/ANGSTROM
     54         18  H    CARTESIAN Z    -0.533981     -0.144271  KCAL/ANGSTROM




   ATOM   CHEMICAL          X               Y               Z
  NUMBER   SYMBOL      (ANGSTROMS)     (ANGSTROMS)     (ANGSTROMS)

     1       C         -1.85724201  *  -0.08506143  *  -0.45931710  *
     2       C         -0.49690115  *  -0.17825050  *  -1.06623679  *
     3       C          0.60298915  *   0.84210584  *  -0.80296992  *
     4       C          0.44144651  *   1.78167532  *   0.37055391  *
     5       O          0.36196005  *   0.97153706  *   1.56914003  *
     6       C          0.52584418  *  -0.33748552  *   1.35148395  *
     7       O          0.53146769  *  -1.21560861  *   2.14129853  *
     8       C          0.73574861  *  -0.56518949  *  -0.23419789  *
     9       N          1.63754466  *  -1.55551158  *  -0.52614383  *
    10       H         -2.52023592  *   0.56326855  *  -1.06464643  *
    11       H         -1.88430375  *   0.32231824  *   0.56144160  *
    12       H         -2.35922920  *  -1.06844558  *  -0.42031874  *
    13       H         -0.53409145  *  -0.60218324  *  -2.09028099  *
    14       H          1.20670310  *   1.21926469  *  -1.63529929  *
    15       H          1.30561703  *   2.45740703  *   0.53516407  *
    16       H         -0.49996574  *   2.37055252  *   0.35710409  *
    17       H          1.32676676  *  -2.51188000  *  -0.65436283  *
    18       H          2.63303926  *  -1.37710189  *  -0.53398050  *

                             CARTESIAN COORDINATES

   1    C       -1.857242008    -0.085061432    -0.459317103
   2    C       -0.496901152    -0.178250503    -1.066236793
   3    C        0.602989151     0.842105841    -0.802969924
   4    C        0.441446514     1.781675320     0.370553910
   5    O        0.361960047     0.971537060     1.569140032
   6    C        0.525844178    -0.337485520     1.351483947
   7    O        0.531467692    -1.215608611     2.141298534
   8    C        0.735748605    -0.565189487    -0.234197890
   9    N        1.637544661    -1.555511585    -0.526143828
  10    H       -2.520235922     0.563268546    -1.064646425
  11    H       -1.884303753     0.322318245     0.561441598
  12    H       -2.359229201    -1.068445575    -0.420318740
  13    H       -0.534091447    -0.602183243    -2.090280991
  14    H        1.206703096     1.219264692    -1.635299293
  15    H        1.305617028     2.457407033     0.535164074
  16    H       -0.499965737     2.370552521     0.357104093
  17    H        1.326766758    -2.511879996    -0.654362831
  18    H        2.633039262    -1.377101885    -0.533980500


           Empirical Formula: C6 H9 N O2  =    18 atoms



      MOLECULAR POINT GROUP   :   C1  


          ALPHA EIGENVALUES  
 -43.43535 -37.44360 -36.98397 -34.62763 -30.23697 -29.50727 -27.43742 -26.20858
 -24.92892 -23.80285 -22.84816 -21.66653 -21.08366 -20.71951 -19.83861 -19.54029
 -18.91654 -18.36527 -18.18268 -18.00822 -17.25361 -16.65499 -16.24136 -15.78062
 -15.35359  -4.23675  -3.78787  -3.58541  -3.41563  -3.07001  -2.06968  -1.61715
  -1.14603  -0.67048  -0.49476  -0.32345  -0.04626   0.12839   0.61287   0.79251
   0.88799   1.19948   1.53547   1.55594   2.73958


           BETA EIGENVALUES 
 -41.83712 -37.28458 -36.63833 -34.46372 -30.21744 -29.37571 -27.14622 -25.96377
 -24.57421 -23.58818 -22.74804 -21.50336 -20.81620 -20.40235 -19.73668 -19.20094
 -18.74111 -18.30369 -17.95527 -17.16693 -16.62473 -16.22674 -15.79663 -15.65942
  -7.61252  -4.07825  -3.56423  -3.37930  -3.09091  -2.87027  -1.99214  -1.60596
  -1.12588  -0.45751  -0.39556  -0.19909   0.09022   0.42249   0.61960   0.79895
   0.89232   1.20462   1.53840   1.55727   2.74072


              NET ATOMIC CHARGES AND DIPOLE CONTRIBUTIONS

  ATOM NO.   TYPE          CHARGE      No. of ELECS.   s-Pop       p-Pop       
    1          C          -0.466958        4.4670     1.04960     3.41736
    2          C          -0.029842        4.0298     1.07281     2.95703
    3          C          -0.165259        4.1653     1.08389     3.08137
    4          C          -0.039783        4.0398     1.10673     2.93306
    5          O          -0.274410        6.2744     1.87156     4.40285
    6          C           0.576816        3.4232     1.12561     2.29758
    7          O          -0.260890        6.2609     1.87566     4.38523
    8          C          -0.223960        4.2240     1.07134     3.15262
    9          N          -0.094239        5.0942     1.49983     3.59441
   10          H           0.195918        0.8041     0.80408
   11          H           0.175754        0.8242     0.82425
   12          H           0.188267        0.8117     0.81173
   13          H           0.185492        0.8145     0.81451
   14          H           0.202850        0.7972     0.79715
   15          H           0.184502        0.8155     0.81550
   16          H           0.192958        0.8070     0.80704
   17          H           0.329993        0.6700     0.67001
   18          H           0.322792        0.6772     0.67721
 DIPOLE           X         Y         Z       TOTAL
 POINT-CHG.     2.604    -1.170    -5.585     6.273
 HYBRID         0.707    -0.780     0.138     1.062
 SUM            3.311    -1.950    -5.448     6.667


          ATOMIC ORBITAL ELECTRON POPULATIONS

     Atom    s        px        py        pz   
    1  C   1.04960   1.01862   1.21954   1.17920
    2  C   1.07281   0.91852   0.98316   1.05535
    3  C   1.08389   1.09393   0.89939   1.08804
    4  C   1.10673   1.19245   0.95009   0.79052
    5  O   1.87156   1.81330   1.22118   1.36836
    6  C   1.12561   0.71400   0.79760   0.78598
    7  O   1.87566   1.47804   1.42870   1.47849
    8  C   1.07134   1.09127   0.99936   1.06198
    9  N   1.49983   1.18625   1.18490   1.22326
   10  H   0.80408
   11  H   0.82425
   12  H   0.81173
   13  H   0.81451
   14  H   0.79715
   15  H   0.81550
   16  H   0.80704
   17  H   0.67001
   18  H   0.67721


                    (SZ)    =    0.500000
                    (S**2)  =    0.769176


          ATOMIC ORBITAL SPIN POPULATIONS

    Atom   Total    s     px     py     pz   
         Atomic
    1  C -0.0012 -0.000 -0.001  0.000  0.000
    2  C  0.0318  0.001  0.003  0.015  0.013
    3  C  0.0478  0.001  0.020  0.021  0.007
    4  C -0.0072  0.000 -0.000 -0.003 -0.004
    5  O  0.0562 -0.001 -0.000  0.037  0.021
    6  C  0.0456  0.011 -0.005 -0.011  0.050
    7  O  0.1165  0.003  0.008  0.013  0.092
    8  C -0.0661 -0.014 -0.024 -0.025 -0.003
    9  N  0.8463  0.036  0.039  0.056  0.716
   10  H  0.0012  0.001
   11  H  0.0001  0.000
   12  H  0.0005  0.001
   13  H -0.0000 -0.000
   14  H -0.0019 -0.002
   15  H  0.0001  0.000
   16  H  0.0020  0.002
   17  H -0.0359 -0.036
   18  H -0.0357 -0.036

 **********************
 *                    *
 * JOB ENDED NORMALLY *
 *                    *
 **********************



 TOTAL JOB TIME:             1.02 SECONDS

 == MOPAC DONE ==
