 *******************************************************************************
 **                                                                           **
 **                              MOPAC v23.2                                  **
 **                                                                           **
 *******************************************************************************
 **          Digital Object Identifier (DOI): 10.5281/zenodo.6511958          **
 **    Visit the DOI location for information on how to cite this program.    **
 *******************************************************************************

                              PM7 CALCULATION RESULTS

 *******************************************************************************
 *  CALCULATION DONE: (MAX THREADS = 40)             Fri Sep 19 21:27:50 2025  *
 *  PM7        - The PM7 Hamiltonian to be used
 *  1SCF       - DO 1 SCF AND THEN STOP 
 *  T=         - A TIME OF 172800.0 SECONDS REQUESTED
 *  DUMP=N     - RESTART FILE WRITTEN EVERY 7200.0 SECONDS REQUESTED
 *  RELSCF     - DEFAULT SCF CRITERION MULTIPLIED BY 0.0001
 *              (DEFAULT SCF CRITERION = 0.00010)
 *  GRADIENTS  - ALL GRADIENTS TO BE PRINTED
 *  DISP       - PRINT DISPERSION AND HYDROGEN BOND ENERGIES
 *******************************************************************************
PM7 1SCF GRADIENTS DISP RELSCF=0.0001
 Title: ASE calculation

   ATOM   CHEMICAL          X               Y               Z
  NUMBER   SYMBOL      (ANGSTROMS)     (ANGSTROMS)     (ANGSTROMS)

     1       N         -2.83314367  *   1.45581088  *   0.94670349  *
     2       C         -1.89552928  *   0.69822845  *   0.54774791  *
     3       C         -0.48535689  *   0.42024544  *   1.01978199  *
     4       C          0.02250613  *  -0.59768607  *   0.04545008  *
     5       N          1.16131197  *  -1.18890362  *  -0.03002602  *
     6       O          2.03541215  *  -0.79605392  *   0.96633344  *
     7       C         -1.08335285  *  -0.87396763  *  -0.94062967  *
     8       O         -2.19882715  *  -0.05642576  *  -0.56805287  *
     9       H         -2.74521128  *   2.05497092  *   1.74426972  *
    10       H         -0.46321007  *   0.04008257  *   2.06224376  *
    11       H          0.14052166  *   1.33678609  *   1.02247569  *
    12       H          2.85583691  *  -1.34351667  *   0.76255360  *
    13       H         -1.44677846  *  -1.91836321  *  -0.91140076  *
    14       H         -0.82800534  *  -0.58803723  *  -1.97830760  *



          CARTESIAN COORDINATES 

    NO.       ATOM           X           Y           Z

     1         N         -2.8331      1.4558      0.9467
     2         C         -1.8955      0.6982      0.5477
     3         C         -0.4854      0.4202      1.0198
     4         C          0.0225     -0.5977      0.0455
     5         N          1.1613     -1.1889     -0.0300
     6         O          2.0354     -0.7961      0.9663
     7         C         -1.0834     -0.8740     -0.9406
     8         O         -2.1988     -0.0564     -0.5681
     9         H         -2.7452      2.0550      1.7443
    10         H         -0.4632      0.0401      2.0622
    11         H          0.1405      1.3368      1.0225
    12         H          2.8558     -1.3435      0.7626
    13         H         -1.4468     -1.9184     -0.9114
    14         H         -0.8280     -0.5880     -1.9783

 General Reference for PM7:
 "Optimization of Parameters for Semiempirical Methods VI: More Modifications to the 
 NDDO Approximations and Re-optimization of Parameters", J. J. P. Stewart, J. Mol. Mod., 1:32, 19 (2013)
 https://link.springer.com/article/10.1007/s00894-012-1667-x

           Empirical Formula: C4 H6 N2 O2  =    14 atoms



      MOLECULAR POINT GROUP   :   Cs  


      RHF CALCULATION, NO. OF DOUBLY OCCUPIED LEVELS = 22

  SCF CRITERION =    0.1000E-07

 -------------------------------------------------------------------------------
 PM7 1SCF GRADIENTS DISP RELSCF=0.0001
 Title: ASE calculation



     1SCF WAS SPECIFIED, SO BFGS WAS NOT USED                 
     SCF FIELD WAS ACHIEVED                                   


                              PM7 CALCULATION
                                                       MOPAC v23.2 Linux
                                                       Fri Sep 19 21:27:50 2025




          FINAL HEAT OF FORMATION =        -22.79346 KCAL/MOL =     -95.36783 KJ/MOL

          TOTAL ENERGY            =     -35363.54090 KCAL/MOL = ELECTRONIC ENERGY + CORE-CORE REPULSION
          ENERGY OF ATOMS         =      35341.90304 KCAL/MOL
                              SUM =        -21.63786 KCAL/MOL
          DISPERSION ENERGY       =         -1.15560 KCAL/MOL
                              SUM =        -22.79346 KCAL/MOL = FINAL HEAT OF FORMATION



          TOTAL ENERGY            =      -1533.50827 EV
          ELECTRONIC ENERGY       =      -6209.11597 EV 
          CORE-CORE REPULSION     =       4675.60770 EV
          COSMO AREA              =        141.18 SQUARE ANGSTROMS
          COSMO VOLUME            =        129.61 CUBIC ANGSTROMS

          GRADIENT NORM           =          0.65828          =       0.17593 PER ATOM
          IONIZATION POTENTIAL    =         10.379567 EV
          HOMO LUMO ENERGIES (EV) =        -10.380  0.163
          NO. OF FILLED LEVELS    =         22
          MOLECULAR WEIGHT        =        114.1036         POINT GROUP:  Cs  

          MOLECULAR DIMENSIONS (Angstroms)

            Atom       Atom       Distance
            H    12    H     9     6.62459
            H    10    H    14     4.05936
            H    11    H    13     3.21478


          SCF CALCULATIONS        =          1

          WALL-CLOCK TIME         =      0.594 SECONDS
          COMPUTATION TIME        =      0.606 SECONDS

          LARGEST ATOMIC GRADIENTS

          Atom     Label                     Cartesian Gradients           Cartesian Coordinates       |Gradient|
                                           X          Y          Z        X          Y          Z

             5       N                  -0.286      0.042     -0.124    1.16131   -1.18890   -0.03003      0.315
             7       C                  -0.253     -0.011     -0.161   -1.08335   -0.87397   -0.94063      0.300
             1       N                   0.200     -0.145     -0.054   -2.83314    1.45581    0.94670      0.253
             6       O                   0.184     -0.071      0.008    2.03541   -0.79605    0.96633      0.198
            12       H                   0.024      0.094      0.124    2.85584   -1.34352    0.76255      0.157
             3       C                  -0.028      0.094      0.103   -0.48536    0.42025    1.01978      0.142
             8       O                  -0.026      0.088      0.091   -2.19883   -0.05643   -0.56805      0.129
            13       H                   0.112      0.055     -0.011   -1.44678   -1.91836   -0.91140      0.125
            14       H                   0.052     -0.071      0.087   -0.82801   -0.58804   -1.97831      0.124
             2       C                   0.113     -0.035      0.029   -1.89553    0.69823    0.54775      0.122



       FINAL  POINT  AND  DERIVATIVES

   PARAMETER     ATOM    TYPE            VALUE        GRADIENT
      1          1  N    CARTESIAN X    -2.833144      0.199857  KCAL/ANGSTROM
      2          1  N    CARTESIAN Y     1.455811     -0.144692  KCAL/ANGSTROM
      3          1  N    CARTESIAN Z     0.946703     -0.053868  KCAL/ANGSTROM
      4          2  C    CARTESIAN X    -1.895529      0.112743  KCAL/ANGSTROM
      5          2  C    CARTESIAN Y     0.698228     -0.035132  KCAL/ANGSTROM
      6          2  C    CARTESIAN Z     0.547748      0.029205  KCAL/ANGSTROM
      7          3  C    CARTESIAN X    -0.485357     -0.027681  KCAL/ANGSTROM
      8          3  C    CARTESIAN Y     0.420245      0.094234  KCAL/ANGSTROM
      9          3  C    CARTESIAN Z     1.019782      0.102673  KCAL/ANGSTROM
     10          4  C    CARTESIAN X     0.022506      0.002082  KCAL/ANGSTROM
     11          4  C    CARTESIAN Y    -0.597686     -0.024896  KCAL/ANGSTROM
     12          4  C    CARTESIAN Z     0.045450     -0.033867  KCAL/ANGSTROM
     13          5  N    CARTESIAN X     1.161312     -0.286292  KCAL/ANGSTROM
     14          5  N    CARTESIAN Y    -1.188904      0.041688  KCAL/ANGSTROM
     15          5  N    CARTESIAN Z    -0.030026     -0.124178  KCAL/ANGSTROM
     16          6  O    CARTESIAN X     2.035412      0.184199  KCAL/ANGSTROM
     17          6  O    CARTESIAN Y    -0.796054     -0.070864  KCAL/ANGSTROM
     18          6  O    CARTESIAN Z     0.966333      0.008387  KCAL/ANGSTROM
     19          7  C    CARTESIAN X    -1.083353     -0.252510  KCAL/ANGSTROM
     20          7  C    CARTESIAN Y    -0.873968     -0.010932  KCAL/ANGSTROM
     21          7  C    CARTESIAN Z    -0.940630     -0.161026  KCAL/ANGSTROM
     22          8  O    CARTESIAN X    -2.198827     -0.025813  KCAL/ANGSTROM
     23          8  O    CARTESIAN Y    -0.056426      0.087953  KCAL/ANGSTROM
     24          8  O    CARTESIAN Z    -0.568053      0.091416  KCAL/ANGSTROM
     25          9  H    CARTESIAN X    -2.745211     -0.021161  KCAL/ANGSTROM
     26          9  H    CARTESIAN Y     2.054971     -0.057859  KCAL/ANGSTROM
     27          9  H    CARTESIAN Z     1.744270     -0.070510  KCAL/ANGSTROM
     28         10  H    CARTESIAN X    -0.463210     -0.002444  KCAL/ANGSTROM
     29         10  H    CARTESIAN Y     0.040083      0.094796  KCAL/ANGSTROM
     30         10  H    CARTESIAN Z     2.062244     -0.052273  KCAL/ANGSTROM
     31         11  H    CARTESIAN X     0.140522     -0.070760  KCAL/ANGSTROM
     32         11  H    CARTESIAN Y     1.336786     -0.051936  KCAL/ANGSTROM
     33         11  H    CARTESIAN Z     1.022476      0.063842  KCAL/ANGSTROM
     34         12  H    CARTESIAN X     2.855837      0.023541  KCAL/ANGSTROM
     35         12  H    CARTESIAN Y    -1.343517      0.093935  KCAL/ANGSTROM
     36         12  H    CARTESIAN Z     0.762554      0.124124  KCAL/ANGSTROM
     37         13  H    CARTESIAN X    -1.446778      0.111942  KCAL/ANGSTROM
     38         13  H    CARTESIAN Y    -1.918363      0.054580  KCAL/ANGSTROM
     39         13  H    CARTESIAN Z    -0.911401     -0.011253  KCAL/ANGSTROM
     40         14  H    CARTESIAN X    -0.828005      0.052294  KCAL/ANGSTROM
     41         14  H    CARTESIAN Y    -0.588037     -0.070878  KCAL/ANGSTROM
     42         14  H    CARTESIAN Z    -1.978308      0.087325  KCAL/ANGSTROM




   ATOM   CHEMICAL          X               Y               Z
  NUMBER   SYMBOL      (ANGSTROMS)     (ANGSTROMS)     (ANGSTROMS)

     1       N         -2.83314367  *   1.45581088  *   0.94670349  *
     2       C         -1.89552928  *   0.69822845  *   0.54774791  *
     3       C         -0.48535689  *   0.42024544  *   1.01978199  *
     4       C          0.02250613  *  -0.59768607  *   0.04545008  *
     5       N          1.16131197  *  -1.18890362  *  -0.03002602  *
     6       O          2.03541215  *  -0.79605392  *   0.96633344  *
     7       C         -1.08335285  *  -0.87396763  *  -0.94062967  *
     8       O         -2.19882715  *  -0.05642576  *  -0.56805287  *
     9       H         -2.74521128  *   2.05497092  *   1.74426972  *
    10       H         -0.46321007  *   0.04008257  *   2.06224376  *
    11       H          0.14052166  *   1.33678609  *   1.02247569  *
    12       H          2.85583691  *  -1.34351667  *   0.76255360  *
    13       H         -1.44677846  *  -1.91836321  *  -0.91140076  *
    14       H         -0.82800534  *  -0.58803723  *  -1.97830760  *

                             CARTESIAN COORDINATES

   1    N       -2.833143668     1.455810883     0.946703491
   2    C       -1.895529277     0.698228450     0.547747913
   3    C       -0.485356888     0.420245436     1.019781990
   4    C        0.022506125    -0.597686074     0.045450080
   5    N        1.161311970    -1.188903625    -0.030026024
   6    O        2.035412153    -0.796053916     0.966333439
   7    C       -1.083352848    -0.873967627    -0.940629674
   8    O       -2.198827146    -0.056425759    -0.568052870
   9    H       -2.745211278     2.054970921     1.744269723
  10    H       -0.463210067     0.040082566     2.062243762
  11    H        0.140521658     1.336786085     1.022475692
  12    H        2.855836914    -1.343516668     0.762553598
  13    H       -1.446778461    -1.918363211    -0.911400764
  14    H       -0.828005335    -0.588037235    -1.978307600


           Empirical Formula: C4 H6 N2 O2  =    14 atoms



      MOLECULAR POINT GROUP   :   Cs  


                  EIGENVALUES  
 -35.56340 -35.08202 -31.43253 -29.19951 -27.02745 -25.14072 -21.33282 -19.87563
 -17.98165 -17.75729 -17.34866 -16.38021 -15.65203 -15.01686 -14.45292 -13.98089
 -13.61641 -12.96170 -11.63984 -10.67949 -10.52309 -10.37957   0.16267   0.89749
   1.04893   1.28240   2.40240   3.01692   3.33525   3.92482   4.29433   4.49845
   4.52156   4.82750   4.97669   5.19468   5.38548   6.85041


              NET ATOMIC CHARGES AND DIPOLE CONTRIBUTIONS

  ATOM NO.   TYPE          CHARGE      No. of ELECS.   s-Pop       p-Pop       
    1          N          -0.569904        5.5699     1.71006     3.85985
    2          C           0.402394        3.5976     1.08550     2.51211
    3          C          -0.392696        4.3927     1.07086     3.32184
    4          C           0.083757        3.9162     1.08780     2.82845
    5          N          -0.182893        5.1829     1.79283     3.39006
    6          O          -0.318226        6.3182     1.90411     4.41412
    7          C          -0.060099        4.0601     1.09401     2.96609
    8          O          -0.296516        6.2965     1.88100     4.41551
    9          H           0.291605        0.7084     0.70839
   10          H           0.195055        0.8049     0.80494
   11          H           0.195058        0.8049     0.80494
   12          H           0.317619        0.6824     0.68238
   13          H           0.167424        0.8326     0.83258
   14          H           0.167422        0.8326     0.83258
 DIPOLE           X         Y         Z       TOTAL
 POINT-CHG.     2.709    -0.972     0.365     2.901
 HYBRID         0.676     0.607     1.149     1.465
 SUM            3.386    -0.365     1.514     3.727


          ATOMIC ORBITAL ELECTRON POPULATIONS

     Atom    s        px        py        pz   
    1  N   1.71006   1.36309   1.19637   1.30039
    2  C   1.08550   0.83859   0.84586   0.82766
    3  C   1.07086   1.06973   1.12758   1.12453
    4  C   1.08780   0.92155   0.94010   0.96681
    5  N   1.79283   1.06022   1.21536   1.11448
    6  O   1.90411   1.33993   1.64947   1.42472
    7  C   1.09401   0.87021   1.04016   1.05572
    8  O   1.88100   1.37304   1.56725   1.47523
    9  H   0.70839
   10  H   0.80494
   11  H   0.80494
   12  H   0.68238
   13  H   0.83258
   14  H   0.83258

 **********************
 *                    *
 * JOB ENDED NORMALLY *
 *                    *
 **********************



 TOTAL JOB TIME:             0.99 SECONDS

 == MOPAC DONE ==
