 *******************************************************************************
 **                                                                           **
 **                              MOPAC v23.2                                  **
 **                                                                           **
 *******************************************************************************
 **          Digital Object Identifier (DOI): 10.5281/zenodo.6511958          **
 **    Visit the DOI location for information on how to cite this program.    **
 *******************************************************************************

                              PM7 CALCULATION RESULTS

 *******************************************************************************
 *  CALCULATION DONE: (MAX THREADS = 40)             Fri Sep 19 21:32:04 2025  *
 *  PM7        - The PM7 Hamiltonian to be used
 *  EPS=37.5   - USE ANDREAS KLAMT'S COSMO IMPLICIT SOLVATION MODEL
 *  1SCF       - DO 1 SCF AND THEN STOP 
 *  T=         - A TIME OF 172800.0 SECONDS REQUESTED
 *  DUMP=N     - RESTART FILE WRITTEN EVERY 7200.0 SECONDS REQUESTED
 *  RELSCF     - DEFAULT SCF CRITERION MULTIPLIED BY 0.0001
 *              (DEFAULT SCF CRITERION = 0.00010)
 *  GRADIENTS  - ALL GRADIENTS TO BE PRINTED
 *  DISP       - PRINT DISPERSION AND HYDROGEN BOND ENERGIES
 *******************************************************************************
PM7 1SCF GRADIENTS EPS=37.5 DISP RELSCF=0.0001
 Title: ASE calculation

   ATOM   CHEMICAL          X               Y               Z
  NUMBER   SYMBOL      (ANGSTROMS)     (ANGSTROMS)     (ANGSTROMS)

     1       C         -2.43516978  *  -0.01359222  *   0.41172453  *
     2       C         -1.04592820  *  -0.60326509  *   0.26834367  *
     3       C         -0.38963131  *  -0.50567257  *  -1.16036150  *
     4       C         -0.18298185  *   1.02250275  *  -1.31423604  *
     5       C          0.16659992  *   1.49499530  *   0.12852879  *
     6       C          0.12487544  *   0.18959292  *   0.96274693  *
     7       C          1.29793322  *  -0.73267148  *   0.57805116  *
     8       C          2.20219706  *  -0.39955639  *  -0.58551892  *
     9       C          0.95072661  *  -1.20186896  *  -0.85468747  *
    10       H         -2.49046748  *   1.03020202  *   0.08306618  *
    11       H         -3.16201663  *  -0.58137298  *  -0.18260343  *
    12       H         -2.76477529  *  -0.04396923  *   1.45784743  *
    13       H         -1.06965558  *  -1.65587621  *   0.61873059  *
    14       H         -0.95855286  *  -0.96153520  *  -1.97274417  *
    15       H          0.61075947  *   1.25691182  *  -2.03644671  *
    16       H         -1.09530603  *   1.51009873  *  -1.68560038  *
    17       H         -0.56598161  *   2.22562602  *   0.49939412  *
    18       H          1.14866616  *   1.98397596  *   0.18348420  *
    19       H          0.01285564  *   0.35135782  *   2.03644671  *
    20       H          1.65070025  *  -1.38983855  *   1.36043083  *
    21       H          2.31724798  *   0.61613031  *  -0.94609224  *
    22       H          3.16201663  *  -0.90946773  *  -0.65115466  *
    23       H          1.03214332  *  -2.22562602  *  -1.19185880  *



          CARTESIAN COORDINATES 

    NO.       ATOM           X           Y           Z

     1         C         -2.4352     -0.0136      0.4117
     2         C         -1.0459     -0.6033      0.2683
     3         C         -0.3896     -0.5057     -1.1604
     4         C         -0.1830      1.0225     -1.3142
     5         C          0.1666      1.4950      0.1285
     6         C          0.1249      0.1896      0.9627
     7         C          1.2979     -0.7327      0.5781
     8         C          2.2022     -0.3996     -0.5855
     9         C          0.9507     -1.2019     -0.8547
    10         H         -2.4905      1.0302      0.0831
    11         H         -3.1620     -0.5814     -0.1826
    12         H         -2.7648     -0.0440      1.4578
    13         H         -1.0697     -1.6559      0.6187
    14         H         -0.9586     -0.9615     -1.9727
    15         H          0.6108      1.2569     -2.0364
    16         H         -1.0953      1.5101     -1.6856
    17         H         -0.5660      2.2256      0.4994
    18         H          1.1487      1.9840      0.1835
    19         H          0.0129      0.3514      2.0364
    20         H          1.6507     -1.3898      1.3604
    21         H          2.3172      0.6161     -0.9461
    22         H          3.1620     -0.9095     -0.6512
    23         H          1.0321     -2.2256     -1.1919

 General Reference for PM7:
 "Optimization of Parameters for Semiempirical Methods VI: More Modifications to the 
 NDDO Approximations and Re-optimization of Parameters", J. J. P. Stewart, J. Mol. Mod., 1:32, 19 (2013)
 https://link.springer.com/article/10.1007/s00894-012-1667-x

           Empirical Formula: C9 H14  =    23 atoms



      MOLECULAR POINT GROUP   :   Cs  


      RHF CALCULATION, NO. OF DOUBLY OCCUPIED LEVELS = 25

  SCF CRITERION =    0.1000E-07

 -------------------------------------------------------------------------------
 PM7 1SCF GRADIENTS EPS=37.5 DISP RELSCF=0.0001
 Title: ASE calculation



     1SCF WAS SPECIFIED, SO BFGS WAS NOT USED                 
     SCF FIELD WAS ACHIEVED                                   


                              PM7 CALCULATION
                                                       MOPAC v23.2 Linux
                                                       Fri Sep 19 21:32:05 2025




          FINAL HEAT OF FORMATION =         21.37229 KCAL/MOL =      89.42168 KJ/MOL

          TOTAL ENERGY            =     -29828.98653 KCAL/MOL = ELECTRONIC ENERGY + CORE-CORE REPULSION + SOLVATION ENERGY
          ENERGY OF ATOMS         =      29852.41387 KCAL/MOL
                              SUM =         23.42734 KCAL/MOL
          DISPERSION ENERGY       =         -2.05505 KCAL/MOL
                              SUM =         21.37229 KCAL/MOL = FINAL HEAT OF FORMATION

          VAN DER WAALS AREA      =        162.09 SQUARE ANGSTROMS


          TOTAL ENERGY            =      -1293.50728 EV
          ELECTRONIC ENERGY       =      -2425.52988 EV 
          CORE-CORE REPULSION     =       1132.02259 EV

          DIELECTRIC ENERGY       =         -0.07239 EV
          COSMO AREA              =        162.09 SQUARE ANGSTROMS
          COSMO VOLUME            =        169.29 CUBIC ANGSTROMS

          GRADIENT NORM           =          3.30528          =       0.68920 PER ATOM
          IONIZATION POTENTIAL    =         10.379253 EV
          HOMO LUMO ENERGIES (EV) =        -10.379  2.223
          NO. OF FILLED LEVELS    =         25
          MOLECULAR WEIGHT        =        122.2096         POINT GROUP:  Cs  

          MOLECULAR DIMENSIONS (Angstroms)

            Atom       Atom       Distance
            H    22    H    12     6.35011
            H    16    H    20     4.63027
            H    23    H    18     4.14130


          SCF CALCULATIONS        =          2

          WALL-CLOCK TIME         =      0.984 SECONDS
          COMPUTATION TIME        =      1.135 SECONDS

          LARGEST ATOMIC GRADIENTS

          Atom     Label                     Cartesian Gradients           Cartesian Coordinates       |Gradient|
                                           X          Y          Z        X          Y          Z

             1       C                  -1.298      0.703      0.144   -2.43517   -0.01359    0.41172      1.484
             8       C                   1.021      0.600     -0.443    2.20220   -0.39956   -0.58552      1.265
            22       H                  -0.757      0.375      0.071    3.16202   -0.90947   -0.65115      0.848
             9       C                  -0.166     -0.742     -0.316    0.95073   -1.20187   -0.85469      0.823
             7       C                   0.051     -0.395      0.693    1.29793   -0.73267    0.57805      0.799
            21       H                   0.048     -0.731      0.232    2.31725    0.61613   -0.94609      0.768
             5       C                  -0.133      0.661      0.014    0.16660    1.49500    0.12853      0.674
             4       C                  -0.209      0.536     -0.343   -0.18298    1.02250   -1.31424      0.670
            12       H                   0.431     -0.485      0.042   -2.76478   -0.04397    1.45785      0.650
             3       C                  -0.439     -0.469      0.024   -0.38963   -0.50567   -1.16036      0.643



       FINAL  POINT  AND  DERIVATIVES

   PARAMETER     ATOM    TYPE            VALUE        GRADIENT
      1          1  C    CARTESIAN X    -2.435170     -1.298438  KCAL/ANGSTROM
      2          1  C    CARTESIAN Y    -0.013592      0.702949  KCAL/ANGSTROM
      3          1  C    CARTESIAN Z     0.411725      0.144435  KCAL/ANGSTROM
      4          2  C    CARTESIAN X    -1.045928     -0.096175  KCAL/ANGSTROM
      5          2  C    CARTESIAN Y    -0.603265     -0.376666  KCAL/ANGSTROM
      6          2  C    CARTESIAN Z     0.268344      0.158157  KCAL/ANGSTROM
      7          3  C    CARTESIAN X    -0.389631     -0.439218  KCAL/ANGSTROM
      8          3  C    CARTESIAN Y    -0.505673     -0.468508  KCAL/ANGSTROM
      9          3  C    CARTESIAN Z    -1.160361      0.023937  KCAL/ANGSTROM
     10          4  C    CARTESIAN X    -0.182982     -0.209072  KCAL/ANGSTROM
     11          4  C    CARTESIAN Y     1.022503      0.535856  KCAL/ANGSTROM
     12          4  C    CARTESIAN Z    -1.314236     -0.343017  KCAL/ANGSTROM
     13          5  C    CARTESIAN X     0.166600     -0.132700  KCAL/ANGSTROM
     14          5  C    CARTESIAN Y     1.494995      0.660869  KCAL/ANGSTROM
     15          5  C    CARTESIAN Z     0.128529      0.013774  KCAL/ANGSTROM
     16          6  C    CARTESIAN X     0.124875     -0.292309  KCAL/ANGSTROM
     17          6  C    CARTESIAN Y     0.189593     -0.310040  KCAL/ANGSTROM
     18          6  C    CARTESIAN Z     0.962747      0.427999  KCAL/ANGSTROM
     19          7  C    CARTESIAN X     1.297933      0.051098  KCAL/ANGSTROM
     20          7  C    CARTESIAN Y    -0.732671     -0.395231  KCAL/ANGSTROM
     21          7  C    CARTESIAN Z     0.578051      0.692512  KCAL/ANGSTROM
     22          8  C    CARTESIAN X     2.202197      1.021360  KCAL/ANGSTROM
     23          8  C    CARTESIAN Y    -0.399556      0.600494  KCAL/ANGSTROM
     24          8  C    CARTESIAN Z    -0.585519     -0.442721  KCAL/ANGSTROM
     25          9  C    CARTESIAN X     0.950727     -0.166422  KCAL/ANGSTROM
     26          9  C    CARTESIAN Y    -1.201869     -0.741886  KCAL/ANGSTROM
     27          9  C    CARTESIAN Z    -0.854687     -0.315988  KCAL/ANGSTROM
     28         10  H    CARTESIAN X    -2.490467     -0.085535  KCAL/ANGSTROM
     29         10  H    CARTESIAN Y     1.030202     -0.049797  KCAL/ANGSTROM
     30         10  H    CARTESIAN Z     0.083066      0.031345  KCAL/ANGSTROM
     31         11  H    CARTESIAN X    -3.162017      0.402865  KCAL/ANGSTROM
     32         11  H    CARTESIAN Y    -0.581373     -0.478590  KCAL/ANGSTROM
     33         11  H    CARTESIAN Z    -0.182603      0.003076  KCAL/ANGSTROM
     34         12  H    CARTESIAN X    -2.764775      0.431473  KCAL/ANGSTROM
     35         12  H    CARTESIAN Y    -0.043969     -0.484713  KCAL/ANGSTROM
     36         12  H    CARTESIAN Z     1.457847      0.042029  KCAL/ANGSTROM
     37         13  H    CARTESIAN X    -1.069656      0.319614  KCAL/ANGSTROM
     38         13  H    CARTESIAN Y    -1.655876      0.130984  KCAL/ANGSTROM
     39         13  H    CARTESIAN Z     0.618731     -0.136962  KCAL/ANGSTROM
     40         14  H    CARTESIAN X    -0.958553      0.247025  KCAL/ANGSTROM
     41         14  H    CARTESIAN Y    -0.961535      0.195985  KCAL/ANGSTROM
     42         14  H    CARTESIAN Z    -1.972744      0.014604  KCAL/ANGSTROM
     43         15  H    CARTESIAN X     0.610759      0.057338  KCAL/ANGSTROM
     44         15  H    CARTESIAN Y     1.256912     -0.266120  KCAL/ANGSTROM
     45         15  H    CARTESIAN Z    -2.036447     -0.090254  KCAL/ANGSTROM
     46         16  H    CARTESIAN X    -1.095306      0.522656  KCAL/ANGSTROM
     47         16  H    CARTESIAN Y     1.510099      0.037810  KCAL/ANGSTROM
     48         16  H    CARTESIAN Z    -1.685600     -0.049380  KCAL/ANGSTROM
     49         17  H    CARTESIAN X    -0.565982      0.471307  KCAL/ANGSTROM
     50         17  H    CARTESIAN Y     2.225626     -0.015200  KCAL/ANGSTROM
     51         17  H    CARTESIAN Z     0.499394     -0.203786  KCAL/ANGSTROM
     52         18  H    CARTESIAN X     1.148666      0.131433  KCAL/ANGSTROM
     53         18  H    CARTESIAN Y     1.983976     -0.192157  KCAL/ANGSTROM
     54         18  H    CARTESIAN Z     0.183484      0.208214  KCAL/ANGSTROM
     55         19  H    CARTESIAN X     0.012856      0.160024  KCAL/ANGSTROM
     56         19  H    CARTESIAN Y     0.351358      0.120135  KCAL/ANGSTROM
     57         19  H    CARTESIAN Z     2.036447     -0.222844  KCAL/ANGSTROM
     58         20  H    CARTESIAN X     1.650700     -0.201075  KCAL/ANGSTROM
     59         20  H    CARTESIAN Y    -1.389839      0.566742  KCAL/ANGSTROM
     60         20  H    CARTESIAN Z     1.360431     -0.138435  KCAL/ANGSTROM
     61         21  H    CARTESIAN X     2.317248      0.047704  KCAL/ANGSTROM
     62         21  H    CARTESIAN Y     0.616130     -0.730600  KCAL/ANGSTROM
     63         21  H    CARTESIAN Z    -0.946092      0.232022  KCAL/ANGSTROM
     64         22  H    CARTESIAN X     3.162017     -0.757052  KCAL/ANGSTROM
     65         22  H    CARTESIAN Y    -0.909468      0.375331  KCAL/ANGSTROM
     66         22  H    CARTESIAN Z    -0.651155      0.070991  KCAL/ANGSTROM
     67         23  H    CARTESIAN X     1.032143     -0.185903  KCAL/ANGSTROM
     68         23  H    CARTESIAN Y    -2.225626      0.582349  KCAL/ANGSTROM
     69         23  H    CARTESIAN Z    -1.191859     -0.119715  KCAL/ANGSTROM




   ATOM   CHEMICAL          X               Y               Z
  NUMBER   SYMBOL      (ANGSTROMS)     (ANGSTROMS)     (ANGSTROMS)

     1       C         -2.43516978  *  -0.01359222  *   0.41172453  *
     2       C         -1.04592820  *  -0.60326509  *   0.26834367  *
     3       C         -0.38963131  *  -0.50567257  *  -1.16036150  *
     4       C         -0.18298185  *   1.02250275  *  -1.31423604  *
     5       C          0.16659992  *   1.49499530  *   0.12852879  *
     6       C          0.12487544  *   0.18959292  *   0.96274693  *
     7       C          1.29793322  *  -0.73267148  *   0.57805116  *
     8       C          2.20219706  *  -0.39955639  *  -0.58551892  *
     9       C          0.95072661  *  -1.20186896  *  -0.85468747  *
    10       H         -2.49046748  *   1.03020202  *   0.08306618  *
    11       H         -3.16201663  *  -0.58137298  *  -0.18260343  *
    12       H         -2.76477529  *  -0.04396923  *   1.45784743  *
    13       H         -1.06965558  *  -1.65587621  *   0.61873059  *
    14       H         -0.95855286  *  -0.96153520  *  -1.97274417  *
    15       H          0.61075947  *   1.25691182  *  -2.03644671  *
    16       H         -1.09530603  *   1.51009873  *  -1.68560038  *
    17       H         -0.56598161  *   2.22562602  *   0.49939412  *
    18       H          1.14866616  *   1.98397596  *   0.18348420  *
    19       H          0.01285564  *   0.35135782  *   2.03644671  *
    20       H          1.65070025  *  -1.38983855  *   1.36043083  *
    21       H          2.31724798  *   0.61613031  *  -0.94609224  *
    22       H          3.16201663  *  -0.90946773  *  -0.65115466  *
    23       H          1.03214332  *  -2.22562602  *  -1.19185880  *

                             CARTESIAN COORDINATES

   1    C       -2.435169780    -0.013592223     0.411724529
   2    C       -1.045928199    -0.603265086     0.268343675
   3    C       -0.389631314    -0.505672567    -1.160361497
   4    C       -0.182981852     1.022502749    -1.314236041
   5    C        0.166599920     1.494995305     0.128528785
   6    C        0.124875436     0.189592916     0.962746932
   7    C        1.297933222    -0.732671481     0.578051159
   8    C        2.202197062    -0.399556385    -0.585518917
   9    C        0.950726609    -1.201868962    -0.854687472
  10    H       -2.490467477     1.030202020     0.083066179
  11    H       -3.162016632    -0.581372978    -0.182603429
  12    H       -2.764775287    -0.043969227     1.457847429
  13    H       -1.069655580    -1.655876207     0.618730586
  14    H       -0.958552863    -0.961535200    -1.972744174
  15    H        0.610759475     1.256911823    -2.036446711
  16    H       -1.095306027     1.510098728    -1.685600376
  17    H       -0.565981613     2.225626023     0.499394121
  18    H        1.148666157     1.983975961     0.183484199
  19    H        0.012855639     0.351357817     2.036446711
  20    H        1.650700248    -1.389838550     1.360430830
  21    H        2.317247980     0.616130313    -0.946092236
  22    H        3.162016632    -0.909467727    -0.651154661
  23    H        1.032143322    -2.225626023    -1.191858805


           Empirical Formula: C9 H14  =    23 atoms



      MOLECULAR POINT GROUP   :   Cs  


                  EIGENVALUES  
 -32.60038 -28.11240 -25.67923 -24.72846 -23.75490 -20.31565 -19.66894 -18.45822
 -17.78766 -17.67079 -16.95564 -15.02030 -14.24016 -14.17712 -13.60041 -13.13411
 -12.96080 -12.20993 -11.94449 -11.75745 -11.60981 -11.54031 -10.90002 -10.80385
 -10.37925   2.22291   3.60519   3.63667   3.67578   3.90915   4.06082   4.61275
   4.77995   4.79347   5.09861   5.38538   5.50758   5.85372   5.91190   5.92385
   6.10275   6.17324   6.26958   6.27631   6.31213   6.38165   6.44512   6.73615
   6.76894   7.13655


              NET ATOMIC CHARGES AND DIPOLE CONTRIBUTIONS

  ATOM NO.   TYPE          CHARGE      No. of ELECS.   s-Pop       p-Pop       
    1          C          -0.466216        4.4662     1.05306     3.41316
    2          C          -0.100030        4.1000     1.08210     3.01793
    3          C          -0.107473        4.1075     1.07787     3.02961
    4          C          -0.277998        4.2780     1.06824     3.20975
    5          C          -0.277991        4.2780     1.06825     3.20974
    6          C          -0.107657        4.1077     1.07789     3.02977
    7          C          -0.192509        4.1925     1.06455     3.12796
    8          C          -0.328056        4.3281     1.05506     3.27300
    9          C          -0.192662        4.1927     1.06455     3.12811
   10          H           0.155272        0.8447     0.84473
   11          H           0.149832        0.8502     0.85017
   12          H           0.150150        0.8498     0.84985
   13          H           0.133516        0.8665     0.86648
   14          H           0.136402        0.8636     0.86360
   15          H           0.139461        0.8605     0.86054
   16          H           0.138359        0.8616     0.86164
   17          H           0.138359        0.8616     0.86164
   18          H           0.139349        0.8607     0.86065
   19          H           0.136476        0.8635     0.86352
   20          H           0.153741        0.8463     0.84626
   21          H           0.167555        0.8324     0.83245
   22          H           0.158378        0.8416     0.84162
   23          H           0.153741        0.8463     0.84626
 DIPOLE           X         Y         Z       TOTAL
 POINT-CHG.    -0.543     0.184     0.072     0.578
 HYBRID         0.065     0.057    -0.035     0.094
 SUM           -0.478     0.242     0.037     0.536


          ATOMIC ORBITAL ELECTRON POPULATIONS

     Atom    s        px        py        pz   
    1  C   1.05306   1.06678   1.16987   1.17650
    2  C   1.08210   0.95462   1.07450   0.98880
    3  C   1.07787   0.99485   0.99537   1.03938
    4  C   1.06824   1.15122   1.01992   1.03862
    5  C   1.06825   1.15281   1.04715   1.00978
    6  C   1.07789   0.97936   0.98208   1.06833
    7  C   1.06455   1.05593   1.10439   0.96765
    8  C   1.05506   1.02932   1.14721   1.09647
    9  C   1.06455   0.98876   1.08179   1.05755
   10  H   0.84473
   11  H   0.85017
   12  H   0.84985
   13  H   0.86648
   14  H   0.86360
   15  H   0.86054
   16  H   0.86164
   17  H   0.86164
   18  H   0.86065
   19  H   0.86352
   20  H   0.84626
   21  H   0.83245
   22  H   0.84162
   23  H   0.84626

 **********************
 *                    *
 * JOB ENDED NORMALLY *
 *                    *
 **********************



 TOTAL JOB TIME:             1.38 SECONDS

 == MOPAC DONE ==
