 *******************************************************************************
 **                                                                           **
 **                              MOPAC v23.2                                  **
 **                                                                           **
 *******************************************************************************
 **          Digital Object Identifier (DOI): 10.5281/zenodo.6511958          **
 **    Visit the DOI location for information on how to cite this program.    **
 *******************************************************************************

                              PM7 CALCULATION RESULTS

 *******************************************************************************
 *  CALCULATION DONE: (MAX THREADS = 40)             Fri Sep 19 21:29:37 2025  *
 *  PM7        - The PM7 Hamiltonian to be used
 *
 *
 *
 *                 CHARGE ON SYSTEM = +1
 *
 *
 *
 *  EPS=37.5   - USE ANDREAS KLAMT'S COSMO IMPLICIT SOLVATION MODEL
 *  1SCF       - DO 1 SCF AND THEN STOP 
 *  T=         - A TIME OF 172800.0 SECONDS REQUESTED
 *  DUMP=N     - RESTART FILE WRITTEN EVERY 7200.0 SECONDS REQUESTED
 *  RELSCF     - DEFAULT SCF CRITERION MULTIPLIED BY 0.0001
 *              (DEFAULT SCF CRITERION = 0.00010)
 *  GRADIENTS  - ALL GRADIENTS TO BE PRINTED
 *  DISP       - PRINT DISPERSION AND HYDROGEN BOND ENERGIES
 *******************************************************************************
PM7 1SCF GRADIENTS EPS=37.5 DISP RELSCF=0.0001 CHARGE=1
 Title: ASE calculation

   ATOM   CHEMICAL          X               Y               Z
  NUMBER   SYMBOL      (ANGSTROMS)     (ANGSTROMS)     (ANGSTROMS)

     1       C          3.77752838  *  -0.61234221  *  -0.04714619  *
     2       O          2.38569564  *  -0.77746766  *  -0.40618012  *
     3       C          1.51790164  *  -0.14374017  *   0.37906503  *
     4       O          1.64643125  *   0.51312547  *   1.36656650  *
     5       N          0.18223394  *  -0.38015295  *  -0.19561562  *
     6       C         -0.96061560  *   0.16194520  *   0.42787004  *
     7       C         -2.23375712  *   0.11169178  *  -0.45245601  *
     8       C         -2.64968217  *  -1.32704914  *  -0.73796532  *
     9       C         -3.35011256  *   0.85456618  *   0.27887419  *
    10       H          4.26376512  *  -1.25966460  *  -0.79758288  *
    11       H          4.07305262  *   0.43710240  *  -0.16843708  *
    12       H          3.96061039  *  -0.97162844  *   0.97282137  *
    13       H          0.08997241  *  -0.93540113  *  -1.05258956  *
    14       H         -0.76674719  *   1.21118032  *   0.81938091  *
    15       H         -1.15289701  *  -0.37940648  *   1.41937580  *
    16       H         -2.02631200  *   0.64092554  *  -1.41937580  *
    17       H         -3.59255262  *  -1.35138539  *  -1.31476264  *
    18       H         -1.92539440  *  -1.88694913  *  -1.33507204  *
    19       H         -2.85311258  *  -1.89793093  *   0.17810948  *
    20       H         -3.09454925  *   1.89793093  *   0.50352688  *
    21       H         -3.64057078  *   0.36639813  *   1.21848247  *
    22       H         -4.26376512  *   0.89366112  *  -0.33929890  *



          CARTESIAN COORDINATES 

    NO.       ATOM           X           Y           Z

     1         C          3.7775     -0.6123     -0.0471
     2         O          2.3857     -0.7775     -0.4062
     3         C          1.5179     -0.1437      0.3791
     4         O          1.6464      0.5131      1.3666
     5         N          0.1822     -0.3802     -0.1956
     6         C         -0.9606      0.1619      0.4279
     7         C         -2.2338      0.1117     -0.4525
     8         C         -2.6497     -1.3270     -0.7380
     9         C         -3.3501      0.8546      0.2789
    10         H          4.2638     -1.2597     -0.7976
    11         H          4.0731      0.4371     -0.1684
    12         H          3.9606     -0.9716      0.9728
    13         H          0.0900     -0.9354     -1.0526
    14         H         -0.7667      1.2112      0.8194
    15         H         -1.1529     -0.3794      1.4194
    16         H         -2.0263      0.6409     -1.4194
    17         H         -3.5926     -1.3514     -1.3148
    18         H         -1.9254     -1.8869     -1.3351
    19         H         -2.8531     -1.8979      0.1781
    20         H         -3.0945      1.8979      0.5035
    21         H         -3.6406      0.3664      1.2185
    22         H         -4.2638      0.8937     -0.3393

 General Reference for PM7:
 "Optimization of Parameters for Semiempirical Methods VI: More Modifications to the 
 NDDO Approximations and Re-optimization of Parameters", J. J. P. Stewart, J. Mol. Mod., 1:32, 19 (2013)
 https://link.springer.com/article/10.1007/s00894-012-1667-x

           Empirical Formula: C6 H13 N O2  =    22 atoms



      MOLECULAR POINT GROUP   :   C1  


          UHF CALCULATION, NO. OF ALPHA ELECTRONS =   27
                           NO. OF BETA  ELECTRONS =   26
  SCF CRITERION =    0.1000E-07

 -------------------------------------------------------------------------------
 PM7 1SCF GRADIENTS EPS=37.5 DISP RELSCF=0.0001 CHARGE=1
 Title: ASE calculation



     1SCF WAS SPECIFIED, SO BFGS WAS NOT USED                 
     SCF FIELD WAS ACHIEVED                                   


                              PM7 CALCULATION
                                                       MOPAC v23.2 Linux
                                                       Fri Sep 19 21:29:39 2025




          FINAL HEAT OF FORMATION =         36.52935 KCAL/MOL =     152.83881 KJ/MOL

          TOTAL ENERGY            =     -38829.98658 KCAL/MOL = ELECTRONIC ENERGY + CORE-CORE REPULSION + SOLVATION ENERGY
          ENERGY OF ATOMS         =      38868.51771 KCAL/MOL
                              SUM =         38.53112 KCAL/MOL
          DISPERSION ENERGY       =         -2.00284 KCAL/MOL
          MM CORR. FOR -CO-NH-    =          0.00107 KCAL/MOL
                              SUM =         36.52935 KCAL/MOL = FINAL HEAT OF FORMATION

          VAN DER WAALS AREA      =        184.05 SQUARE ANGSTROMS


          TOTAL ENERGY            =      -1683.82759 EV
          ELECTRONIC ENERGY       =      -2317.27482 EV 
          CORE-CORE REPULSION     =        633.44724 EV

          DIELECTRIC ENERGY       =         -2.46284 EV
          COSMO AREA              =        184.05 SQUARE ANGSTROMS
          COSMO VOLUME            =        177.63 CUBIC ANGSTROMS

          GRADIENT NORM           =         27.11344          =       5.78061 PER ATOM
          IONIZATION POTENTIAL    =         11.930110 EV
          ALPHA SOMO LUMO (EV)    =        -11.930 -0.922
          BETA  SOMO LUMO (EV)    =        -12.068 -3.215
          NO. OF ALPHA ELECTRONS  =         27
          NO. OF BETA  ELECTRONS  =         26
          MOLECULAR WEIGHT        =        131.1742         POINT GROUP:  C1  

          MOLECULAR DIMENSIONS (Angstroms)

            Atom       Atom       Distance
            H    22    H    10     8.80713
            H    18    O     4     4.28469
            H    16    H    19     2.95553


          SCF CALCULATIONS        =          2

          WALL-CLOCK TIME         =      1.453 SECONDS
          COMPUTATION TIME        =      0.368 SECONDS

          LARGEST ATOMIC GRADIENTS

          Atom     Label                     Cartesian Gradients           Cartesian Coordinates       |Gradient|
                                           X          Y          Z        X          Y          Z

             3       C                  14.069      7.281     12.881    1.51790   -0.14374    0.37907     20.417
             4       O                  -5.032     -4.486     -7.334    1.64643    0.51313    1.36657      9.962
             8       C                   7.250      1.031      1.640   -2.64968   -1.32705   -0.73797      7.504
             2       O                  -3.993     -2.337     -3.577    2.38570   -0.77747   -0.40618      5.848
             9       C                   5.567     -1.086      1.178   -3.35011    0.85457    0.27887      5.792
             5       N                  -1.864     -2.930     -4.490    0.18223   -0.38015   -0.19562      5.677
             7       C                  -2.916     -0.130     -1.628   -2.23376    0.11169   -0.45246      3.342
            18       H                  -2.559     -0.493     -0.682   -1.92539   -1.88695   -1.33507      2.693
             6       C                  -0.794      0.251      2.375   -0.96062    0.16195    0.42787      2.517
            19       H                  -2.413     -0.584     -0.370   -2.85311   -1.89793    0.17811      2.510



       FINAL  POINT  AND  DERIVATIVES

   PARAMETER     ATOM    TYPE            VALUE        GRADIENT
      1          1  C    CARTESIAN X     3.777528      2.064627  KCAL/ANGSTROM
      2          1  C    CARTESIAN Y    -0.612342      0.811659  KCAL/ANGSTROM
      3          1  C    CARTESIAN Z    -0.047146      1.009940  KCAL/ANGSTROM
      4          2  O    CARTESIAN X     2.385696     -3.993449  KCAL/ANGSTROM
      5          2  O    CARTESIAN Y    -0.777468     -2.337447  KCAL/ANGSTROM
      6          2  O    CARTESIAN Z    -0.406180     -3.576675  KCAL/ANGSTROM
      7          3  C    CARTESIAN X     1.517902     14.068908  KCAL/ANGSTROM
      8          3  C    CARTESIAN Y    -0.143740      7.280577  KCAL/ANGSTROM
      9          3  C    CARTESIAN Z     0.379065     12.880969  KCAL/ANGSTROM
     10          4  O    CARTESIAN X     1.646431     -5.031501  KCAL/ANGSTROM
     11          4  O    CARTESIAN Y     0.513125     -4.486454  KCAL/ANGSTROM
     12          4  O    CARTESIAN Z     1.366566     -7.333993  KCAL/ANGSTROM
     13          5  N    CARTESIAN X     0.182234     -1.863949  KCAL/ANGSTROM
     14          5  N    CARTESIAN Y    -0.380153     -2.929877  KCAL/ANGSTROM
     15          5  N    CARTESIAN Z    -0.195616     -4.490499  KCAL/ANGSTROM
     16          6  C    CARTESIAN X    -0.960616     -0.793918  KCAL/ANGSTROM
     17          6  C    CARTESIAN Y     0.161945      0.250879  KCAL/ANGSTROM
     18          6  C    CARTESIAN Z     0.427870      2.374990  KCAL/ANGSTROM
     19          7  C    CARTESIAN X    -2.233757     -2.916448  KCAL/ANGSTROM
     20          7  C    CARTESIAN Y     0.111692     -0.129782  KCAL/ANGSTROM
     21          7  C    CARTESIAN Z    -0.452456     -1.627603  KCAL/ANGSTROM
     22          8  C    CARTESIAN X    -2.649682      7.249901  KCAL/ANGSTROM
     23          8  C    CARTESIAN Y    -1.327049      1.031331  KCAL/ANGSTROM
     24          8  C    CARTESIAN Z    -0.737965      1.640303  KCAL/ANGSTROM
     25          9  C    CARTESIAN X    -3.350113      5.566506  KCAL/ANGSTROM
     26          9  C    CARTESIAN Y     0.854566     -1.085969  KCAL/ANGSTROM
     27          9  C    CARTESIAN Z     0.278874      1.177791  KCAL/ANGSTROM
     28         10  H    CARTESIAN X     4.263765     -0.122694  KCAL/ANGSTROM
     29         10  H    CARTESIAN Y    -1.259665     -0.688965  KCAL/ANGSTROM
     30         10  H    CARTESIAN Z    -0.797583     -0.998206  KCAL/ANGSTROM
     31         11  H    CARTESIAN X     4.073053      0.357865  KCAL/ANGSTROM
     32         11  H    CARTESIAN Y     0.437102      0.661648  KCAL/ANGSTROM
     33         11  H    CARTESIAN Z    -0.168437     -0.054992  KCAL/ANGSTROM
     34         12  H    CARTESIAN X     3.960610      0.542431  KCAL/ANGSTROM
     35         12  H    CARTESIAN Y    -0.971628     -0.030098  KCAL/ANGSTROM
     36         12  H    CARTESIAN Z     0.972821      0.842260  KCAL/ANGSTROM
     37         13  H    CARTESIAN X     0.089972     -0.839555  KCAL/ANGSTROM
     38         13  H    CARTESIAN Y    -0.935401      0.690771  KCAL/ANGSTROM
     39         13  H    CARTESIAN Z    -1.052590      1.118627  KCAL/ANGSTROM
     40         14  H    CARTESIAN X    -0.766747      0.346147  KCAL/ANGSTROM
     41         14  H    CARTESIAN Y     1.211180      0.203875  KCAL/ANGSTROM
     42         14  H    CARTESIAN Z     0.819381      0.148596  KCAL/ANGSTROM
     43         15  H    CARTESIAN X    -1.152897     -0.710461  KCAL/ANGSTROM
     44         15  H    CARTESIAN Y    -0.379406      0.427091  KCAL/ANGSTROM
     45         15  H    CARTESIAN Z     1.419376     -0.584031  KCAL/ANGSTROM
     46         16  H    CARTESIAN X    -2.026312     -1.124898  KCAL/ANGSTROM
     47         16  H    CARTESIAN Y     0.640926      0.556680  KCAL/ANGSTROM
     48         16  H    CARTESIAN Z    -1.419376      0.045551  KCAL/ANGSTROM
     49         17  H    CARTESIAN X    -3.592553     -1.993814  KCAL/ANGSTROM
     50         17  H    CARTESIAN Y    -1.351385     -0.488182  KCAL/ANGSTROM
     51         17  H    CARTESIAN Z    -1.314763     -0.569683  KCAL/ANGSTROM
     52         18  H    CARTESIAN X    -1.925394     -2.558624  KCAL/ANGSTROM
     53         18  H    CARTESIAN Y    -1.886949     -0.493265  KCAL/ANGSTROM
     54         18  H    CARTESIAN Z    -1.335072     -0.681843  KCAL/ANGSTROM
     55         19  H    CARTESIAN X    -2.853113     -2.413120  KCAL/ANGSTROM
     56         19  H    CARTESIAN Y    -1.897931     -0.583930  KCAL/ANGSTROM
     57         19  H    CARTESIAN Z     0.178109     -0.369554  KCAL/ANGSTROM
     58         20  H    CARTESIAN X    -3.094549     -1.977936  KCAL/ANGSTROM
     59         20  H    CARTESIAN Y     1.897931      0.930320  KCAL/ANGSTROM
     60         20  H    CARTESIAN Z     0.503527     -0.400469  KCAL/ANGSTROM
     61         21  H    CARTESIAN X    -3.640571     -2.040025  KCAL/ANGSTROM
     62         21  H    CARTESIAN Y     0.366398     -0.070637  KCAL/ANGSTROM
     63         21  H    CARTESIAN Z     1.218482     -0.006887  KCAL/ANGSTROM
     64         22  H    CARTESIAN X    -4.263765     -1.815994  KCAL/ANGSTROM
     65         22  H    CARTESIAN Y     0.893661      0.479773  KCAL/ANGSTROM
     66         22  H    CARTESIAN Z    -0.339299     -0.544596  KCAL/ANGSTROM




   ATOM   CHEMICAL          X               Y               Z
  NUMBER   SYMBOL      (ANGSTROMS)     (ANGSTROMS)     (ANGSTROMS)

     1       C          3.77752838  *  -0.61234221  *  -0.04714619  *
     2       O          2.38569564  *  -0.77746766  *  -0.40618012  *
     3       C          1.51790164  *  -0.14374017  *   0.37906503  *
     4       O          1.64643125  *   0.51312547  *   1.36656650  *
     5       N          0.18223394  *  -0.38015295  *  -0.19561562  *
     6       C         -0.96061560  *   0.16194520  *   0.42787004  *
     7       C         -2.23375712  *   0.11169178  *  -0.45245601  *
     8       C         -2.64968217  *  -1.32704914  *  -0.73796532  *
     9       C         -3.35011256  *   0.85456618  *   0.27887419  *
    10       H          4.26376512  *  -1.25966460  *  -0.79758288  *
    11       H          4.07305262  *   0.43710240  *  -0.16843708  *
    12       H          3.96061039  *  -0.97162844  *   0.97282137  *
    13       H          0.08997241  *  -0.93540113  *  -1.05258956  *
    14       H         -0.76674719  *   1.21118032  *   0.81938091  *
    15       H         -1.15289701  *  -0.37940648  *   1.41937580  *
    16       H         -2.02631200  *   0.64092554  *  -1.41937580  *
    17       H         -3.59255262  *  -1.35138539  *  -1.31476264  *
    18       H         -1.92539440  *  -1.88694913  *  -1.33507204  *
    19       H         -2.85311258  *  -1.89793093  *   0.17810948  *
    20       H         -3.09454925  *   1.89793093  *   0.50352688  *
    21       H         -3.64057078  *   0.36639813  *   1.21848247  *
    22       H         -4.26376512  *   0.89366112  *  -0.33929890  *

                             CARTESIAN COORDINATES

   1    C        3.777528384    -0.612342215    -0.047146191
   2    O        2.385695637    -0.777467658    -0.406180123
   3    C        1.517901636    -0.143740170     0.379065026
   4    O        1.646431248     0.513125474     1.366566495
   5    N        0.182233940    -0.380152953    -0.195615617
   6    C       -0.960615604     0.161945197     0.427870042
   7    C       -2.233757123     0.111691778    -0.452456013
   8    C       -2.649682167    -1.327049141    -0.737965315
   9    C       -3.350112563     0.854566175     0.278874193
  10    H        4.263765120    -1.259664601    -0.797582885
  11    H        4.073052619     0.437102403    -0.168437083
  12    H        3.960610391    -0.971628440     0.972821372
  13    H        0.089972407    -0.935401125    -1.052589558
  14    H       -0.766747189     1.211180315     0.819380914
  15    H       -1.152897012    -0.379406484     1.419375803
  16    H       -2.026311998     0.640925540    -1.419375803
  17    H       -3.592552619    -1.351385388    -1.314762642
  18    H       -1.925394397    -1.886949132    -1.335072036
  19    H       -2.853112581    -1.897930933     0.178109479
  20    H       -3.094549252     1.897930933     0.503526885
  21    H       -3.640570775     0.366398131     1.218482471
  22    H       -4.263765120     0.893661119    -0.339298897


           Empirical Formula: C6 H13 N O2  =    22 atoms



      MOLECULAR POINT GROUP   :   C1  


          ALPHA EIGENVALUES  
 -38.68364 -32.99843 -32.27264 -29.49348 -26.17388 -24.65023 -24.17409 -22.67012
 -20.88291 -19.44759 -18.53166 -18.14777 -17.33564 -16.68064 -15.74453 -15.64759
 -15.06982 -14.84673 -14.22672 -14.02624 -13.42984 -13.01418 -12.76847 -12.53541
 -12.48882 -12.39750 -11.93011  -0.92221  -0.34957   1.18850   2.13383   2.31892
   2.82226   3.51160   3.63173   3.82689   4.14361   4.37554   4.83487   5.04408
   5.05096   5.28917   5.48930   5.51288   5.56142   5.61999   5.73019   6.68536
   6.77792


           BETA EIGENVALUES 
 -37.01852 -32.79206 -32.22146 -29.37598 -26.10087 -24.52295 -24.05284 -22.38050
 -20.75019 -19.25843 -18.24438 -17.67638 -17.21063 -16.33914 -15.67520 -15.14779
 -14.97765 -14.59008 -14.01564 -13.90381 -13.36781 -12.92391 -12.53054 -12.41806
 -12.39780 -12.06848  -3.21465  -0.57582   0.11423   1.38344   2.24660   2.47901
   2.99672   3.55879   3.74932   3.93521   4.26864   4.58062   5.02615   5.04470
   5.08480   5.29357   5.49209   5.51332   5.56190   5.62109   5.73219   6.68606
   6.77807


              NET ATOMIC CHARGES AND DIPOLE CONTRIBUTIONS

  ATOM NO.   TYPE          CHARGE      No. of ELECS.   s-Pop       p-Pop       
    1          C          -0.163571        4.1636     1.10679     3.05678
    2          O          -0.328572        6.3286     1.86941     4.45916
    3          C           0.682116        3.3179     1.08343     2.23446
    4          O          -0.431924        6.4319     1.87592     4.55600
    5          N          -0.093159        5.0932     1.56430     3.52886
    6          C          -0.214675        4.2147     1.09008     3.12459
    7          C          -0.063413        4.0634     1.06177     3.00164
    8          C          -0.474754        4.4748     1.05590     3.41885
    9          C          -0.463126        4.4631     1.05615     3.40698
   10          H           0.185777        0.8142     0.81422
   11          H           0.167352        0.8326     0.83265
   12          H           0.167088        0.8329     0.83291
   13          H           0.366852        0.6331     0.63315
   14          H           0.251130        0.7489     0.74887
   15          H           0.273608        0.7264     0.72639
   16          H           0.165220        0.8348     0.83478
   17          H           0.168879        0.8311     0.83112
   18          H           0.153940        0.8461     0.84606
   19          H           0.163438        0.8366     0.83656
   20          H           0.160005        0.8400     0.83999
   21          H           0.161616        0.8384     0.83838
   22          H           0.166174        0.8338     0.83383
 DIPOLE           X         Y         Z       TOTAL
 POINT-CHG.     0.753    -1.099    -1.461     1.977
 HYBRID        -0.056    -0.298    -0.207     0.368
 SUM            0.697    -1.397    -1.668     2.285


          ATOMIC ORBITAL ELECTRON POPULATIONS

     Atom    s        px        py        pz   
    1  C   1.10679   0.70654   1.18047   1.16977
    2  O   1.86941   1.28945   1.64740   1.52232
    3  C   1.08343   0.75609   0.72560   0.75277
    4  O   1.87592   1.81735   1.42745   1.31121
    5  N   1.56430   1.14778   1.17066   1.21041
    6  C   1.09008   0.89958   1.14495   1.08007
    7  C   1.06177   0.92755   1.01947   1.05462
    8  C   1.05590   1.18665   1.04232   1.18988
    9  C   1.05615   1.10039   1.14646   1.16013
   10  H   0.81422
   11  H   0.83265
   12  H   0.83291
   13  H   0.63315
   14  H   0.74887
   15  H   0.72639
   16  H   0.83478
   17  H   0.83112
   18  H   0.84606
   19  H   0.83656
   20  H   0.83999
   21  H   0.83838
   22  H   0.83383


                    (SZ)    =    0.500000
                    (S**2)  =    0.761379


          ATOMIC ORBITAL SPIN POPULATIONS

    Atom   Total    s     px     py     pz   
         Atomic
    1  C -0.0043 -0.000 -0.004  0.000  0.000
    2  O  0.0089 -0.000 -0.001  0.007  0.003
    3  C -0.0652 -0.008 -0.021 -0.022 -0.014
    4  O  0.0521  0.002 -0.012  0.043  0.020
    5  N  0.9060  0.040  0.054  0.547  0.265
    6  C -0.0036 -0.008 -0.023  0.033 -0.006
    7  C  0.0061  0.000  0.003  0.000  0.003
    8  C  0.0010  0.000 -0.000  0.001  0.000
    9  C -0.0012 -0.000 -0.001 -0.000 -0.000
   10  H -0.0003 -0.000
   11  H  0.0006  0.001
   12  H  0.0005  0.000
   13  H -0.0343 -0.034
   14  H  0.0477  0.048
   15  H  0.0842  0.084
   16  H  0.0015  0.002
   17  H -0.0000 -0.000
   18  H  0.0001  0.000
   19  H -0.0000 -0.000
   20  H  0.0000  0.000
   21  H  0.0000  0.000
   22  H  0.0002  0.000

 **********************
 *                    *
 * JOB ENDED NORMALLY *
 *                    *
 **********************



 TOTAL JOB TIME:             1.91 SECONDS

 == MOPAC DONE ==
