 *******************************************************************************
 **                                                                           **
 **                              MOPAC v23.2                                  **
 **                                                                           **
 *******************************************************************************
 **          Digital Object Identifier (DOI): 10.5281/zenodo.6511958          **
 **    Visit the DOI location for information on how to cite this program.    **
 *******************************************************************************

                              PM7 CALCULATION RESULTS

 *******************************************************************************
 *  CALCULATION DONE: (MAX THREADS = 40)             Fri Sep 19 21:31:15 2025  *
 *  PM7        - The PM7 Hamiltonian to be used
 *  EPS=37.5   - USE ANDREAS KLAMT'S COSMO IMPLICIT SOLVATION MODEL
 *  1SCF       - DO 1 SCF AND THEN STOP 
 *  T=         - A TIME OF 172800.0 SECONDS REQUESTED
 *  DUMP=N     - RESTART FILE WRITTEN EVERY 7200.0 SECONDS REQUESTED
 *  RELSCF     - DEFAULT SCF CRITERION MULTIPLIED BY 0.0001
 *              (DEFAULT SCF CRITERION = 0.00010)
 *  GRADIENTS  - ALL GRADIENTS TO BE PRINTED
 *  DISP       - PRINT DISPERSION AND HYDROGEN BOND ENERGIES
 *******************************************************************************
PM7 1SCF GRADIENTS EPS=37.5 DISP RELSCF=0.0001
 Title: ASE calculation

   ATOM   CHEMICAL          X               Y               Z
  NUMBER   SYMBOL      (ANGSTROMS)     (ANGSTROMS)     (ANGSTROMS)

     1       N          0.27774563  *   2.22637714  *  -0.10069084  *
     2       C          0.54276965  *   1.12544866  *  -0.33084006  *
     3       C          0.88514805  *  -0.26280215  *  -0.63995585  *
     4       N          2.14807682  *  -0.58403027  *   0.06043955  *
     5       C         -0.24643154  *  -1.22397802  *  -0.28811498  *
     6       C         -0.95736628  *  -1.12660003  *   1.04487649  *
     7       C         -1.68399889  *  -0.75771580  *  -0.22265645  *
     8       H          1.09384303  *  -0.33846885  *  -1.75356738  *
     9       H          2.05862757  *  -0.50068317  *   1.06154795  *
    10       H          2.47393935  *  -1.51106873  *  -0.16221923  *
    11       H         -0.05542290  *  -2.22637714  *  -0.69245081  *
    12       H         -0.68492056  *  -0.34778066  *   1.75356738  *
    13       H         -1.22131563  *  -2.03562138  *   1.57874036  *
    14       H         -1.93273097  *   0.28472812  *  -0.41654871  *
    15       H         -2.47393935  *  -1.39978058  *  -0.60478601  *



          CARTESIAN COORDINATES 

    NO.       ATOM           X           Y           Z

     1         N          0.2777      2.2264     -0.1007
     2         C          0.5428      1.1254     -0.3308
     3         C          0.8851     -0.2628     -0.6400
     4         N          2.1481     -0.5840      0.0604
     5         C         -0.2464     -1.2240     -0.2881
     6         C         -0.9574     -1.1266      1.0449
     7         C         -1.6840     -0.7577     -0.2227
     8         H          1.0938     -0.3385     -1.7536
     9         H          2.0586     -0.5007      1.0615
    10         H          2.4739     -1.5111     -0.1622
    11         H         -0.0554     -2.2264     -0.6925
    12         H         -0.6849     -0.3478      1.7536
    13         H         -1.2213     -2.0356      1.5787
    14         H         -1.9327      0.2847     -0.4165
    15         H         -2.4739     -1.3998     -0.6048

 General Reference for PM7:
 "Optimization of Parameters for Semiempirical Methods VI: More Modifications to the 
 NDDO Approximations and Re-optimization of Parameters", J. J. P. Stewart, J. Mol. Mod., 1:32, 19 (2013)
 https://link.springer.com/article/10.1007/s00894-012-1667-x

           Empirical Formula: C5 H8 N2  =    15 atoms



      MOLECULAR POINT GROUP   :   C1  


      RHF CALCULATION, NO. OF DOUBLY OCCUPIED LEVELS = 19

  SCF CRITERION =    0.1000E-07

 -------------------------------------------------------------------------------
 PM7 1SCF GRADIENTS EPS=37.5 DISP RELSCF=0.0001
 Title: ASE calculation



     1SCF WAS SPECIFIED, SO BFGS WAS NOT USED                 
     SCF FIELD WAS ACHIEVED                                   


                              PM7 CALCULATION
                                                       MOPAC v23.2 Linux
                                                       Fri Sep 19 21:31:15 2025




          FINAL HEAT OF FORMATION =         37.66594 KCAL/MOL =     157.59429 KJ/MOL

          TOTAL ENERGY            =     -25219.46897 KCAL/MOL = ELECTRONIC ENERGY + CORE-CORE REPULSION + SOLVATION ENERGY
          ENERGY OF ATOMS         =      25258.26330 KCAL/MOL
                              SUM =         38.79434 KCAL/MOL
          DISPERSION ENERGY       =         -1.12840 KCAL/MOL
                              SUM =         37.66594 KCAL/MOL = FINAL HEAT OF FORMATION

          VAN DER WAALS AREA      =        141.77 SQUARE ANGSTROMS


          TOTAL ENERGY            =      -1093.61968 EV
          ELECTRONIC ENERGY       =      -1494.89589 EV 
          CORE-CORE REPULSION     =        401.27621 EV

          DIELECTRIC ENERGY       =         -0.53443 EV
          COSMO AREA              =        141.77 SQUARE ANGSTROMS
          COSMO VOLUME            =        135.08 CUBIC ANGSTROMS

          GRADIENT NORM           =         16.99802          =       4.38887 PER ATOM
          IONIZATION POTENTIAL    =         10.307689 EV
          HOMO LUMO ENERGIES (EV) =        -10.308  0.621
          NO. OF FILLED LEVELS    =         19
          MOLECULAR WEIGHT        =         96.1316         POINT GROUP:  C1  

          MOLECULAR DIMENSIONS (Angstroms)

            Atom       Atom       Distance
            H    15    H    10     4.96888
            N     1    H    13     4.65570
            H    12    H     8     3.34933


          SCF CALCULATIONS        =          2

          WALL-CLOCK TIME         =      0.555 SECONDS
          COMPUTATION TIME        =      0.657 SECONDS

          LARGEST ATOMIC GRADIENTS

          Atom     Label                     Cartesian Gradients           Cartesian Coordinates       |Gradient|
                                           X          Y          Z        X          Y          Z

             4       N                  -3.756     -9.826      2.483    2.14808   -0.58403    0.06044     10.808
             1       N                   1.035     -6.079     -1.092    0.27775    2.22638   -0.10069      6.263
            10       H                   0.354      5.520      0.488    2.47394   -1.51107   -0.16222      5.553
             2       C                  -1.237      5.359      0.666    0.54277    1.12545   -0.33084      5.540
             9       H                   1.617      2.770     -3.695    2.05863   -0.50068    1.06155      4.893
             3       C                   1.556      3.347     -1.558    0.88515   -0.26280   -0.63996      4.007
             5       C                   0.733     -2.899     -1.071   -0.24643   -1.22398   -0.28811      3.176
             8       H                   0.478      0.486      2.688    1.09384   -0.33847   -1.75357      2.773
            11       H                  -1.026      1.408      0.864   -0.05542   -2.22638   -0.69245      1.945
             6       C                   0.389     -1.399      0.925   -0.95737   -1.12660    1.04488      1.722



       FINAL  POINT  AND  DERIVATIVES

   PARAMETER     ATOM    TYPE            VALUE        GRADIENT
      1          1  N    CARTESIAN X     0.277746      1.035479  KCAL/ANGSTROM
      2          1  N    CARTESIAN Y     2.226377     -6.079460  KCAL/ANGSTROM
      3          1  N    CARTESIAN Z    -0.100691     -1.092066  KCAL/ANGSTROM
      4          2  C    CARTESIAN X     0.542770     -1.237131  KCAL/ANGSTROM
      5          2  C    CARTESIAN Y     1.125449      5.359061  KCAL/ANGSTROM
      6          2  C    CARTESIAN Z    -0.330840      0.666226  KCAL/ANGSTROM
      7          3  C    CARTESIAN X     0.885148      1.556331  KCAL/ANGSTROM
      8          3  C    CARTESIAN Y    -0.262802      3.347235  KCAL/ANGSTROM
      9          3  C    CARTESIAN Z    -0.639956     -1.557738  KCAL/ANGSTROM
     10          4  N    CARTESIAN X     2.148077     -3.755965  KCAL/ANGSTROM
     11          4  N    CARTESIAN Y    -0.584030     -9.825618  KCAL/ANGSTROM
     12          4  N    CARTESIAN Z     0.060440      2.482814  KCAL/ANGSTROM
     13          5  C    CARTESIAN X    -0.246432      0.733035  KCAL/ANGSTROM
     14          5  C    CARTESIAN Y    -1.223978     -2.899285  KCAL/ANGSTROM
     15          5  C    CARTESIAN Z    -0.288115     -1.070762  KCAL/ANGSTROM
     16          6  C    CARTESIAN X    -0.957366      0.388805  KCAL/ANGSTROM
     17          6  C    CARTESIAN Y    -1.126600     -1.399054  KCAL/ANGSTROM
     18          6  C    CARTESIAN Z     1.044876      0.924984  KCAL/ANGSTROM
     19          7  C    CARTESIAN X    -1.683999     -0.715229  KCAL/ANGSTROM
     20          7  C    CARTESIAN Y    -0.757716     -1.352942  KCAL/ANGSTROM
     21          7  C    CARTESIAN Z    -0.222656     -0.583378  KCAL/ANGSTROM
     22          8  H    CARTESIAN X     1.093843      0.478449  KCAL/ANGSTROM
     23          8  H    CARTESIAN Y    -0.338469      0.486420  KCAL/ANGSTROM
     24          8  H    CARTESIAN Z    -1.753567      2.688253  KCAL/ANGSTROM
     25          9  H    CARTESIAN X     2.058628      1.616877  KCAL/ANGSTROM
     26          9  H    CARTESIAN Y    -0.500683      2.770023  KCAL/ANGSTROM
     27          9  H    CARTESIAN Z     1.061548     -3.694914  KCAL/ANGSTROM
     28         10  H    CARTESIAN X     2.473939      0.354277  KCAL/ANGSTROM
     29         10  H    CARTESIAN Y    -1.511069      5.519766  KCAL/ANGSTROM
     30         10  H    CARTESIAN Z    -0.162219      0.487945  KCAL/ANGSTROM
     31         11  H    CARTESIAN X    -0.055423     -1.026160  KCAL/ANGSTROM
     32         11  H    CARTESIAN Y    -2.226377      1.407938  KCAL/ANGSTROM
     33         11  H    CARTESIAN Z    -0.692451      0.864360  KCAL/ANGSTROM
     34         12  H    CARTESIAN X    -0.684921     -0.506685  KCAL/ANGSTROM
     35         12  H    CARTESIAN Y    -0.347781      0.259544  KCAL/ANGSTROM
     36         12  H    CARTESIAN Z     1.753567     -0.580073  KCAL/ANGSTROM
     37         13  H    CARTESIAN X    -1.221316      0.049894  KCAL/ANGSTROM
     38         13  H    CARTESIAN Y    -2.035621      0.956049  KCAL/ANGSTROM
     39         13  H    CARTESIAN Z     1.578740     -0.624410  KCAL/ANGSTROM
     40         14  H    CARTESIAN X    -1.932731      0.556000  KCAL/ANGSTROM
     41         14  H    CARTESIAN Y     0.284728      0.826691  KCAL/ANGSTROM
     42         14  H    CARTESIAN Z    -0.416549      0.569252  KCAL/ANGSTROM
     43         15  H    CARTESIAN X    -2.473939      0.472022  KCAL/ANGSTROM
     44         15  H    CARTESIAN Y    -1.399781      0.623627  KCAL/ANGSTROM
     45         15  H    CARTESIAN Z    -0.604786      0.519504  KCAL/ANGSTROM




   ATOM   CHEMICAL          X               Y               Z
  NUMBER   SYMBOL      (ANGSTROMS)     (ANGSTROMS)     (ANGSTROMS)

     1       N          0.27774563  *   2.22637714  *  -0.10069084  *
     2       C          0.54276965  *   1.12544866  *  -0.33084006  *
     3       C          0.88514805  *  -0.26280215  *  -0.63995585  *
     4       N          2.14807682  *  -0.58403027  *   0.06043955  *
     5       C         -0.24643154  *  -1.22397802  *  -0.28811498  *
     6       C         -0.95736628  *  -1.12660003  *   1.04487649  *
     7       C         -1.68399889  *  -0.75771580  *  -0.22265645  *
     8       H          1.09384303  *  -0.33846885  *  -1.75356738  *
     9       H          2.05862757  *  -0.50068317  *   1.06154795  *
    10       H          2.47393935  *  -1.51106873  *  -0.16221923  *
    11       H         -0.05542290  *  -2.22637714  *  -0.69245081  *
    12       H         -0.68492056  *  -0.34778066  *   1.75356738  *
    13       H         -1.22131563  *  -2.03562138  *   1.57874036  *
    14       H         -1.93273097  *   0.28472812  *  -0.41654871  *
    15       H         -2.47393935  *  -1.39978058  *  -0.60478601  *

                             CARTESIAN COORDINATES

   1    N        0.277745627     2.226377136    -0.100690838
   2    C        0.542769650     1.125448663    -0.330840057
   3    C        0.885148047    -0.262802152    -0.639955848
   4    N        2.148076824    -0.584030265     0.060439550
   5    C       -0.246431539    -1.223978021    -0.288114977
   6    C       -0.957366281    -1.126600034     1.044876492
   7    C       -1.683998886    -0.757715805    -0.222656447
   8    H        1.093843026    -0.338468851    -1.753567375
   9    H        2.058627568    -0.500683168     1.061547955
  10    H        2.473939355    -1.511068728    -0.162219226
  11    H       -0.055422902    -2.226377136    -0.692450810
  12    H       -0.684920565    -0.347780657     1.753567375
  13    H       -1.221315633    -2.035621375     1.578740360
  14    H       -1.932730973     0.284728119    -0.416548709
  15    H       -2.473939355    -1.399780584    -0.604786010


           Empirical Formula: C5 H8 N2  =    15 atoms



      MOLECULAR POINT GROUP   :   C1  


                  EIGENVALUES  
 -36.17163 -35.62869 -30.69949 -25.62061 -21.14659 -21.13058 -18.51927 -17.46642
 -16.76759 -16.09506 -15.25197 -14.22830 -13.72627 -13.27804 -13.13577 -12.65816
 -11.99457 -11.62633 -10.30769   0.62119   0.75691   1.94364   2.52260   3.03759
   3.29168   3.99483   4.12894   4.79394   5.18451   5.31267   5.82325   5.84574
   5.88044   6.20914   6.26391   6.75764


              NET ATOMIC CHARGES AND DIPOLE CONTRIBUTIONS

  ATOM NO.   TYPE          CHARGE      No. of ELECS.   s-Pop       p-Pop       
    1          N          -0.372866        5.3729     1.83002     3.54285
    2          C           0.195097        3.8049     1.13758     2.66733
    3          C           0.065544        3.9345     1.05592     2.87854
    4          N          -0.674560        5.6746     1.64440     4.03016
    5          C          -0.217044        4.2170     1.05716     3.15988
    6          C          -0.320237        4.3202     1.05383     3.26641
    7          C          -0.315325        4.3153     1.05376     3.26157
    8          H           0.205748        0.7943     0.79425
    9          H           0.278606        0.7214     0.72139
   10          H           0.293114        0.7069     0.70689
   11          H           0.183388        0.8166     0.81661
   12          H           0.167846        0.8322     0.83215
   13          H           0.171039        0.8290     0.82896
   14          H           0.167430        0.8326     0.83257
   15          H           0.172219        0.8278     0.82778
 DIPOLE           X         Y         Z       TOTAL
 POINT-CHG.    -0.276    -4.941    -0.772     5.009
 HYBRID        -0.303    -0.891     0.531     1.081
 SUM           -0.579    -5.833    -0.240     5.866


          ATOMIC ORBITAL ELECTRON POPULATIONS

     Atom    s        px        py        pz   
    1  N   1.83002   1.15171   1.23506   1.15608
    2  C   1.13758   0.87085   0.92464   0.87184
    3  C   1.05592   0.89923   0.88556   1.09374
    4  N   1.64440   1.31629   1.45311   1.26076
    5  C   1.05716   0.96921   1.10124   1.08942
    6  C   1.05383   1.10907   1.18213   0.97521
    7  C   1.05376   1.01378   1.16744   1.08035
    8  H   0.79425
    9  H   0.72139
   10  H   0.70689
   11  H   0.81661
   12  H   0.83215
   13  H   0.82896
   14  H   0.83257
   15  H   0.82778

 **********************
 *                    *
 * JOB ENDED NORMALLY *
 *                    *
 **********************



 TOTAL JOB TIME:             0.90 SECONDS

 == MOPAC DONE ==
