 *******************************************************************************
 **                                                                           **
 **                              MOPAC v23.2                                  **
 **                                                                           **
 *******************************************************************************
 **          Digital Object Identifier (DOI): 10.5281/zenodo.6511958          **
 **    Visit the DOI location for information on how to cite this program.    **
 *******************************************************************************

                              PM7 CALCULATION RESULTS

 *******************************************************************************
 *  CALCULATION DONE: (MAX THREADS = 40)             Fri Sep 19 21:30:36 2025  *
 *  PM7        - The PM7 Hamiltonian to be used
 *
 *
 *
 *                 CHARGE ON SYSTEM = +1
 *
 *
 *
 *  1SCF       - DO 1 SCF AND THEN STOP 
 *  T=         - A TIME OF 172800.0 SECONDS REQUESTED
 *  DUMP=N     - RESTART FILE WRITTEN EVERY 7200.0 SECONDS REQUESTED
 *  RELSCF     - DEFAULT SCF CRITERION MULTIPLIED BY 0.0001
 *              (DEFAULT SCF CRITERION = 0.00010)
 *  GRADIENTS  - ALL GRADIENTS TO BE PRINTED
 *  DISP       - PRINT DISPERSION AND HYDROGEN BOND ENERGIES
 *******************************************************************************
PM7 1SCF GRADIENTS DISP RELSCF=0.0001 CHARGE=1
 Title: ASE calculation

   ATOM   CHEMICAL          X               Y               Z
  NUMBER   SYMBOL      (ANGSTROMS)     (ANGSTROMS)     (ANGSTROMS)

     1       C         -2.53306034  *  -1.09155011  *  -0.76170146  *
     2       C         -1.23673878  *  -0.60748654  *  -0.26223032  *
     3       C         -1.17484598  *   0.70659180  *   0.22723598  *
     4       C         -0.06364619  *   1.48098118  *   0.53600981  *
     5       C          1.28649900  *   1.15629359  *   0.52007755  *
     6       C          1.91298204  *  -0.17946168  *   0.46216005  *
     7       C          2.63981610  *  -0.30496739  *  -0.88693336  *
     8       C          0.96456669  *  -1.34893142  *   0.73880450  *
     9       C         -0.11124485  *  -1.55101331  *  -0.32545266  *
    10       H         -2.46785180  *  -1.97296595  *  -1.42697483  *
    11       H         -3.11579613  *  -0.32561363  *  -1.31152451  *
    12       H         -3.19581775  *  -1.40508970  *   0.07790390  *
    13       H         -2.15266242  *   1.22284616  *   0.33254840  *
    14       H         -0.29180312  *   2.53801335  *   0.80184528  *
    15       H          2.00883077  *   1.99102724  *   0.58095600  *
    16       H          2.71442180  *  -0.21686628  *   1.26952209  *
    17       H          3.45393589  *   0.42914940  *  -0.98511675  *
    18       H          1.97368390  *  -0.16451829  *  -1.74519770  *
    19       H          3.10479004  *  -1.29759595  *  -0.98957280  *
    20       H          0.49597725  *  -1.22720655  *   1.73841304  *
    21       H          1.56696973  *  -2.28421341  *   0.82615077  *
    22       H          0.35001814  *  -1.50552561  *  -1.35153402  *
    23       H         -0.47376453  *  -2.61196738  *  -0.27365262  *



          CARTESIAN COORDINATES 

    NO.       ATOM           X           Y           Z

     1         C         -2.5331     -1.0916     -0.7617
     2         C         -1.2367     -0.6075     -0.2622
     3         C         -1.1748      0.7066      0.2272
     4         C         -0.0636      1.4810      0.5360
     5         C          1.2865      1.1563      0.5201
     6         C          1.9130     -0.1795      0.4622
     7         C          2.6398     -0.3050     -0.8869
     8         C          0.9646     -1.3489      0.7388
     9         C         -0.1112     -1.5510     -0.3255
    10         H         -2.4679     -1.9730     -1.4270
    11         H         -3.1158     -0.3256     -1.3115
    12         H         -3.1958     -1.4051      0.0779
    13         H         -2.1527      1.2228      0.3325
    14         H         -0.2918      2.5380      0.8018
    15         H          2.0088      1.9910      0.5810
    16         H          2.7144     -0.2169      1.2695
    17         H          3.4539      0.4291     -0.9851
    18         H          1.9737     -0.1645     -1.7452
    19         H          3.1048     -1.2976     -0.9896
    20         H          0.4960     -1.2272      1.7384
    21         H          1.5670     -2.2842      0.8262
    22         H          0.3500     -1.5055     -1.3515
    23         H         -0.4738     -2.6120     -0.2737

 General Reference for PM7:
 "Optimization of Parameters for Semiempirical Methods VI: More Modifications to the 
 NDDO Approximations and Re-optimization of Parameters", J. J. P. Stewart, J. Mol. Mod., 1:32, 19 (2013)
 https://link.springer.com/article/10.1007/s00894-012-1667-x

           Empirical Formula: C9 H14  =    23 atoms



      MOLECULAR POINT GROUP   :   C1  


          UHF CALCULATION, NO. OF ALPHA ELECTRONS =   25
                           NO. OF BETA  ELECTRONS =   24
  SCF CRITERION =    0.1000E-07

 -------------------------------------------------------------------------------
 PM7 1SCF GRADIENTS DISP RELSCF=0.0001 CHARGE=1
 Title: ASE calculation



     1SCF WAS SPECIFIED, SO BFGS WAS NOT USED                 
     SCF FIELD WAS ACHIEVED                                   


                              PM7 CALCULATION
                                                       MOPAC v23.2 Linux
                                                       Fri Sep 19 21:30:37 2025




          FINAL HEAT OF FORMATION =        183.69166 KCAL/MOL =     768.56592 KJ/MOL

          TOTAL ENERGY            =     -29666.09074 KCAL/MOL = ELECTRONIC ENERGY + CORE-CORE REPULSION
          ENERGY OF ATOMS         =      29852.41387 KCAL/MOL
                              SUM =        186.32313 KCAL/MOL
          DISPERSION ENERGY       =         -2.63146 KCAL/MOL
                              SUM =        183.69166 KCAL/MOL = FINAL HEAT OF FORMATION



          TOTAL ENERGY            =      -1286.44345 EV
          ELECTRONIC ENERGY       =      -7156.23644 EV 
          CORE-CORE REPULSION     =       5869.79299 EV
          COSMO AREA              =        174.05 SQUARE ANGSTROMS
          COSMO VOLUME            =        179.17 CUBIC ANGSTROMS

          GRADIENT NORM           =          1.08950          =       0.22718 PER ATOM
          IONIZATION POTENTIAL    =         13.835860 EV
          ALPHA SOMO LUMO (EV)    =        -13.836 -5.676
          BETA  SOMO LUMO (EV)    =        -15.519 -6.927
          NO. OF ALPHA ELECTRONS  =         25
          NO. OF BETA  ELECTRONS  =         24
          MOLECULAR WEIGHT        =        122.2096         POINT GROUP:  C1  

          MOLECULAR DIMENSIONS (Angstroms)

            Atom       Atom       Distance
            H    17    H    12     6.97952
            H    14    H    21     5.14388
            H    10    H    20     3.59175


          SCF CALCULATIONS        =          1

          WALL-CLOCK TIME         =      1.414 SECONDS
          COMPUTATION TIME        =      0.509 SECONDS

          LARGEST ATOMIC GRADIENTS

          Atom     Label                     Cartesian Gradients           Cartesian Coordinates       |Gradient|
                                           X          Y          Z        X          Y          Z

             5       C                   0.280      0.142     -0.157    1.28650    1.15629    0.52008      0.351
             2       C                  -0.311     -0.057      0.109   -1.23674   -0.60749   -0.26223      0.335
            12       H                   0.261      0.185      0.023   -3.19582   -1.40509    0.07790      0.321
             1       C                  -0.234     -0.092     -0.175   -2.53306   -1.09155   -0.76170      0.307
            10       H                   0.172     -0.234     -0.060   -2.46785   -1.97297   -1.42697      0.297
             9       C                  -0.241     -0.135     -0.053   -0.11124   -1.55101   -0.32545      0.281
            11       H                   0.139      0.240      0.026   -3.11580   -0.32561   -1.31152      0.278
             8       C                  -0.079     -0.246     -0.031    0.96457   -1.34893    0.73880      0.260
             6       C                  -0.048      0.011      0.235    1.91298   -0.17946    0.46216      0.240
             3       C                  -0.040      0.216     -0.044   -1.17485    0.70659    0.22724      0.224



       FINAL  POINT  AND  DERIVATIVES

   PARAMETER     ATOM    TYPE            VALUE        GRADIENT
      1          1  C    CARTESIAN X    -2.533060     -0.234330  KCAL/ANGSTROM
      2          1  C    CARTESIAN Y    -1.091550     -0.092456  KCAL/ANGSTROM
      3          1  C    CARTESIAN Z    -0.761701     -0.175002  KCAL/ANGSTROM
      4          2  C    CARTESIAN X    -1.236739     -0.311401  KCAL/ANGSTROM
      5          2  C    CARTESIAN Y    -0.607487     -0.057485  KCAL/ANGSTROM
      6          2  C    CARTESIAN Z    -0.262230      0.108851  KCAL/ANGSTROM
      7          3  C    CARTESIAN X    -1.174846     -0.040404  KCAL/ANGSTROM
      8          3  C    CARTESIAN Y     0.706592      0.215928  KCAL/ANGSTROM
      9          3  C    CARTESIAN Z     0.227236     -0.044263  KCAL/ANGSTROM
     10          4  C    CARTESIAN X    -0.063646      0.011449  KCAL/ANGSTROM
     11          4  C    CARTESIAN Y     1.480981      0.006553  KCAL/ANGSTROM
     12          4  C    CARTESIAN Z     0.536010      0.020423  KCAL/ANGSTROM
     13          5  C    CARTESIAN X     1.286499      0.280315  KCAL/ANGSTROM
     14          5  C    CARTESIAN Y     1.156294      0.141919  KCAL/ANGSTROM
     15          5  C    CARTESIAN Z     0.520078     -0.157365  KCAL/ANGSTROM
     16          6  C    CARTESIAN X     1.912982     -0.048456  KCAL/ANGSTROM
     17          6  C    CARTESIAN Y    -0.179462      0.011153  KCAL/ANGSTROM
     18          6  C    CARTESIAN Z     0.462160      0.235210  KCAL/ANGSTROM
     19          7  C    CARTESIAN X     2.639816     -0.109897  KCAL/ANGSTROM
     20          7  C    CARTESIAN Y    -0.304967      0.054060  KCAL/ANGSTROM
     21          7  C    CARTESIAN Z    -0.886933      0.086637  KCAL/ANGSTROM
     22          8  C    CARTESIAN X     0.964567     -0.078845  KCAL/ANGSTROM
     23          8  C    CARTESIAN Y    -1.348931     -0.246079  KCAL/ANGSTROM
     24          8  C    CARTESIAN Z     0.738805     -0.030928  KCAL/ANGSTROM
     25          9  C    CARTESIAN X    -0.111245     -0.240701  KCAL/ANGSTROM
     26          9  C    CARTESIAN Y    -1.551013     -0.135312  KCAL/ANGSTROM
     27          9  C    CARTESIAN Z    -0.325453     -0.052780  KCAL/ANGSTROM
     28         10  H    CARTESIAN X    -2.467852      0.172099  KCAL/ANGSTROM
     29         10  H    CARTESIAN Y    -1.972966     -0.234260  KCAL/ANGSTROM
     30         10  H    CARTESIAN Z    -1.426975     -0.060383  KCAL/ANGSTROM
     31         11  H    CARTESIAN X    -3.115796      0.138899  KCAL/ANGSTROM
     32         11  H    CARTESIAN Y    -0.325614      0.239595  KCAL/ANGSTROM
     33         11  H    CARTESIAN Z    -1.311525      0.026401  KCAL/ANGSTROM
     34         12  H    CARTESIAN X    -3.195818      0.261096  KCAL/ANGSTROM
     35         12  H    CARTESIAN Y    -1.405090      0.184626  KCAL/ANGSTROM
     36         12  H    CARTESIAN Z     0.077904      0.023310  KCAL/ANGSTROM
     37         13  H    CARTESIAN X    -2.152662     -0.115429  KCAL/ANGSTROM
     38         13  H    CARTESIAN Y     1.222846     -0.113437  KCAL/ANGSTROM
     39         13  H    CARTESIAN Z     0.332548      0.062950  KCAL/ANGSTROM
     40         14  H    CARTESIAN X    -0.291803     -0.056113  KCAL/ANGSTROM
     41         14  H    CARTESIAN Y     2.538013     -0.103129  KCAL/ANGSTROM
     42         14  H    CARTESIAN Z     0.801845      0.028467  KCAL/ANGSTROM
     43         15  H    CARTESIAN X     2.008831      0.015525  KCAL/ANGSTROM
     44         15  H    CARTESIAN Y     1.991027      0.160229  KCAL/ANGSTROM
     45         15  H    CARTESIAN Z     0.580956      0.063242  KCAL/ANGSTROM
     46         16  H    CARTESIAN X     2.714422      0.136622  KCAL/ANGSTROM
     47         16  H    CARTESIAN Y    -0.216866     -0.106933  KCAL/ANGSTROM
     48         16  H    CARTESIAN Z     1.269522     -0.015157  KCAL/ANGSTROM
     49         17  H    CARTESIAN X     3.453936      0.085381  KCAL/ANGSTROM
     50         17  H    CARTESIAN Y     0.429149      0.126582  KCAL/ANGSTROM
     51         17  H    CARTESIAN Z    -0.985117     -0.107272  KCAL/ANGSTROM
     52         18  H    CARTESIAN X     1.973684     -0.111078  KCAL/ANGSTROM
     53         18  H    CARTESIAN Y    -0.164518     -0.048285  KCAL/ANGSTROM
     54         18  H    CARTESIAN Z    -1.745198     -0.187207  KCAL/ANGSTROM
     55         19  H    CARTESIAN X     3.104790      0.051731  KCAL/ANGSTROM
     56         19  H    CARTESIAN Y    -1.297596      0.000269  KCAL/ANGSTROM
     57         19  H    CARTESIAN Z    -0.989573      0.058283  KCAL/ANGSTROM
     58         20  H    CARTESIAN X     0.495977     -0.025145  KCAL/ANGSTROM
     59         20  H    CARTESIAN Y    -1.227207      0.030891  KCAL/ANGSTROM
     60         20  H    CARTESIAN Z     1.738413     -0.206561  KCAL/ANGSTROM
     61         21  H    CARTESIAN X     1.566970      0.086440  KCAL/ANGSTROM
     62         21  H    CARTESIAN Y    -2.284213     -0.073033  KCAL/ANGSTROM
     63         21  H    CARTESIAN Z     0.826151      0.036542  KCAL/ANGSTROM
     64         22  H    CARTESIAN X     0.350018      0.100407  KCAL/ANGSTROM
     65         22  H    CARTESIAN Y    -1.505526     -0.026598  KCAL/ANGSTROM
     66         22  H    CARTESIAN Z    -1.351534      0.143715  KCAL/ANGSTROM
     67         23  H    CARTESIAN X    -0.473765      0.031836  KCAL/ANGSTROM
     68         23  H    CARTESIAN Y    -2.611967      0.065200  KCAL/ANGSTROM
     69         23  H    CARTESIAN Z    -0.273653      0.142883  KCAL/ANGSTROM




   ATOM   CHEMICAL          X               Y               Z
  NUMBER   SYMBOL      (ANGSTROMS)     (ANGSTROMS)     (ANGSTROMS)

     1       C         -2.53306034  *  -1.09155011  *  -0.76170146  *
     2       C         -1.23673878  *  -0.60748654  *  -0.26223032  *
     3       C         -1.17484598  *   0.70659180  *   0.22723598  *
     4       C         -0.06364619  *   1.48098118  *   0.53600981  *
     5       C          1.28649900  *   1.15629359  *   0.52007755  *
     6       C          1.91298204  *  -0.17946168  *   0.46216005  *
     7       C          2.63981610  *  -0.30496739  *  -0.88693336  *
     8       C          0.96456669  *  -1.34893142  *   0.73880450  *
     9       C         -0.11124485  *  -1.55101331  *  -0.32545266  *
    10       H         -2.46785180  *  -1.97296595  *  -1.42697483  *
    11       H         -3.11579613  *  -0.32561363  *  -1.31152451  *
    12       H         -3.19581775  *  -1.40508970  *   0.07790390  *
    13       H         -2.15266242  *   1.22284616  *   0.33254840  *
    14       H         -0.29180312  *   2.53801335  *   0.80184528  *
    15       H          2.00883077  *   1.99102724  *   0.58095600  *
    16       H          2.71442180  *  -0.21686628  *   1.26952209  *
    17       H          3.45393589  *   0.42914940  *  -0.98511675  *
    18       H          1.97368390  *  -0.16451829  *  -1.74519770  *
    19       H          3.10479004  *  -1.29759595  *  -0.98957280  *
    20       H          0.49597725  *  -1.22720655  *   1.73841304  *
    21       H          1.56696973  *  -2.28421341  *   0.82615077  *
    22       H          0.35001814  *  -1.50552561  *  -1.35153402  *
    23       H         -0.47376453  *  -2.61196738  *  -0.27365262  *

                             CARTESIAN COORDINATES

   1    C       -2.533060344    -1.091550105    -0.761701456
   2    C       -1.236738782    -0.607486543    -0.262230321
   3    C       -1.174845979     0.706591799     0.227235976
   4    C       -0.063646189     1.480981178     0.536009814
   5    C        1.286498998     1.156293594     0.520077551
   6    C        1.912982043    -0.179461683     0.462160055
   7    C        2.639816104    -0.304967390    -0.886933361
   8    C        0.964566691    -1.348931418     0.738804501
   9    C       -0.111244848    -1.551013309    -0.325452663
  10    H       -2.467851797    -1.972965945    -1.426974827
  11    H       -3.115796127    -0.325613632    -1.311524507
  12    H       -3.195817748    -1.405089702     0.077903899
  13    H       -2.152662417     1.222846161     0.332548396
  14    H       -0.291803124     2.538013347     0.801845282
  15    H        2.008830768     1.991027242     0.580956002
  16    H        2.714421796    -0.216866281     1.269522087
  17    H        3.453935886     0.429149398    -0.985116753
  18    H        1.973683901    -0.164518286    -1.745197704
  19    H        3.104790040    -1.297595947    -0.989572796
  20    H        0.495977252    -1.227206553     1.738413041
  21    H        1.566969733    -2.284213410     0.826150771
  22    H        0.350018136    -1.505525614    -1.351534018
  23    H       -0.473764532    -2.611967379    -0.273652621


           Empirical Formula: C9 H14  =    23 atoms



      MOLECULAR POINT GROUP   :   C1  


          ALPHA EIGENVALUES  
 -35.30781 -33.17877 -31.90755 -29.69589 -28.34157 -26.98495 -26.00956 -22.99018
 -22.16288 -21.71467 -20.80424 -19.55630 -19.35843 -19.24100 -18.62303 -18.31355
 -17.82423 -17.32780 -17.16817 -17.03205 -16.48482 -16.04039 -15.90368 -15.73745
 -13.83586  -5.67605  -3.55250  -1.11002  -0.87794  -0.71821  -0.64578  -0.48988
  -0.31605   0.01853   0.20865   0.28625   0.76220   0.91270   0.94143   1.09747
   1.17732   1.30971   1.45345   1.52388   1.70770   1.94289   1.97752   2.25665
   2.31457   3.08461


           BETA EIGENVALUES 
 -35.21405 -33.06575 -31.84884 -29.65965 -28.18689 -26.94282 -25.91904 -22.91465
 -22.08525 -21.63720 -20.69642 -19.46942 -19.27819 -19.03114 -18.39850 -18.25416
 -17.72892 -17.27760 -17.10090 -16.81830 -16.22429 -15.99410 -15.76712 -15.51925
  -6.92672  -4.49959  -2.87616  -1.03809  -0.76869  -0.66379  -0.53714  -0.43766
  -0.26899   0.08730   0.28977   0.34319   0.80406   0.94868   0.99845   1.12005
   1.25777   1.34192   1.46467   1.54943   1.72314   1.95035   1.98772   2.26883
   2.31838   3.08795


              NET ATOMIC CHARGES AND DIPOLE CONTRIBUTIONS

  ATOM NO.   TYPE          CHARGE      No. of ELECS.   s-Pop       p-Pop       
    1          C          -0.528683        4.5287     1.05935     3.46933
    2          C           0.321127        3.6789     1.13040     2.54847
    3          C          -0.181400        4.1814     1.09911     3.08229
    4          C          -0.117432        4.1174     1.09645     3.02098
    5          C           0.053426        3.9466     1.14431     2.80227
    6          C          -0.147044        4.1470     1.05948     3.08757
    7          C          -0.437240        4.4372     1.05585     3.38139
    8          C          -0.270556        4.2706     1.06024     3.21032
    9          C          -0.353048        4.3530     1.06219     3.29086
   10          H           0.202532        0.7975     0.79747
   11          H           0.208239        0.7918     0.79176
   12          H           0.224875        0.7751     0.77512
   13          H           0.198026        0.8020     0.80197
   14          H           0.195898        0.8041     0.80410
   15          H           0.178254        0.8217     0.82175
   16          H           0.194872        0.8051     0.80513
   17          H           0.173283        0.8267     0.82672
   18          H           0.151632        0.8484     0.84837
   19          H           0.178288        0.8217     0.82171
   20          H           0.161783        0.8382     0.83822
   21          H           0.177596        0.8224     0.82240
   22          H           0.214610        0.7854     0.78539
   23          H           0.200963        0.7990     0.79904
 DIPOLE           X         Y         Z       TOTAL
 POINT-CHG.    -1.432     0.364    -0.128     1.483
 HYBRID        -0.232     0.035    -0.106     0.258
 SUM           -1.664     0.399    -0.234     1.727


          ATOMIC ORBITAL ELECTRON POPULATIONS

     Atom    s        px        py        pz   
    1  C   1.05935   1.06231   1.21342   1.19360
    2  C   1.13040   0.95827   0.92460   0.66561
    3  C   1.09911   1.09774   1.00046   0.98409
    4  C   1.09645   0.98025   1.10298   0.93775
    5  C   1.14431   1.01498   1.06769   0.71960
    6  C   1.05948   1.05866   0.95481   1.07410
    7  C   1.05585   1.14443   1.21100   1.02596
    8  C   1.06024   1.04227   1.09775   1.07029
    9  C   1.06219   1.04396   1.11491   1.13199
   10  H   0.79747
   11  H   0.79176
   12  H   0.77512
   13  H   0.80197
   14  H   0.80410
   15  H   0.82175
   16  H   0.80513
   17  H   0.82672
   18  H   0.84837
   19  H   0.82171
   20  H   0.83822
   21  H   0.82240
   22  H   0.78539
   23  H   0.79904


                    (SZ)    =    0.500000
                    (S**2)  =    0.799762


          ATOMIC ORBITAL SPIN POPULATIONS

    Atom   Total    s     px     py     pz   
         Atomic
    1  C -0.0020 -0.002 -0.006  0.000  0.006
    2  C  0.2985  0.006  0.029  0.033  0.231
    3  C  0.1934  0.004  0.007  0.023  0.159
    4  C -0.0491 -0.004 -0.012 -0.000 -0.033
    5  C  0.5016  0.012  0.015  0.016  0.459
    6  C -0.0176 -0.003 -0.007 -0.010  0.002
    7  C  0.0289  0.005  0.008  0.002  0.014
    8  C  0.0044  0.001  0.002  0.000  0.001
    9  C -0.0052 -0.002 -0.002 -0.004  0.003
   10  H  0.0020  0.002
   11  H  0.0066  0.007
   12  H  0.0190  0.019
   13  H -0.0056 -0.006
   14  H  0.0033  0.003
   15  H -0.0146 -0.015
   16  H  0.0134  0.013
   17  H -0.0007 -0.001
   18  H -0.0011 -0.001
   19  H  0.0009  0.001
   20  H -0.0004 -0.000
   21  H -0.0006 -0.001
   22  H  0.0192  0.019
   23  H  0.0057  0.006

 **********************
 *                    *
 * JOB ENDED NORMALLY *
 *                    *
 **********************



 TOTAL JOB TIME:             1.94 SECONDS

 == MOPAC DONE ==
