 *******************************************************************************
 **                                                                           **
 **                              MOPAC v23.2                                  **
 **                                                                           **
 *******************************************************************************
 **          Digital Object Identifier (DOI): 10.5281/zenodo.6511958          **
 **    Visit the DOI location for information on how to cite this program.    **
 *******************************************************************************

                              PM7 CALCULATION RESULTS

 *******************************************************************************
 *  CALCULATION DONE: (MAX THREADS = 40)             Fri Sep 19 21:29:22 2025  *
 *  PM7        - The PM7 Hamiltonian to be used
 *  1SCF       - DO 1 SCF AND THEN STOP 
 *  T=         - A TIME OF 172800.0 SECONDS REQUESTED
 *  DUMP=N     - RESTART FILE WRITTEN EVERY 7200.0 SECONDS REQUESTED
 *  RELSCF     - DEFAULT SCF CRITERION MULTIPLIED BY 0.0001
 *              (DEFAULT SCF CRITERION = 0.00010)
 *  GRADIENTS  - ALL GRADIENTS TO BE PRINTED
 *  DISP       - PRINT DISPERSION AND HYDROGEN BOND ENERGIES
 *******************************************************************************
PM7 1SCF GRADIENTS DISP RELSCF=0.0001
 Title: ASE calculation

   ATOM   CHEMICAL          X               Y               Z
  NUMBER   SYMBOL      (ANGSTROMS)     (ANGSTROMS)     (ANGSTROMS)

     1       O         -3.67426131  *   0.22140722  *  -1.16913489  *
     2       C         -2.73736523  *   0.64295505  *  -0.54047135  *
     3       C         -1.36172956  *   0.05061026  *  -0.69248723  *
     4       C         -0.27225638  *   1.09880463  *  -0.50798679  *
     5       O          1.00410023  *   0.46218868  *  -0.54085427  *
     6       C          1.42352079  *  -0.15912091  *   0.59063390  *
     7       O          0.81135517  *  -0.12456211  *   1.62318343  *
     8       C          2.75692563  *  -0.83137343  *   0.33573569  *
     9       O          2.76828070  *  -1.51911051  *  -0.88643350  *
    10       H         -2.86024094  *   1.46278042  *   0.17883091  *
    11       H         -1.25575042  *  -0.45916505  *  -1.67428056  *
    12       H         -1.24034435  *  -0.76811399  *   0.05522536  *
    13       H         -0.19856359  *   1.79306304  *  -1.36772819  *
    14       H         -0.38147842  *   1.66920986  *   0.43358120  *
    15       H          2.93914624  *  -1.63254706  *   1.08651230  *
    16       H          3.58055537  *  -0.09039965  *   0.36989588  *
    17       H          2.54741089  *  -0.91165140  *  -1.63054190  *



          CARTESIAN COORDINATES 

    NO.       ATOM           X           Y           Z

     1         O         -3.6743      0.2214     -1.1691
     2         C         -2.7374      0.6430     -0.5405
     3         C         -1.3617      0.0506     -0.6925
     4         C         -0.2723      1.0988     -0.5080
     5         O          1.0041      0.4622     -0.5409
     6         C          1.4235     -0.1591      0.5906
     7         O          0.8114     -0.1246      1.6232
     8         C          2.7569     -0.8314      0.3357
     9         O          2.7683     -1.5191     -0.8864
    10         H         -2.8602      1.4628      0.1788
    11         H         -1.2558     -0.4592     -1.6743
    12         H         -1.2403     -0.7681      0.0552
    13         H         -0.1986      1.7931     -1.3677
    14         H         -0.3815      1.6692      0.4336
    15         H          2.9391     -1.6325      1.0865
    16         H          3.5806     -0.0904      0.3699
    17         H          2.5474     -0.9117     -1.6305

 General Reference for PM7:
 "Optimization of Parameters for Semiempirical Methods VI: More Modifications to the 
 NDDO Approximations and Re-optimization of Parameters", J. J. P. Stewart, J. Mol. Mod., 1:32, 19 (2013)
 https://link.springer.com/article/10.1007/s00894-012-1667-x

           Empirical Formula: C5 H8 O4  =    17 atoms



      MOLECULAR POINT GROUP   :   C1  


      RHF CALCULATION, NO. OF DOUBLY OCCUPIED LEVELS = 26

  SCF CRITERION =    0.1000E-07

 -------------------------------------------------------------------------------
 PM7 1SCF GRADIENTS DISP RELSCF=0.0001
 Title: ASE calculation



     1SCF WAS SPECIFIED, SO BFGS WAS NOT USED                 
     SCF FIELD WAS ACHIEVED                                   


                              PM7 CALCULATION
                                                       MOPAC v23.2 Linux
                                                       Fri Sep 19 21:29:23 2025




          FINAL HEAT OF FORMATION =       -165.93556 KCAL/MOL =    -694.27439 KJ/MOL

          TOTAL ENERGY            =     -43891.59081 KCAL/MOL = ELECTRONIC ENERGY + CORE-CORE REPULSION
          ENERGY OF ATOMS         =      43727.36230 KCAL/MOL
                              SUM =       -164.22851 KCAL/MOL
          DISPERSION ENERGY       =         -1.63890 KCAL/MOL
          H-BOND ENERGY           =         -0.06816 KCAL/MOL
                              SUM =       -165.93556 KCAL/MOL = FINAL HEAT OF FORMATION



          TOTAL ENERGY            =      -1903.31952 EV
          ELECTRONIC ENERGY       =      -7936.23100 EV 
          CORE-CORE REPULSION     =       6032.91148 EV
          COSMO AREA              =        163.74 SQUARE ANGSTROMS
          COSMO VOLUME            =        155.68 CUBIC ANGSTROMS

          GRADIENT NORM           =          0.83973          =       0.20367 PER ATOM
          IONIZATION POTENTIAL    =         10.444495 EV
          HOMO LUMO ENERGIES (EV) =        -10.444  0.378
          NO. OF FILLED LEVELS    =         26
          MOLECULAR WEIGHT        =        132.1158         POINT GROUP:  C1  

          MOLECULAR DIMENSIONS (Angstroms)

            Atom       Atom       Distance
            H    16    O     1     7.42282
            H    15    H    13     3.71066
            H    10    H    17     3.57176


          SCF CALCULATIONS        =          1

          WALL-CLOCK TIME         =      0.891 SECONDS
          COMPUTATION TIME        =      0.563 SECONDS

          LARGEST ATOMIC GRADIENTS

          Atom     Label                     Cartesian Gradients           Cartesian Coordinates       |Gradient|
                                           X          Y          Z        X          Y          Z

             2       C                  -0.142      0.169     -0.238   -2.73737    0.64296   -0.54047      0.324
            10       H                  -0.043      0.063      0.311   -2.86024    1.46278    0.17883      0.320
            15       H                  -0.292     -0.036     -0.033    2.93915   -1.63255    1.08651      0.296
            11       H                   0.252     -0.071     -0.067   -1.25575   -0.45917   -1.67428      0.270
            16       H                  -0.013      0.153     -0.205    3.58056   -0.09040    0.36990      0.256
            17       H                   0.133     -0.171     -0.063    2.54741   -0.91165   -1.63054      0.226
            13       H                  -0.145     -0.151     -0.060   -0.19856    1.79306   -1.36773      0.218
            12       H                   0.046     -0.075     -0.177   -1.24034   -0.76811    0.05523      0.198
             6       C                   0.046      0.091      0.141    1.42352   -0.15912    0.59063      0.174
             7       O                   0.042     -0.016      0.166    0.81136   -0.12456    1.62318      0.172



       FINAL  POINT  AND  DERIVATIVES

   PARAMETER     ATOM    TYPE            VALUE        GRADIENT
      1          1  O    CARTESIAN X    -3.674261      0.048137  KCAL/ANGSTROM
      2          1  O    CARTESIAN Y     0.221407     -0.014958  KCAL/ANGSTROM
      3          1  O    CARTESIAN Z    -1.169135      0.105409  KCAL/ANGSTROM
      4          2  C    CARTESIAN X    -2.737365     -0.141622  KCAL/ANGSTROM
      5          2  C    CARTESIAN Y     0.642955      0.169126  KCAL/ANGSTROM
      6          2  C    CARTESIAN Z    -0.540471     -0.237906  KCAL/ANGSTROM
      7          3  C    CARTESIAN X    -1.361730     -0.013670  KCAL/ANGSTROM
      8          3  C    CARTESIAN Y     0.050610      0.006050  KCAL/ANGSTROM
      9          3  C    CARTESIAN Z    -0.692487     -0.092125  KCAL/ANGSTROM
     10          4  C    CARTESIAN X    -0.272256      0.009095  KCAL/ANGSTROM
     11          4  C    CARTESIAN Y     1.098805     -0.011106  KCAL/ANGSTROM
     12          4  C    CARTESIAN Z    -0.507987      0.068612  KCAL/ANGSTROM
     13          5  O    CARTESIAN X     1.004100     -0.010864  KCAL/ANGSTROM
     14          5  O    CARTESIAN Y     0.462189     -0.033451  KCAL/ANGSTROM
     15          5  O    CARTESIAN Z    -0.540854      0.084680  KCAL/ANGSTROM
     16          6  C    CARTESIAN X     1.423521      0.045610  KCAL/ANGSTROM
     17          6  C    CARTESIAN Y    -0.159121      0.090626  KCAL/ANGSTROM
     18          6  C    CARTESIAN Z     0.590634      0.140953  KCAL/ANGSTROM
     19          7  O    CARTESIAN X     0.811355      0.041855  KCAL/ANGSTROM
     20          7  O    CARTESIAN Y    -0.124562     -0.015838  KCAL/ANGSTROM
     21          7  O    CARTESIAN Z     1.623183      0.166171  KCAL/ANGSTROM
     22          8  C    CARTESIAN X     2.756926     -0.007842  KCAL/ANGSTROM
     23          8  C    CARTESIAN Y    -0.831373      0.048217  KCAL/ANGSTROM
     24          8  C    CARTESIAN Z     0.335736     -0.021093  KCAL/ANGSTROM
     25          9  O    CARTESIAN X     2.768281      0.123553  KCAL/ANGSTROM
     26          9  O    CARTESIAN Y    -1.519111     -0.058612  KCAL/ANGSTROM
     27          9  O    CARTESIAN Z    -0.886434      0.016249  KCAL/ANGSTROM
     28         10  H    CARTESIAN X    -2.860241     -0.042954  KCAL/ANGSTROM
     29         10  H    CARTESIAN Y     1.462780      0.062651  KCAL/ANGSTROM
     30         10  H    CARTESIAN Z     0.178831      0.310716  KCAL/ANGSTROM
     31         11  H    CARTESIAN X    -1.255750      0.251893  KCAL/ANGSTROM
     32         11  H    CARTESIAN Y    -0.459165     -0.071195  KCAL/ANGSTROM
     33         11  H    CARTESIAN Z    -1.674281     -0.066962  KCAL/ANGSTROM
     34         12  H    CARTESIAN X    -1.240344      0.045962  KCAL/ANGSTROM
     35         12  H    CARTESIAN Y    -0.768114     -0.074572  KCAL/ANGSTROM
     36         12  H    CARTESIAN Z     0.055225     -0.177203  KCAL/ANGSTROM
     37         13  H    CARTESIAN X    -0.198564     -0.144713  KCAL/ANGSTROM
     38         13  H    CARTESIAN Y     1.793063     -0.150990  KCAL/ANGSTROM
     39         13  H    CARTESIAN Z    -1.367728     -0.060048  KCAL/ANGSTROM
     40         14  H    CARTESIAN X    -0.381478     -0.033128  KCAL/ANGSTROM
     41         14  H    CARTESIAN Y     1.669210      0.107400  KCAL/ANGSTROM
     42         14  H    CARTESIAN Z     0.433581      0.063535  KCAL/ANGSTROM
     43         15  H    CARTESIAN X     2.939146     -0.291920  KCAL/ANGSTROM
     44         15  H    CARTESIAN Y    -1.632547     -0.035792  KCAL/ANGSTROM
     45         15  H    CARTESIAN Z     1.086512     -0.033080  KCAL/ANGSTROM
     46         16  H    CARTESIAN X     3.580555     -0.012585  KCAL/ANGSTROM
     47         16  H    CARTESIAN Y    -0.090400      0.153393  KCAL/ANGSTROM
     48         16  H    CARTESIAN Z     0.369896     -0.205007  KCAL/ANGSTROM
     49         17  H    CARTESIAN X     2.547411      0.133189  KCAL/ANGSTROM
     50         17  H    CARTESIAN Y    -0.911651     -0.170948  KCAL/ANGSTROM
     51         17  H    CARTESIAN Z    -1.630542     -0.062942  KCAL/ANGSTROM




   ATOM   CHEMICAL          X               Y               Z
  NUMBER   SYMBOL      (ANGSTROMS)     (ANGSTROMS)     (ANGSTROMS)

     1       O         -3.67426131  *   0.22140722  *  -1.16913489  *
     2       C         -2.73736523  *   0.64295505  *  -0.54047135  *
     3       C         -1.36172956  *   0.05061026  *  -0.69248723  *
     4       C         -0.27225638  *   1.09880463  *  -0.50798679  *
     5       O          1.00410023  *   0.46218868  *  -0.54085427  *
     6       C          1.42352079  *  -0.15912091  *   0.59063390  *
     7       O          0.81135517  *  -0.12456211  *   1.62318343  *
     8       C          2.75692563  *  -0.83137343  *   0.33573569  *
     9       O          2.76828070  *  -1.51911051  *  -0.88643350  *
    10       H         -2.86024094  *   1.46278042  *   0.17883091  *
    11       H         -1.25575042  *  -0.45916505  *  -1.67428056  *
    12       H         -1.24034435  *  -0.76811399  *   0.05522536  *
    13       H         -0.19856359  *   1.79306304  *  -1.36772819  *
    14       H         -0.38147842  *   1.66920986  *   0.43358120  *
    15       H          2.93914624  *  -1.63254706  *   1.08651230  *
    16       H          3.58055537  *  -0.09039965  *   0.36989588  *
    17       H          2.54741089  *  -0.91165140  *  -1.63054190  *

                             CARTESIAN COORDINATES

   1    O       -3.674261309     0.221407220    -1.169134888
   2    C       -2.737365225     0.642955050    -0.540471352
   3    C       -1.361729557     0.050610263    -0.692487228
   4    C       -0.272256382     1.098804631    -0.507986794
   5    O        1.004100228     0.462188683    -0.540854266
   6    C        1.423520794    -0.159120910     0.590633897
   7    O        0.811355167    -0.124562113     1.623183431
   8    C        2.756925632    -0.831373428     0.335735691
   9    O        2.768280704    -1.519110515    -0.886433501
  10    H       -2.860240941     1.462780416     0.178830913
  11    H       -1.255750416    -0.459165053    -1.674280559
  12    H       -1.240344352    -0.768113994     0.055225362
  13    H       -0.198563593     1.793063043    -1.367728190
  14    H       -0.381478416     1.669209862     0.433581196
  15    H        2.939146240    -1.632547063     1.086512301
  16    H        3.580555369    -0.090399648     0.369895877
  17    H        2.547410892    -0.911651403    -1.630541897


           Empirical Formula: C5 H8 O4  =    17 atoms



      MOLECULAR POINT GROUP   :   C1  


                  EIGENVALUES  
 -32.01781 -31.35688 -30.73881 -30.23332 -28.00505 -25.89140 -23.40549 -21.01736
 -20.75741 -18.47638 -17.70288 -17.11183 -16.85288 -15.91362 -15.46649 -15.31452
 -14.84292 -14.36832 -13.89104 -13.55149 -13.10884 -12.56096 -11.92207 -11.86169
 -10.97702 -10.44449   0.37815   0.45875   0.85777   2.25806   2.65716   3.11964
   3.31681   3.59020   4.37195   4.52487   4.57967   4.73728   4.83100   4.93750
   5.13708   5.21321   5.53143   5.89406


              NET ATOMIC CHARGES AND DIPOLE CONTRIBUTIONS

  ATOM NO.   TYPE          CHARGE      No. of ELECS.   s-Pop       p-Pop       
    1          O          -0.421947        6.4219     1.87790     4.54404
    2          C           0.352022        3.6480     1.14055     2.50743
    3          C          -0.446000        4.4460     1.07652     3.36948
    4          C           0.005604        3.9944     1.09063     2.90376
    5          O          -0.443052        6.4431     1.86383     4.57922
    6          C           0.559939        3.4401     1.14120     2.29886
    7          O          -0.486099        6.4861     1.87611     4.60999
    8          C          -0.072583        4.0726     1.09369     2.97889
    9          O          -0.496737        6.4967     1.85281     4.64393
   10          H           0.112164        0.8878     0.88784
   11          H           0.189417        0.8106     0.81058
   12          H           0.197018        0.8030     0.80298
   13          H           0.147462        0.8525     0.85254
   14          H           0.143138        0.8569     0.85686
   15          H           0.182802        0.8172     0.81720
   16          H           0.151242        0.8488     0.84876
   17          H           0.325609        0.6744     0.67439
 DIPOLE           X         Y         Z       TOTAL
 POINT-CHG.     2.865     2.489     0.500     3.828
 HYBRID        -0.265    -0.111    -0.447     0.531
 SUM            2.600     2.378     0.053     3.524


          ATOMIC ORBITAL ELECTRON POPULATIONS

     Atom    s        px        py        pz   
    1  O   1.87790   1.49130   1.60027   1.45248
    2  C   1.14055   0.85659   0.84804   0.80280
    3  C   1.07652   1.04058   1.11065   1.21826
    4  C   1.09063   0.78871   0.97314   1.14191
    5  O   1.86383   1.42201   1.68183   1.47539
    6  C   1.14120   0.83336   0.70936   0.75614
    7  O   1.87611   1.62189   1.60700   1.38109
    8  C   1.09369   1.00686   1.06905   0.90298
    9  O   1.85281   1.93920   1.43979   1.26494
   10  H   0.88784
   11  H   0.81058
   12  H   0.80298
   13  H   0.85254
   14  H   0.85686
   15  H   0.81720
   16  H   0.84876
   17  H   0.67439

 **********************
 *                    *
 * JOB ENDED NORMALLY *
 *                    *
 **********************



 TOTAL JOB TIME:             1.38 SECONDS

 == MOPAC DONE ==
