 *******************************************************************************
 **                                                                           **
 **                              MOPAC v23.2                                  **
 **                                                                           **
 *******************************************************************************
 **          Digital Object Identifier (DOI): 10.5281/zenodo.6511958          **
 **    Visit the DOI location for information on how to cite this program.    **
 *******************************************************************************

                              PM7 CALCULATION RESULTS

 *******************************************************************************
 *  CALCULATION DONE: (MAX THREADS = 40)             Fri Sep 19 21:28:12 2025  *
 *  PM7        - The PM7 Hamiltonian to be used
 *
 *
 *
 *                 CHARGE ON SYSTEM = +1
 *
 *
 *
 *  1SCF       - DO 1 SCF AND THEN STOP 
 *  T=         - A TIME OF 172800.0 SECONDS REQUESTED
 *  DUMP=N     - RESTART FILE WRITTEN EVERY 7200.0 SECONDS REQUESTED
 *  RELSCF     - DEFAULT SCF CRITERION MULTIPLIED BY 0.0001
 *              (DEFAULT SCF CRITERION = 0.00010)
 *  GRADIENTS  - ALL GRADIENTS TO BE PRINTED
 *  DISP       - PRINT DISPERSION AND HYDROGEN BOND ENERGIES
 *******************************************************************************
PM7 1SCF GRADIENTS DISP RELSCF=0.0001 CHARGE=1
 Title: ASE calculation

   ATOM   CHEMICAL          X               Y               Z
  NUMBER   SYMBOL      (ANGSTROMS)     (ANGSTROMS)     (ANGSTROMS)

     1       O         -3.75842185  *   0.08748263  *  -0.62587625  *
     2       C         -2.68738774  *   0.60551818  *  -0.35927596  *
     3       C         -1.37309437  *   0.09180591  *  -0.78162042  *
     4       C         -0.23748995  *   1.13051300  *  -0.65574190  *
     5       O          0.99718938  *   0.45327763  *  -0.62740021  *
     6       C          1.31659651  *  -0.21714677  *   0.53125966  *
     7       O          0.52882579  *  -0.26110407  *   1.43578308  *
     8       C          2.69068801  *  -0.83693712  *   0.40323770  *
     9       O          2.80077742  *  -1.48920999  *  -0.82724408  *
    10       H         -2.72291686  *   1.54874264  *   0.28218792  *
    11       H         -1.38810429  *  -0.34900671  *  -1.81387731  *
    12       H         -1.11218721  *  -0.80790434  *  -0.13033308  *
    13       H         -0.14373154  *   1.76711023  *  -1.56286175  *
    14       H         -0.34133206  *   1.76423316  *   0.24737004  *
    15       H          2.81723064  *  -1.65731462  *   1.15298316  *
    16       H          3.48556906  *  -0.07660166  *   0.55351506  *
    17       H          2.97705875  *  -0.84847410  *  -1.55849429  *



          CARTESIAN COORDINATES 

    NO.       ATOM           X           Y           Z

     1         O         -3.7584      0.0875     -0.6259
     2         C         -2.6874      0.6055     -0.3593
     3         C         -1.3731      0.0918     -0.7816
     4         C         -0.2375      1.1305     -0.6557
     5         O          0.9972      0.4533     -0.6274
     6         C          1.3166     -0.2171      0.5313
     7         O          0.5288     -0.2611      1.4358
     8         C          2.6907     -0.8369      0.4032
     9         O          2.8008     -1.4892     -0.8272
    10         H         -2.7229      1.5487      0.2822
    11         H         -1.3881     -0.3490     -1.8139
    12         H         -1.1122     -0.8079     -0.1303
    13         H         -0.1437      1.7671     -1.5629
    14         H         -0.3413      1.7642      0.2474
    15         H          2.8172     -1.6573      1.1530
    16         H          3.4856     -0.0766      0.5535
    17         H          2.9771     -0.8485     -1.5585

 General Reference for PM7:
 "Optimization of Parameters for Semiempirical Methods VI: More Modifications to the 
 NDDO Approximations and Re-optimization of Parameters", J. J. P. Stewart, J. Mol. Mod., 1:32, 19 (2013)
 https://link.springer.com/article/10.1007/s00894-012-1667-x

           Empirical Formula: C5 H8 O4  =    17 atoms



      MOLECULAR POINT GROUP   :   C1  


          UHF CALCULATION, NO. OF ALPHA ELECTRONS =   26
                           NO. OF BETA  ELECTRONS =   25
  SCF CRITERION =    0.1000E-07

 -------------------------------------------------------------------------------
 PM7 1SCF GRADIENTS DISP RELSCF=0.0001 CHARGE=1
 Title: ASE calculation



     1SCF WAS SPECIFIED, SO BFGS WAS NOT USED                 
     SCF FIELD WAS ACHIEVED                                   


                              PM7 CALCULATION
                                                       MOPAC v23.2 Linux
                                                       Fri Sep 19 21:28:12 2025




          FINAL HEAT OF FORMATION =         59.35511 KCAL/MOL =     248.34178 KJ/MOL

          TOTAL ENERGY            =     -43666.36624 KCAL/MOL = ELECTRONIC ENERGY + CORE-CORE REPULSION
          ENERGY OF ATOMS         =      43727.36230 KCAL/MOL
                              SUM =         60.99607 KCAL/MOL
          DISPERSION ENERGY       =         -1.64096 KCAL/MOL
                              SUM =         59.35511 KCAL/MOL = FINAL HEAT OF FORMATION



          TOTAL ENERGY            =      -1893.55286 EV
          ELECTRONIC ENERGY       =      -7954.73782 EV 
          CORE-CORE REPULSION     =       6061.18496 EV
          COSMO AREA              =        163.39 SQUARE ANGSTROMS
          COSMO VOLUME            =        155.00 CUBIC ANGSTROMS

          GRADIENT NORM           =          1.09436          =       0.26542 PER ATOM
          IONIZATION POTENTIAL    =         14.055873 EV
          ALPHA SOMO LUMO (EV)    =        -14.057 -6.941
          BETA  SOMO LUMO (EV)    =        -14.056 -9.049
          NO. OF ALPHA ELECTRONS  =         26
          NO. OF BETA  ELECTRONS  =         25
          MOLECULAR WEIGHT        =        132.1158         POINT GROUP:  C1  

          MOLECULAR DIMENSIONS (Angstroms)

            Atom       Atom       Distance
            H    16    O     1     7.34121
            H    15    H    13     4.00915
            H    10    H    17     3.53485


          SCF CALCULATIONS        =          1

          WALL-CLOCK TIME         =      0.609 SECONDS
          COMPUTATION TIME        =      0.628 SECONDS

          LARGEST ATOMIC GRADIENTS

          Atom     Label                     Cartesian Gradients           Cartesian Coordinates       |Gradient|
                                           X          Y          Z        X          Y          Z

             1       O                  -0.348     -0.078     -0.120   -3.75842    0.08748   -0.62588      0.377
            13       H                  -0.066      0.317     -0.118   -0.14373    1.76711   -1.56286      0.344
            15       H                   0.333      0.008     -0.088    2.81723   -1.65731    1.15298      0.344
            11       H                  -0.018     -0.340      0.031   -1.38810   -0.34901   -1.81388      0.342
             4       C                   0.077      0.300     -0.096   -0.23749    1.13051   -0.65574      0.324
            14       H                  -0.085     -0.269      0.125   -0.34133    1.76423    0.24737      0.309
             5       O                  -0.116      0.135      0.246    0.99719    0.45328   -0.62740      0.304
            10       H                   0.158      0.127     -0.205   -2.72292    1.54874    0.28219      0.289
             3       C                   0.057      0.249     -0.051   -1.37309    0.09181   -0.78162      0.260
            12       H                  -0.104     -0.145      0.184   -1.11219   -0.80790   -0.13033      0.256



       FINAL  POINT  AND  DERIVATIVES

   PARAMETER     ATOM    TYPE            VALUE        GRADIENT
      1          1  O    CARTESIAN X    -3.758422     -0.348347  KCAL/ANGSTROM
      2          1  O    CARTESIAN Y     0.087483     -0.078304  KCAL/ANGSTROM
      3          1  O    CARTESIAN Z    -0.625876     -0.119542  KCAL/ANGSTROM
      4          2  C    CARTESIAN X    -2.687388      0.240694  KCAL/ANGSTROM
      5          2  C    CARTESIAN Y     0.605518     -0.025948  KCAL/ANGSTROM
      6          2  C    CARTESIAN Z    -0.359276      0.011027  KCAL/ANGSTROM
      7          3  C    CARTESIAN X    -1.373094      0.056572  KCAL/ANGSTROM
      8          3  C    CARTESIAN Y     0.091806      0.249130  KCAL/ANGSTROM
      9          3  C    CARTESIAN Z    -0.781620     -0.050652  KCAL/ANGSTROM
     10          4  C    CARTESIAN X    -0.237490      0.077307  KCAL/ANGSTROM
     11          4  C    CARTESIAN Y     1.130513      0.299520  KCAL/ANGSTROM
     12          4  C    CARTESIAN Z    -0.655742     -0.095702  KCAL/ANGSTROM
     13          5  O    CARTESIAN X     0.997189     -0.116111  KCAL/ANGSTROM
     14          5  O    CARTESIAN Y     0.453278      0.135423  KCAL/ANGSTROM
     15          5  O    CARTESIAN Z    -0.627400      0.245760  KCAL/ANGSTROM
     16          6  C    CARTESIAN X     1.316597     -0.099756  KCAL/ANGSTROM
     17          6  C    CARTESIAN Y    -0.217147     -0.111019  KCAL/ANGSTROM
     18          6  C    CARTESIAN Z     0.531260     -0.008415  KCAL/ANGSTROM
     19          7  O    CARTESIAN X     0.528826      0.110031  KCAL/ANGSTROM
     20          7  O    CARTESIAN Y    -0.261104     -0.043873  KCAL/ANGSTROM
     21          7  O    CARTESIAN Z     1.435783      0.177024  KCAL/ANGSTROM
     22          8  C    CARTESIAN X     2.690688     -0.154018  KCAL/ANGSTROM
     23          8  C    CARTESIAN Y    -0.836937      0.031597  KCAL/ANGSTROM
     24          8  C    CARTESIAN Z     0.403238     -0.087751  KCAL/ANGSTROM
     25          9  O    CARTESIAN X     2.800777      0.006671  KCAL/ANGSTROM
     26          9  O    CARTESIAN Y    -1.489210      0.039790  KCAL/ANGSTROM
     27          9  O    CARTESIAN Z    -0.827244     -0.015870  KCAL/ANGSTROM
     28         10  H    CARTESIAN X    -2.722917      0.158007  KCAL/ANGSTROM
     29         10  H    CARTESIAN Y     1.548743      0.127144  KCAL/ANGSTROM
     30         10  H    CARTESIAN Z     0.282188     -0.205323  KCAL/ANGSTROM
     31         11  H    CARTESIAN X    -1.388104     -0.018167  KCAL/ANGSTROM
     32         11  H    CARTESIAN Y    -0.349007     -0.340488  KCAL/ANGSTROM
     33         11  H    CARTESIAN Z    -1.813877      0.031041  KCAL/ANGSTROM
     34         12  H    CARTESIAN X    -1.112187     -0.104414  KCAL/ANGSTROM
     35         12  H    CARTESIAN Y    -0.807904     -0.144727  KCAL/ANGSTROM
     36         12  H    CARTESIAN Z    -0.130333      0.183836  KCAL/ANGSTROM
     37         13  H    CARTESIAN X    -0.143732     -0.065690  KCAL/ANGSTROM
     38         13  H    CARTESIAN Y     1.767110      0.316686  KCAL/ANGSTROM
     39         13  H    CARTESIAN Z    -1.562862     -0.117798  KCAL/ANGSTROM
     40         14  H    CARTESIAN X    -0.341332     -0.084905  KCAL/ANGSTROM
     41         14  H    CARTESIAN Y     1.764233     -0.269382  KCAL/ANGSTROM
     42         14  H    CARTESIAN Z     0.247370      0.124608  KCAL/ANGSTROM
     43         15  H    CARTESIAN X     2.817231      0.332660  KCAL/ANGSTROM
     44         15  H    CARTESIAN Y    -1.657315      0.007833  KCAL/ANGSTROM
     45         15  H    CARTESIAN Z     1.152983     -0.087900  KCAL/ANGSTROM
     46         16  H    CARTESIAN X     3.485569      0.011907  KCAL/ANGSTROM
     47         16  H    CARTESIAN Y    -0.076602     -0.026648  KCAL/ANGSTROM
     48         16  H    CARTESIAN Z     0.553515      0.046826  KCAL/ANGSTROM
     49         17  H    CARTESIAN X     2.977059     -0.002436  KCAL/ANGSTROM
     50         17  H    CARTESIAN Y    -0.848474     -0.166735  KCAL/ANGSTROM
     51         17  H    CARTESIAN Z    -1.558494     -0.031170  KCAL/ANGSTROM




   ATOM   CHEMICAL          X               Y               Z
  NUMBER   SYMBOL      (ANGSTROMS)     (ANGSTROMS)     (ANGSTROMS)

     1       O         -3.75842185  *   0.08748263  *  -0.62587625  *
     2       C         -2.68738774  *   0.60551818  *  -0.35927596  *
     3       C         -1.37309437  *   0.09180591  *  -0.78162042  *
     4       C         -0.23748995  *   1.13051300  *  -0.65574190  *
     5       O          0.99718938  *   0.45327763  *  -0.62740021  *
     6       C          1.31659651  *  -0.21714677  *   0.53125966  *
     7       O          0.52882579  *  -0.26110407  *   1.43578308  *
     8       C          2.69068801  *  -0.83693712  *   0.40323770  *
     9       O          2.80077742  *  -1.48920999  *  -0.82724408  *
    10       H         -2.72291686  *   1.54874264  *   0.28218792  *
    11       H         -1.38810429  *  -0.34900671  *  -1.81387731  *
    12       H         -1.11218721  *  -0.80790434  *  -0.13033308  *
    13       H         -0.14373154  *   1.76711023  *  -1.56286175  *
    14       H         -0.34133206  *   1.76423316  *   0.24737004  *
    15       H          2.81723064  *  -1.65731462  *   1.15298316  *
    16       H          3.48556906  *  -0.07660166  *   0.55351506  *
    17       H          2.97705875  *  -0.84847410  *  -1.55849429  *

                             CARTESIAN COORDINATES

   1    O       -3.758421851     0.087482632    -0.625876252
   2    C       -2.687387743     0.605518179    -0.359275958
   3    C       -1.373094367     0.091805913    -0.781620420
   4    C       -0.237489955     1.130513003    -0.655741899
   5    O        0.997189383     0.453277630    -0.627400214
   6    C        1.316596515    -0.217146772     0.531259661
   7    O        0.528825789    -0.261104067     1.435783075
   8    C        2.690688012    -0.836937121     0.403237697
   9    O        2.800777415    -1.489209989    -0.827244084
  10    H       -2.722916857     1.548742642     0.282187920
  11    H       -1.388104287    -0.349006713    -1.813877307
  12    H       -1.112187212    -0.807904341    -0.130333076
  13    H       -0.143731538     1.767110232    -1.562861749
  14    H       -0.341332063     1.764233161     0.247370036
  15    H        2.817230640    -1.657314622     1.152983162
  16    H        3.485569063    -0.076601657     0.553515060
  17    H        2.977058755    -0.848474104    -1.558494285


           Empirical Formula: C5 H8 O4  =    17 atoms



      MOLECULAR POINT GROUP   :   C1  


          ALPHA EIGENVALUES  
 -41.75389 -35.69905 -34.38893 -33.65038 -33.05167 -29.66557 -28.38912 -27.00078
 -24.65938 -23.50773 -22.80627 -22.53813 -21.49307 -20.95572 -20.64014 -19.93259
 -19.36525 -18.80160 -18.27895 -18.07349 -17.73970 -16.93721 -15.81269 -15.56144
 -15.28578 -14.05733  -6.94099  -3.88661  -3.25173  -2.95257  -2.53038  -2.45294
  -1.69130  -0.72281  -0.64972  -0.51202   0.03032   0.29366   0.74815   0.97202
   1.35308   1.71405   2.02612   2.69754


           BETA EIGENVALUES 
 -38.69079 -35.66016 -34.29873 -33.49697 -32.87889 -29.45505 -28.00302 -26.60061
 -24.46669 -22.67372 -22.14636 -21.97778 -21.34595 -20.82853 -20.45672 -19.62877
 -19.13944 -18.30607 -18.06879 -17.69712 -16.94116 -15.81163 -15.54665 -15.28270
 -14.05587  -9.04857  -6.73229  -3.37062  -3.04149  -2.85303  -2.43042  -2.13076
  -1.63824  -0.71685  -0.64843  -0.50454   0.03274   0.29100   0.74876   0.97205
   1.35385   1.71442   2.02618   2.69762


              NET ATOMIC CHARGES AND DIPOLE CONTRIBUTIONS

  ATOM NO.   TYPE          CHARGE      No. of ELECS.   s-Pop       p-Pop       
    1          O           0.219654        5.7803     1.90599     3.87436
    2          C           0.216451        3.7835     1.20131     2.58224
    3          C          -0.371192        4.3712     1.08617     3.28502
    4          C          -0.003145        4.0031     1.09172     2.91142
    5          O          -0.410715        6.4107     1.86858     4.54214
    6          C           0.558796        3.4412     1.16573     2.27548
    7          O          -0.497469        6.4975     1.87532     4.62215
    8          C          -0.058998        4.0590     1.09488     2.96412
    9          O          -0.473653        6.4737     1.85352     4.62014
   10          H           0.286085        0.7139     0.71392
   11          H           0.233775        0.7662     0.76623
   12          H           0.266246        0.7338     0.73375
   13          H           0.177805        0.8222     0.82219
   14          H           0.154885        0.8451     0.84511
   15          H           0.203289        0.7967     0.79671
   16          H           0.171530        0.8285     0.82847
   17          H           0.326657        0.6733     0.67334
 DIPOLE           X         Y         Z       TOTAL
 POINT-CHG.    -8.279     4.142    -1.604     9.395
 HYBRID        -0.982    -0.067    -0.304     1.030
 SUM           -9.261     4.075    -1.908    10.296


          ATOMIC ORBITAL ELECTRON POPULATIONS

     Atom    s        px        py        pz   
    1  O   1.90599   1.21720   1.27649   1.38067
    2  C   1.20131   0.92398   0.90533   0.75294
    3  C   1.08617   0.92180   1.14847   1.21476
    4  C   1.09172   0.80040   0.94629   1.16473
    5  O   1.86858   1.38839   1.65536   1.49839
    6  C   1.16573   0.86337   0.68779   0.72431
    7  O   1.87532   1.54898   1.60986   1.46332
    8  C   1.09488   0.96414   1.08674   0.91324
    9  O   1.85352   1.94415   1.41492   1.26106
   10  H   0.71392
   11  H   0.76623
   12  H   0.73375
   13  H   0.82219
   14  H   0.84511
   15  H   0.79671
   16  H   0.82847
   17  H   0.67334


                    (SZ)    =    0.500000
                    (S**2)  =    0.767761


          ATOMIC ORBITAL SPIN POPULATIONS

    Atom   Total    s     px     py     pz   
         Atomic
    1  O  0.9062  0.018  0.161  0.445  0.282
    2  C -0.1210 -0.020 -0.026 -0.023 -0.052
    3  C  0.1121  0.008  0.078  0.019  0.007
    4  C -0.0057 -0.001 -0.002 -0.002 -0.000
    5  O  0.0056  0.000  0.006 -0.000 -0.000
    6  C -0.0003 -0.000 -0.000  0.000 -0.000
    7  O  0.0001 -0.000 -0.000  0.000 -0.000
    8  C  0.0003  0.000  0.000  0.000  0.000
    9  O  0.0001  0.000  0.000  0.000 -0.000
   10  H  0.1137  0.114
   11  H -0.0036 -0.004
   12  H -0.0076 -0.008
   13  H  0.0000  0.000
   14  H  0.0002  0.000
   15  H  0.0000  0.000
   16  H -0.0000 -0.000
   17  H -0.0000 -0.000

 **********************
 *                    *
 * JOB ENDED NORMALLY *
 *                    *
 **********************



 TOTAL JOB TIME:             0.95 SECONDS

 == MOPAC DONE ==
