 *******************************************************************************
 **                                                                           **
 **                              MOPAC v23.2                                  **
 **                                                                           **
 *******************************************************************************
 **          Digital Object Identifier (DOI): 10.5281/zenodo.6511958          **
 **    Visit the DOI location for information on how to cite this program.    **
 *******************************************************************************

                              PM7 CALCULATION RESULTS

 *******************************************************************************
 *  CALCULATION DONE: (MAX THREADS = 40)             Fri Sep 19 22:02:31 2025  *
 *  PM7        - The PM7 Hamiltonian to be used
 *  1SCF       - DO 1 SCF AND THEN STOP 
 *  T=         - A TIME OF 172800.0 SECONDS REQUESTED
 *  DUMP=N     - RESTART FILE WRITTEN EVERY 7200.0 SECONDS REQUESTED
 *  RELSCF     - DEFAULT SCF CRITERION MULTIPLIED BY 0.0001
 *              (DEFAULT SCF CRITERION = 0.00010)
 *  GRADIENTS  - ALL GRADIENTS TO BE PRINTED
 *  DISP       - PRINT DISPERSION AND HYDROGEN BOND ENERGIES
 *******************************************************************************
PM7 1SCF GRADIENTS DISP RELSCF=0.0001
 Title: ASE calculation

   ATOM   CHEMICAL          X               Y               Z
  NUMBER   SYMBOL      (ANGSTROMS)     (ANGSTROMS)     (ANGSTROMS)

     1       C          2.49515911  *  -0.93920478  *   1.04979597  *
     2       O          1.07490768  *  -0.85901468  *   1.14187534  *
     3       C          0.50076151  *  -0.37686961  *   0.02118984  *
     4       C          0.45951040  *  -0.96109785  *  -1.46044038  *
     5       N         -0.46916528  *   0.29794678  *  -1.51170967  *
     6       C          0.62302467  *   1.04900277  *  -0.67894422  *
     7       C         -1.03284485  *  -0.18295229  *  -0.15674417  *
     8       C         -2.24459054  *  -1.00468512  *   0.10558679  *
     9       C         -2.12962531  *   0.40890932  *   0.65523423  *
    10       H          2.92733456  *   0.05446514  *   0.89955670  *
    11       H          2.79042301  *  -1.62211925  *   0.24784605  *
    12       H          2.78177014  *  -1.34327071  *   2.02882013  *
    13       H          1.35201787  *  -0.89516845  *  -2.07478531  *
    14       H         -0.04984322  *  -1.90865303  *  -1.62488750  *
    15       H          0.26156823  *   1.92032718  *  -0.13621089  *
    16       H          1.52966097  *   1.28814164  *  -1.22590972  *
    17       H         -2.18780097  *  -1.85614516  *   0.77933090  *
    18       H         -2.94318310  *  -1.20638482  *  -0.70517066  *
    19       H         -2.74767224  *   1.19831307  *   0.22986176  *
    20       H         -1.99058183  *   0.56770312  *   1.72182538  *



          CARTESIAN COORDINATES 

    NO.       ATOM           X           Y           Z

     1         C          2.4952     -0.9392      1.0498
     2         O          1.0749     -0.8590      1.1419
     3         C          0.5008     -0.3769      0.0212
     4         C          0.4595     -0.9611     -1.4604
     5         N         -0.4692      0.2979     -1.5117
     6         C          0.6230      1.0490     -0.6789
     7         C         -1.0328     -0.1830     -0.1567
     8         C         -2.2446     -1.0047      0.1056
     9         C         -2.1296      0.4089      0.6552
    10         H          2.9273      0.0545      0.8996
    11         H          2.7904     -1.6221      0.2478
    12         H          2.7818     -1.3433      2.0288
    13         H          1.3520     -0.8952     -2.0748
    14         H         -0.0498     -1.9087     -1.6249
    15         H          0.2616      1.9203     -0.1362
    16         H          1.5297      1.2881     -1.2259
    17         H         -2.1878     -1.8561      0.7793
    18         H         -2.9432     -1.2064     -0.7052
    19         H         -2.7477      1.1983      0.2299
    20         H         -1.9906      0.5677      1.7218

 General Reference for PM7:
 "Optimization of Parameters for Semiempirical Methods VI: More Modifications to the 
 NDDO Approximations and Re-optimization of Parameters", J. J. P. Stewart, J. Mol. Mod., 1:32, 19 (2013)
 https://link.springer.com/article/10.1007/s00894-012-1667-x

           Empirical Formula: C7 H11 N O  =    20 atoms



      MOLECULAR POINT GROUP   :   Cs  


      RHF CALCULATION, NO. OF DOUBLY OCCUPIED LEVELS = 25

  SCF CRITERION =    0.1000E-07

 -------------------------------------------------------------------------------
 PM7 1SCF GRADIENTS DISP RELSCF=0.0001
 Title: ASE calculation



     1SCF WAS SPECIFIED, SO BFGS WAS NOT USED                 
     SCF FIELD WAS ACHIEVED                                   


                              PM7 CALCULATION
                                                       MOPAC v23.2 Linux
                                                       Fri Sep 19 22:02:31 2025




          FINAL HEAT OF FORMATION =         84.80982 KCAL/MOL =     354.84428 KJ/MOL

          TOTAL ENERGY            =     -34237.19588 KCAL/MOL = ELECTRONIC ENERGY + CORE-CORE REPULSION
          ENERGY OF ATOMS         =      34323.93363 KCAL/MOL
                              SUM =         86.73776 KCAL/MOL
          DISPERSION ENERGY       =         -1.92794 KCAL/MOL
                              SUM =         84.80982 KCAL/MOL = FINAL HEAT OF FORMATION



          TOTAL ENERGY            =      -1484.66533 EV
          ELECTRONIC ENERGY       =      -7558.72641 EV 
          CORE-CORE REPULSION     =       6074.06108 EV
          COSMO AREA              =        165.19 SQUARE ANGSTROMS
          COSMO VOLUME            =        167.18 CUBIC ANGSTROMS

          GRADIENT NORM           =          1.24675          =       0.27878 PER ATOM
          IONIZATION POTENTIAL    =         10.101271 EV
          HOMO LUMO ENERGIES (EV) =        -10.101  1.718
          NO. OF FILLED LEVELS    =         25
          MOLECULAR WEIGHT        =        125.1700         POINT GROUP:  Cs  

          MOLECULAR DIMENSIONS (Angstroms)

            Atom       Atom       Distance
            H    19    H    12     6.34591
            H    17    H    16     5.07297
            H    14    H    20     4.19078


          SCF CALCULATIONS        =          1

          WALL-CLOCK TIME         =      0.367 SECONDS
          COMPUTATION TIME        =      1.176 SECONDS

          LARGEST ATOMIC GRADIENTS

          Atom     Label                     Cartesian Gradients           Cartesian Coordinates       |Gradient|
                                           X          Y          Z        X          Y          Z

            12       H                   0.439     -0.001     -0.083    2.78177   -1.34327    2.02882      0.446
            10       H                  -0.201     -0.168     -0.274    2.92733    0.05447    0.89956      0.379
            11       H                  -0.150      0.331     -0.076    2.79042   -1.62212    0.24785      0.371
            16       H                   0.219     -0.114      0.219    1.52966    1.28814   -1.22591      0.330
            13       H                   0.217     -0.096      0.223    1.35202   -0.89517   -2.07479      0.325
             9       C                  -0.132      0.166      0.228   -2.12963    0.40891    0.65523      0.311
             8       C                  -0.168     -0.251      0.067   -2.24459   -1.00469    0.10559      0.309
            20       H                  -0.003      0.298      0.056   -1.99058    0.56770    1.72183      0.304
            17       H                  -0.050     -0.249     -0.155   -2.18780   -1.85615    0.77933      0.298
            15       H                   0.127      0.150      0.223    0.26157    1.92033   -0.13621      0.297



       FINAL  POINT  AND  DERIVATIVES

   PARAMETER     ATOM    TYPE            VALUE        GRADIENT
      1          1  C    CARTESIAN X     2.495159     -0.183507  KCAL/ANGSTROM
      2          1  C    CARTESIAN Y    -0.939205      0.011640  KCAL/ANGSTROM
      3          1  C    CARTESIAN Z     1.049796      0.004169  KCAL/ANGSTROM
      4          2  O    CARTESIAN X     1.074908     -0.253342  KCAL/ANGSTROM
      5          2  O    CARTESIAN Y    -0.859015      0.055065  KCAL/ANGSTROM
      6          2  O    CARTESIAN Z     1.141875     -0.112129  KCAL/ANGSTROM
      7          3  C    CARTESIAN X     0.500762     -0.028107  KCAL/ANGSTROM
      8          3  C    CARTESIAN Y    -0.376870      0.070309  KCAL/ANGSTROM
      9          3  C    CARTESIAN Z     0.021190     -0.183430  KCAL/ANGSTROM
     10          4  C    CARTESIAN X     0.459510     -0.034628  KCAL/ANGSTROM
     11          4  C    CARTESIAN Y    -0.961098     -0.122417  KCAL/ANGSTROM
     12          4  C    CARTESIAN Z    -1.460440     -0.145797  KCAL/ANGSTROM
     13          5  N    CARTESIAN X    -0.469165      0.236089  KCAL/ANGSTROM
     14          5  N    CARTESIAN Y     0.297947     -0.039832  KCAL/ANGSTROM
     15          5  N    CARTESIAN Z    -1.511710      0.055740  KCAL/ANGSTROM
     16          6  C    CARTESIAN X     0.623025     -0.005492  KCAL/ANGSTROM
     17          6  C    CARTESIAN Y     1.049003      0.188425  KCAL/ANGSTROM
     18          6  C    CARTESIAN Z    -0.678944     -0.021012  KCAL/ANGSTROM
     19          7  C    CARTESIAN X    -1.032845      0.020342  KCAL/ANGSTROM
     20          7  C    CARTESIAN Y    -0.182952      0.018961  KCAL/ANGSTROM
     21          7  C    CARTESIAN Z    -0.156744     -0.052685  KCAL/ANGSTROM
     22          8  C    CARTESIAN X    -2.244591     -0.167817  KCAL/ANGSTROM
     23          8  C    CARTESIAN Y    -1.004685     -0.251002  KCAL/ANGSTROM
     24          8  C    CARTESIAN Z     0.105587      0.067257  KCAL/ANGSTROM
     25          9  C    CARTESIAN X    -2.129625     -0.131629  KCAL/ANGSTROM
     26          9  C    CARTESIAN Y     0.408909      0.165520  KCAL/ANGSTROM
     27          9  C    CARTESIAN Z     0.655234      0.228436  KCAL/ANGSTROM
     28         10  H    CARTESIAN X     2.927335     -0.200582  KCAL/ANGSTROM
     29         10  H    CARTESIAN Y     0.054465     -0.167860  KCAL/ANGSTROM
     30         10  H    CARTESIAN Z     0.899557     -0.274355  KCAL/ANGSTROM
     31         11  H    CARTESIAN X     2.790423     -0.150397  KCAL/ANGSTROM
     32         11  H    CARTESIAN Y    -1.622119      0.330802  KCAL/ANGSTROM
     33         11  H    CARTESIAN Z     0.247846     -0.075858  KCAL/ANGSTROM
     34         12  H    CARTESIAN X     2.781770      0.438513  KCAL/ANGSTROM
     35         12  H    CARTESIAN Y    -1.343271     -0.000703  KCAL/ANGSTROM
     36         12  H    CARTESIAN Z     2.028820     -0.083468  KCAL/ANGSTROM
     37         13  H    CARTESIAN X     1.352018      0.217068  KCAL/ANGSTROM
     38         13  H    CARTESIAN Y    -0.895168     -0.095707  KCAL/ANGSTROM
     39         13  H    CARTESIAN Z    -2.074785      0.222664  KCAL/ANGSTROM
     40         14  H    CARTESIAN X    -0.049843      0.086348  KCAL/ANGSTROM
     41         14  H    CARTESIAN Y    -1.908653     -0.275109  KCAL/ANGSTROM
     42         14  H    CARTESIAN Z    -1.624888      0.050494  KCAL/ANGSTROM
     43         15  H    CARTESIAN X     0.261568      0.127004  KCAL/ANGSTROM
     44         15  H    CARTESIAN Y     1.920327      0.150289  KCAL/ANGSTROM
     45         15  H    CARTESIAN Z    -0.136211      0.222878  KCAL/ANGSTROM
     46         16  H    CARTESIAN X     1.529661      0.219172  KCAL/ANGSTROM
     47         16  H    CARTESIAN Y     1.288142     -0.114106  KCAL/ANGSTROM
     48         16  H    CARTESIAN Z    -1.225910      0.218618  KCAL/ANGSTROM
     49         17  H    CARTESIAN X    -2.187801     -0.050245  KCAL/ANGSTROM
     50         17  H    CARTESIAN Y    -1.856145     -0.249028  KCAL/ANGSTROM
     51         17  H    CARTESIAN Z     0.779331     -0.154890  KCAL/ANGSTROM
     52         18  H    CARTESIAN X    -2.943183     -0.064507  KCAL/ANGSTROM
     53         18  H    CARTESIAN Y    -1.206385      0.082788  KCAL/ANGSTROM
     54         18  H    CARTESIAN Z    -0.705171      0.016746  KCAL/ANGSTROM
     55         19  H    CARTESIAN X    -2.747672     -0.071140  KCAL/ANGSTROM
     56         19  H    CARTESIAN Y     1.198313     -0.056455  KCAL/ANGSTROM
     57         19  H    CARTESIAN Z     0.229862     -0.039573  KCAL/ANGSTROM
     58         20  H    CARTESIAN X    -1.990582     -0.003148  KCAL/ANGSTROM
     59         20  H    CARTESIAN Y     0.567703      0.298414  KCAL/ANGSTROM
     60         20  H    CARTESIAN Z     1.721825      0.056191  KCAL/ANGSTROM




   ATOM   CHEMICAL          X               Y               Z
  NUMBER   SYMBOL      (ANGSTROMS)     (ANGSTROMS)     (ANGSTROMS)

     1       C          2.49515911  *  -0.93920478  *   1.04979597  *
     2       O          1.07490768  *  -0.85901468  *   1.14187534  *
     3       C          0.50076151  *  -0.37686961  *   0.02118984  *
     4       C          0.45951040  *  -0.96109785  *  -1.46044038  *
     5       N         -0.46916528  *   0.29794678  *  -1.51170967  *
     6       C          0.62302467  *   1.04900277  *  -0.67894422  *
     7       C         -1.03284485  *  -0.18295229  *  -0.15674417  *
     8       C         -2.24459054  *  -1.00468512  *   0.10558679  *
     9       C         -2.12962531  *   0.40890932  *   0.65523423  *
    10       H          2.92733456  *   0.05446514  *   0.89955670  *
    11       H          2.79042301  *  -1.62211925  *   0.24784605  *
    12       H          2.78177014  *  -1.34327071  *   2.02882013  *
    13       H          1.35201787  *  -0.89516845  *  -2.07478531  *
    14       H         -0.04984322  *  -1.90865303  *  -1.62488750  *
    15       H          0.26156823  *   1.92032718  *  -0.13621089  *
    16       H          1.52966097  *   1.28814164  *  -1.22590972  *
    17       H         -2.18780097  *  -1.85614516  *   0.77933090  *
    18       H         -2.94318310  *  -1.20638482  *  -0.70517066  *
    19       H         -2.74767224  *   1.19831307  *   0.22986176  *
    20       H         -1.99058183  *   0.56770312  *   1.72182538  *

                             CARTESIAN COORDINATES

   1    C        2.495159109    -0.939204777     1.049795975
   2    O        1.074907685    -0.859014682     1.141875336
   3    C        0.500761514    -0.376869615     0.021189842
   4    C        0.459510405    -0.961097853    -1.460440382
   5    N       -0.469165282     0.297946779    -1.511709668
   6    C        0.623024666     1.049002771    -0.678944222
   7    C       -1.032844853    -0.182952288    -0.156744170
   8    C       -2.244590540    -1.004685120     0.105586787
   9    C       -2.129625305     0.408909323     0.655234230
  10    H        2.927334555     0.054465144     0.899556702
  11    H        2.790423014    -1.622119248     0.247846054
  12    H        2.781770138    -1.343270713     2.028820132
  13    H        1.352017866    -0.895168447    -2.074785307
  14    H       -0.049843223    -1.908653027    -1.624887501
  15    H        0.261568230     1.920327178    -0.136210889
  16    H        1.529660972     1.288141636    -1.225909718
  17    H       -2.187800972    -1.856145163     0.779330897
  18    H       -2.943183100    -1.206384818    -0.705170664
  19    H       -2.747672242     1.198313067     0.229861763
  20    H       -1.990581825     0.567703123     1.721825382


           Empirical Formula: C7 H11 N O  =    20 atoms



      MOLECULAR POINT GROUP   :   Cs  


                  EIGENVALUES  
 -36.65542 -30.46053 -29.75643 -24.99414 -23.64334 -23.59691 -21.38115 -20.85304
 -18.43714 -17.25547 -16.64437 -16.49145 -15.94867 -15.16187 -15.13470 -13.39504
 -13.31202 -12.89534 -12.56571 -12.55089 -12.18177 -11.33168 -11.25772 -10.26151
 -10.10127   1.71760   1.99433   2.25901   2.68097   2.69736   3.29858   3.43572
   3.84677   4.26818   4.34052   4.54751   5.21765   5.30909   5.47893   5.57010
   5.62350   5.87980   5.99345   6.02504   6.06515   6.33598   6.36853


              NET ATOMIC CHARGES AND DIPOLE CONTRIBUTIONS

  ATOM NO.   TYPE          CHARGE      No. of ELECS.   s-Pop       p-Pop       
    1          C          -0.197663        4.1977     1.08581     3.11185
    2          O          -0.326825        6.3268     1.86525     4.46157
    3          C           0.184459        3.8155     1.12802     2.68752
    4          C          -0.226348        4.2263     1.11242     3.11393
    5          N          -0.309343        5.3093     1.81701     3.49233
    6          C          -0.226357        4.2264     1.11244     3.11391
    7          C           0.043476        3.9565     1.06648     2.89005
    8          C          -0.321122        4.3211     1.05276     3.26837
    9          C          -0.321099        4.3211     1.05277     3.26833
   10          H           0.131087        0.8689     0.86891
   11          H           0.131075        0.8689     0.86892
   12          H           0.153600        0.8464     0.84640
   13          H           0.147326        0.8527     0.85267
   14          H           0.155250        0.8448     0.84475
   15          H           0.155257        0.8447     0.84474
   16          H           0.147321        0.8527     0.85268
   17          H           0.166785        0.8332     0.83322
   18          H           0.173167        0.8268     0.82683
   19          H           0.173167        0.8268     0.82683
   20          H           0.166786        0.8332     0.83321
 DIPOLE           X         Y         Z       TOTAL
 POINT-CHG.     2.207    -0.481     0.774     2.388
 HYBRID         0.143    -0.160     0.381     0.437
 SUM            2.350    -0.641     1.155     2.696


          ATOMIC ORBITAL ELECTRON POPULATIONS

     Atom    s        px        py        pz   
    1  C   1.08581   0.81098   1.14278   1.15809
    2  O   1.86525   1.24664   1.83745   1.37748
    3  C   1.12802   0.92066   0.92413   0.84273
    4  C   1.11242   1.06382   1.01367   1.03644
    5  N   1.81701   1.15224   1.12274   1.21735
    6  C   1.11244   1.03509   1.05001   1.02882
    7  C   1.06648   0.91665   1.06436   0.90904
    8  C   1.05276   1.08933   1.02086   1.15818
    9  C   1.05277   1.10421   1.04263   1.12148
   10  H   0.86891
   11  H   0.86892
   12  H   0.84640
   13  H   0.85267
   14  H   0.84475
   15  H   0.84474
   16  H   0.85268
   17  H   0.83322
   18  H   0.82683
   19  H   0.82683
   20  H   0.83321

 **********************
 *                    *
 * JOB ENDED NORMALLY *
 *                    *
 **********************



 TOTAL JOB TIME:             0.66 SECONDS

 == MOPAC DONE ==
