 *******************************************************************************
 **                                                                           **
 **                              MOPAC v23.2                                  **
 **                                                                           **
 *******************************************************************************
 **          Digital Object Identifier (DOI): 10.5281/zenodo.6511958          **
 **    Visit the DOI location for information on how to cite this program.    **
 *******************************************************************************

                              PM7 CALCULATION RESULTS

 *******************************************************************************
 *  CALCULATION DONE: (MAX THREADS = 40)             Fri Sep 19 21:44:43 2025  *
 *  PM7        - The PM7 Hamiltonian to be used
 *
 *
 *
 *                 CHARGE ON SYSTEM = +1
 *
 *
 *
 *  1SCF       - DO 1 SCF AND THEN STOP 
 *  T=         - A TIME OF 172800.0 SECONDS REQUESTED
 *  DUMP=N     - RESTART FILE WRITTEN EVERY 7200.0 SECONDS REQUESTED
 *  RELSCF     - DEFAULT SCF CRITERION MULTIPLIED BY 0.0001
 *              (DEFAULT SCF CRITERION = 0.00010)
 *  GRADIENTS  - ALL GRADIENTS TO BE PRINTED
 *  DISP       - PRINT DISPERSION AND HYDROGEN BOND ENERGIES
 *******************************************************************************
PM7 1SCF GRADIENTS DISP RELSCF=0.0001 CHARGE=1
 Title: ASE calculation

   ATOM   CHEMICAL          X               Y               Z
  NUMBER   SYMBOL      (ANGSTROMS)     (ANGSTROMS)     (ANGSTROMS)

     1       C          2.82743317  *  -0.77743625  *  -1.21110143  *
     2       C          2.41592574  *   0.14475037  *  -0.06736078  *
     3       C          1.60487654  *  -0.57269786  *   1.01980358  *
     4       C          0.34711026  *  -1.27706937  *   0.51900572  *
     5       C         -0.62197306  *  -0.32709533  *  -0.21178149  *
     6       C         -1.83783857  *  -1.04313891  *  -0.82221192  *
     7       C         -2.75291000  *  -1.68671191  *   0.20608641  *
     8       O         -1.18302685  *   0.42030763  *   0.86602549  *
     9       C         -0.90518296  *   1.77885381  *   0.91713628  *
    10       H          1.98029035  *  -1.10335252  *  -1.82013796  *
    11       H          3.34167115  *  -1.67667141  *  -0.84439980  *
    12       H          3.52978899  *  -0.26996338  *  -1.89053145  *
    13       H          3.33518171  *   0.56801139  *   0.39947897  *
    14       H          1.87073300  *   1.02078078  *  -0.45971075  *
    15       H          2.26260012  *  -1.33713325  *   1.50148837  *
    16       H          1.36673183  *   0.13174980  *   1.83801831  *
    17       H          0.62648308  *  -2.08352246  *  -0.20299404  *
    18       H         -0.15999310  *  -1.80857671  *   1.35283602  *
    19       H         -0.08852954  *   0.30054895  *  -0.96272989  *
    20       H         -2.40962313  *  -0.32896184  *  -1.45553394  *
    21       H         -1.46286784  *  -1.81839154  *  -1.53423172  *
    22       H         -3.20847799  *  -0.96959900  *   0.89789012  *
    23       H         -2.24749640  *  -2.45863351  *   0.80219834  *
    24       H         -3.59774729  *  -2.19911072  *  -0.29110214  *
    25       H         -1.88998207  *   2.28038893  *   1.09051498  *
    26       H         -0.37742818  *   2.21831750  *   0.05915361  *
    27       H         -0.31706883  *   1.94123090  *   1.85675257  *



          CARTESIAN COORDINATES 

    NO.       ATOM           X           Y           Z

     1         C          2.8274     -0.7774     -1.2111
     2         C          2.4159      0.1448     -0.0674
     3         C          1.6049     -0.5727      1.0198
     4         C          0.3471     -1.2771      0.5190
     5         C         -0.6220     -0.3271     -0.2118
     6         C         -1.8378     -1.0431     -0.8222
     7         C         -2.7529     -1.6867      0.2061
     8         O         -1.1830      0.4203      0.8660
     9         C         -0.9052      1.7789      0.9171
    10         H          1.9803     -1.1034     -1.8201
    11         H          3.3417     -1.6767     -0.8444
    12         H          3.5298     -0.2700     -1.8905
    13         H          3.3352      0.5680      0.3995
    14         H          1.8707      1.0208     -0.4597
    15         H          2.2626     -1.3371      1.5015
    16         H          1.3667      0.1317      1.8380
    17         H          0.6265     -2.0835     -0.2030
    18         H         -0.1600     -1.8086      1.3528
    19         H         -0.0885      0.3005     -0.9627
    20         H         -2.4096     -0.3290     -1.4555
    21         H         -1.4629     -1.8184     -1.5342
    22         H         -3.2085     -0.9696      0.8979
    23         H         -2.2475     -2.4586      0.8022
    24         H         -3.5977     -2.1991     -0.2911
    25         H         -1.8900      2.2804      1.0905
    26         H         -0.3774      2.2183      0.0592
    27         H         -0.3171      1.9412      1.8568

 General Reference for PM7:
 "Optimization of Parameters for Semiempirical Methods VI: More Modifications to the 
 NDDO Approximations and Re-optimization of Parameters", J. J. P. Stewart, J. Mol. Mod., 1:32, 19 (2013)
 https://link.springer.com/article/10.1007/s00894-012-1667-x

           Empirical Formula: C8 H18 O  =    27 atoms



      MOLECULAR POINT GROUP   :   C1  


          UHF CALCULATION, NO. OF ALPHA ELECTRONS =   28
                           NO. OF BETA  ELECTRONS =   27
  SCF CRITERION =    0.1000E-07

 -------------------------------------------------------------------------------
 PM7 1SCF GRADIENTS DISP RELSCF=0.0001 CHARGE=1
 Title: ASE calculation



     1SCF WAS SPECIFIED, SO BFGS WAS NOT USED                 
     SCF FIELD WAS ACHIEVED                                   


                              PM7 CALCULATION
                                                       MOPAC v23.2 Linux
                                                       Fri Sep 19 21:44:43 2025




          FINAL HEAT OF FORMATION =        126.09956 KCAL/MOL =     527.60058 KJ/MOL

          TOTAL ENERGY            =     -34882.58051 KCAL/MOL = ELECTRONIC ENERGY + CORE-CORE REPULSION
          ENERGY OF ATOMS         =      35011.76764 KCAL/MOL
                              SUM =        129.18713 KCAL/MOL
          DISPERSION ENERGY       =         -3.08756 KCAL/MOL
                              SUM =        126.09956 KCAL/MOL = FINAL HEAT OF FORMATION



          TOTAL ENERGY            =      -1512.65186 EV
          ELECTRONIC ENERGY       =      -8604.73800 EV 
          CORE-CORE REPULSION     =       7092.08614 EV
          COSMO AREA              =        189.82 SQUARE ANGSTROMS
          COSMO VOLUME            =        199.57 CUBIC ANGSTROMS

          GRADIENT NORM           =          1.26446          =       0.24335 PER ATOM
          IONIZATION POTENTIAL    =         14.983028 EV
          ALPHA SOMO LUMO (EV)    =        -14.983 -4.868
          BETA  SOMO LUMO (EV)    =        -14.987 -7.957
          NO. OF ALPHA ELECTRONS  =         28
          NO. OF BETA  ELECTRONS  =         27
          MOLECULAR WEIGHT        =        130.2296         POINT GROUP:  C1  

          MOLECULAR DIMENSIONS (Angstroms)

            Atom       Atom       Distance
            H    24    H    12     7.55523
            H    25    H    11     5.28986
            H    15    H    20     4.14658


          SCF CALCULATIONS        =          1

          WALL-CLOCK TIME         =      0.820 SECONDS
          COMPUTATION TIME        =      0.687 SECONDS

          LARGEST ATOMIC GRADIENTS

          Atom     Label                     Cartesian Gradients           Cartesian Coordinates       |Gradient|
                                           X          Y          Z        X          Y          Z

            17       H                  -0.060      0.267      0.229    0.62648   -2.08352   -0.20299      0.357
             9       C                  -0.217      0.260     -0.032   -0.90518    1.77885    0.91714      0.340
            10       H                   0.174      0.121     -0.249    1.98029   -1.10335   -1.82014      0.327
            12       H                  -0.115      0.296     -0.068    3.52979   -0.26996   -1.89053      0.324
            18       H                  -0.152     -0.220      0.166   -0.15999   -1.80858    1.35284      0.315
            24       H                  -0.169      0.251      0.068   -3.59775   -2.19911   -0.29110      0.310
             6       C                   0.223     -0.032     -0.209   -1.83784   -1.04314   -0.82221      0.307
             5       C                  -0.068     -0.234     -0.185   -0.62197   -0.32710   -0.21178      0.306
            19       H                   0.052     -0.276     -0.010   -0.08853    0.30055   -0.96273      0.281
             8       O                   0.057      0.076      0.249   -1.18303    0.42031    0.86603      0.267



       FINAL  POINT  AND  DERIVATIVES

   PARAMETER     ATOM    TYPE            VALUE        GRADIENT
      1          1  C    CARTESIAN X     2.827433      0.155244  KCAL/ANGSTROM
      2          1  C    CARTESIAN Y    -0.777436     -0.041830  KCAL/ANGSTROM
      3          1  C    CARTESIAN Z    -1.211101     -0.025468  KCAL/ANGSTROM
      4          2  C    CARTESIAN X     2.415926      0.099114  KCAL/ANGSTROM
      5          2  C    CARTESIAN Y     0.144750      0.017093  KCAL/ANGSTROM
      6          2  C    CARTESIAN Z    -0.067361     -0.028960  KCAL/ANGSTROM
      7          3  C    CARTESIAN X     1.604877      0.041783  KCAL/ANGSTROM
      8          3  C    CARTESIAN Y    -0.572698     -0.012909  KCAL/ANGSTROM
      9          3  C    CARTESIAN Z     1.019804     -0.029818  KCAL/ANGSTROM
     10          4  C    CARTESIAN X     0.347110     -0.181742  KCAL/ANGSTROM
     11          4  C    CARTESIAN Y    -1.277069      0.028281  KCAL/ANGSTROM
     12          4  C    CARTESIAN Z     0.519006      0.138132  KCAL/ANGSTROM
     13          5  C    CARTESIAN X    -0.621973     -0.067812  KCAL/ANGSTROM
     14          5  C    CARTESIAN Y    -0.327095     -0.234306  KCAL/ANGSTROM
     15          5  C    CARTESIAN Z    -0.211781     -0.184663  KCAL/ANGSTROM
     16          6  C    CARTESIAN X    -1.837839      0.222732  KCAL/ANGSTROM
     17          6  C    CARTESIAN Y    -1.043139     -0.032407  KCAL/ANGSTROM
     18          6  C    CARTESIAN Z    -0.822212     -0.208609  KCAL/ANGSTROM
     19          7  C    CARTESIAN X    -2.752910      0.034116  KCAL/ANGSTROM
     20          7  C    CARTESIAN Y    -1.686712      0.069705  KCAL/ANGSTROM
     21          7  C    CARTESIAN Z     0.206086     -0.050582  KCAL/ANGSTROM
     22          8  O    CARTESIAN X    -1.183027      0.057490  KCAL/ANGSTROM
     23          8  O    CARTESIAN Y     0.420308      0.076151  KCAL/ANGSTROM
     24          8  O    CARTESIAN Z     0.866025      0.249337  KCAL/ANGSTROM
     25          9  C    CARTESIAN X    -0.905183     -0.216804  KCAL/ANGSTROM
     26          9  C    CARTESIAN Y     1.778854      0.260350  KCAL/ANGSTROM
     27          9  C    CARTESIAN Z     0.917136     -0.031864  KCAL/ANGSTROM
     28         10  H    CARTESIAN X     1.980290      0.173705  KCAL/ANGSTROM
     29         10  H    CARTESIAN Y    -1.103353      0.121088  KCAL/ANGSTROM
     30         10  H    CARTESIAN Z    -1.820138     -0.249242  KCAL/ANGSTROM
     31         11  H    CARTESIAN X     3.341671      0.044983  KCAL/ANGSTROM
     32         11  H    CARTESIAN Y    -1.676671     -0.222142  KCAL/ANGSTROM
     33         11  H    CARTESIAN Z    -0.844400      0.000761  KCAL/ANGSTROM
     34         12  H    CARTESIAN X     3.529789     -0.114962  KCAL/ANGSTROM
     35         12  H    CARTESIAN Y    -0.269963      0.295577  KCAL/ANGSTROM
     36         12  H    CARTESIAN Z    -1.890531     -0.067563  KCAL/ANGSTROM
     37         13  H    CARTESIAN X     3.335182      0.065884  KCAL/ANGSTROM
     38         13  H    CARTESIAN Y     0.568011     -0.146635  KCAL/ANGSTROM
     39         13  H    CARTESIAN Z     0.399479     -0.094611  KCAL/ANGSTROM
     40         14  H    CARTESIAN X     1.870733      0.021734  KCAL/ANGSTROM
     41         14  H    CARTESIAN Y     1.020781      0.099179  KCAL/ANGSTROM
     42         14  H    CARTESIAN Z    -0.459711      0.163242  KCAL/ANGSTROM
     43         15  H    CARTESIAN X     2.262600     -0.028985  KCAL/ANGSTROM
     44         15  H    CARTESIAN Y    -1.337133      0.254218  KCAL/ANGSTROM
     45         15  H    CARTESIAN Z     1.501488      0.020504  KCAL/ANGSTROM
     46         16  H    CARTESIAN X     1.366732     -0.051619  KCAL/ANGSTROM
     47         16  H    CARTESIAN Y     0.131750     -0.124782  KCAL/ANGSTROM
     48         16  H    CARTESIAN Z     1.838018     -0.127462  KCAL/ANGSTROM
     49         17  H    CARTESIAN X     0.626483     -0.059931  KCAL/ANGSTROM
     50         17  H    CARTESIAN Y    -2.083522      0.267008  KCAL/ANGSTROM
     51         17  H    CARTESIAN Z    -0.202994      0.229320  KCAL/ANGSTROM
     52         18  H    CARTESIAN X    -0.159993     -0.151708  KCAL/ANGSTROM
     53         18  H    CARTESIAN Y    -1.808577     -0.220115  KCAL/ANGSTROM
     54         18  H    CARTESIAN Z     1.352836      0.166011  KCAL/ANGSTROM
     55         19  H    CARTESIAN X    -0.088530      0.051882  KCAL/ANGSTROM
     56         19  H    CARTESIAN Y     0.300549     -0.276063  KCAL/ANGSTROM
     57         19  H    CARTESIAN Z    -0.962730     -0.010070  KCAL/ANGSTROM
     58         20  H    CARTESIAN X    -2.409623      0.240504  KCAL/ANGSTROM
     59         20  H    CARTESIAN Y    -0.328962      0.004352  KCAL/ANGSTROM
     60         20  H    CARTESIAN Z    -1.455534     -0.101891  KCAL/ANGSTROM
     61         21  H    CARTESIAN X    -1.462868     -0.101197  KCAL/ANGSTROM
     62         21  H    CARTESIAN Y    -1.818392     -0.198228  KCAL/ANGSTROM
     63         21  H    CARTESIAN Z    -1.534232     -0.090553  KCAL/ANGSTROM
     64         22  H    CARTESIAN X    -3.208478     -0.111577  KCAL/ANGSTROM
     65         22  H    CARTESIAN Y    -0.969599     -0.046490  KCAL/ANGSTROM
     66         22  H    CARTESIAN Z     0.897890      0.195102  KCAL/ANGSTROM
     67         23  H    CARTESIAN X    -2.247496      0.074009  KCAL/ANGSTROM
     68         23  H    CARTESIAN Y    -2.458634      0.007745  KCAL/ANGSTROM
     69         23  H    CARTESIAN Z     0.802198      0.040791  KCAL/ANGSTROM
     70         24  H    CARTESIAN X    -3.597747     -0.168548  KCAL/ANGSTROM
     71         24  H    CARTESIAN Y    -2.199111      0.250656  KCAL/ANGSTROM
     72         24  H    CARTESIAN Z    -0.291102      0.068397  KCAL/ANGSTROM
     73         25  H    CARTESIAN X    -1.889982     -0.101276  KCAL/ANGSTROM
     74         25  H    CARTESIAN Y     2.280389     -0.017442  KCAL/ANGSTROM
     75         25  H    CARTESIAN Z     1.090515      0.187706  KCAL/ANGSTROM
     76         26  H    CARTESIAN X    -0.377428      0.087370  KCAL/ANGSTROM
     77         26  H    CARTESIAN Y     2.218318     -0.040974  KCAL/ANGSTROM
     78         26  H    CARTESIAN Z     0.059154      0.001103  KCAL/ANGSTROM
     79         27  H    CARTESIAN X    -0.317069     -0.014390  KCAL/ANGSTROM
     80         27  H    CARTESIAN Y     1.941231     -0.137085  KCAL/ANGSTROM
     81         27  H    CARTESIAN Z     1.856753     -0.159052  KCAL/ANGSTROM




   ATOM   CHEMICAL          X               Y               Z
  NUMBER   SYMBOL      (ANGSTROMS)     (ANGSTROMS)     (ANGSTROMS)

     1       C          2.82743317  *  -0.77743625  *  -1.21110143  *
     2       C          2.41592574  *   0.14475037  *  -0.06736078  *
     3       C          1.60487654  *  -0.57269786  *   1.01980358  *
     4       C          0.34711026  *  -1.27706937  *   0.51900572  *
     5       C         -0.62197306  *  -0.32709533  *  -0.21178149  *
     6       C         -1.83783857  *  -1.04313891  *  -0.82221192  *
     7       C         -2.75291000  *  -1.68671191  *   0.20608641  *
     8       O         -1.18302685  *   0.42030763  *   0.86602549  *
     9       C         -0.90518296  *   1.77885381  *   0.91713628  *
    10       H          1.98029035  *  -1.10335252  *  -1.82013796  *
    11       H          3.34167115  *  -1.67667141  *  -0.84439980  *
    12       H          3.52978899  *  -0.26996338  *  -1.89053145  *
    13       H          3.33518171  *   0.56801139  *   0.39947897  *
    14       H          1.87073300  *   1.02078078  *  -0.45971075  *
    15       H          2.26260012  *  -1.33713325  *   1.50148837  *
    16       H          1.36673183  *   0.13174980  *   1.83801831  *
    17       H          0.62648308  *  -2.08352246  *  -0.20299404  *
    18       H         -0.15999310  *  -1.80857671  *   1.35283602  *
    19       H         -0.08852954  *   0.30054895  *  -0.96272989  *
    20       H         -2.40962313  *  -0.32896184  *  -1.45553394  *
    21       H         -1.46286784  *  -1.81839154  *  -1.53423172  *
    22       H         -3.20847799  *  -0.96959900  *   0.89789012  *
    23       H         -2.24749640  *  -2.45863351  *   0.80219834  *
    24       H         -3.59774729  *  -2.19911072  *  -0.29110214  *
    25       H         -1.88998207  *   2.28038893  *   1.09051498  *
    26       H         -0.37742818  *   2.21831750  *   0.05915361  *
    27       H         -0.31706883  *   1.94123090  *   1.85675257  *

                             CARTESIAN COORDINATES

   1    C        2.827433166    -0.777436249    -1.211101427
   2    C        2.415925735     0.144750374    -0.067360784
   3    C        1.604876538    -0.572697856     1.019803578
   4    C        0.347110258    -1.277069369     0.519005721
   5    C       -0.621973065    -0.327095327    -0.211781494
   6    C       -1.837838573    -1.043138906    -0.822211924
   7    C       -2.752909996    -1.686711911     0.206086405
   8    O       -1.183026848     0.420307635     0.866025492
   9    C       -0.905182963     1.778853809     0.917136285
  10    H        1.980290349    -1.103352524    -1.820137957
  11    H        3.341671148    -1.676671414    -0.844399797
  12    H        3.529788989    -0.269963383    -1.890531447
  13    H        3.335181707     0.568011392     0.399478975
  14    H        1.870733000     1.020780784    -0.459710747
  15    H        2.262600115    -1.337133250     1.501488369
  16    H        1.366731831     0.131749804     1.838018308
  17    H        0.626483076    -2.083522455    -0.202994044
  18    H       -0.159993101    -1.808576706     1.352836015
  19    H       -0.088529545     0.300548955    -0.962729891
  20    H       -2.409623134    -0.328961844    -1.455533936
  21    H       -1.462867845    -1.818391542    -1.534231717
  22    H       -3.208477986    -0.969598997     0.897890115
  23    H       -2.247496398    -2.458633512     0.802198341
  24    H       -3.597747295    -2.199110722    -0.291102137
  25    H       -1.889982074     2.280388929     1.090514975
  26    H       -0.377428177     2.218317504     0.059153608
  27    H       -0.317068831     1.941230905     1.856752568


           Empirical Formula: C8 H18 O  =    27 atoms



      MOLECULAR POINT GROUP   :   C1  


          ALPHA EIGENVALUES  
 -39.66136 -34.06973 -32.18686 -30.41692 -29.52350 -28.09191 -26.10901 -25.09113
 -23.35014 -22.93120 -22.50858 -21.18863 -20.20877 -19.71266 -19.61953 -19.01711
 -18.80618 -18.40097 -17.75060 -17.47667 -17.25419 -16.85467 -16.70940 -16.23676
 -15.98705 -15.50264 -15.27346 -14.98303  -4.86789  -2.35032  -1.45418  -1.10693
  -0.54895  -0.19329  -0.15431  -0.08211   0.33791   0.39768   0.47603   0.96601
   1.05553   1.11772   1.65870   1.73275   1.86050   1.92979   2.02698   2.04087
   2.60118   2.70505   2.82677   3.06496   3.07320   3.91006


           BETA EIGENVALUES 
 -36.73265 -33.77658 -32.14017 -29.99003 -29.32467 -27.96631 -26.05999 -24.88657
 -23.21250 -22.69425 -21.18516 -20.99252 -20.03815 -19.62922 -19.36455 -18.78388
 -18.66092 -18.19583 -17.46075 -17.27492 -16.81892 -16.69334 -16.33771 -16.02369
 -15.50217 -15.27325 -14.98725  -7.95711  -4.25990  -2.02870  -1.36437  -1.01058
  -0.38282  -0.16307  -0.10360  -0.06377   0.36038   0.41058   0.50461   0.97842
   1.05876   1.13329   1.66704   1.73599   1.86733   1.93149   2.03169   2.04207
   2.60496   2.70568   2.82711   3.06625   3.07396   3.91012


              NET ATOMIC CHARGES AND DIPOLE CONTRIBUTIONS

  ATOM NO.   TYPE          CHARGE      No. of ELECS.   s-Pop       p-Pop       
    1          C          -0.439338        4.4393     1.05133     3.38801
    2          C          -0.256559        4.2566     1.05487     3.20169
    3          C          -0.291981        4.2920     1.06058     3.23141
    4          C          -0.284096        4.2841     1.07517     3.20893
    5          C          -0.043150        4.0431     1.14267     2.90048
    6          C          -0.277773        4.2778     1.06773     3.21005
    7          C          -0.450439        4.4504     1.05042     3.40001
    8          O           0.234700        5.7653     1.89670     3.86860
    9          C          -0.360555        4.3606     1.11518     3.24537
   10          H           0.133771        0.8662     0.86623
   11          H           0.162829        0.8372     0.83717
   12          H           0.166717        0.8333     0.83328
   13          H           0.163924        0.8361     0.83608
   14          H           0.117052        0.8829     0.88295
   15          H           0.181984        0.8180     0.81802
   16          H           0.133731        0.8663     0.86627
   17          H           0.201711        0.7983     0.79829
   18          H           0.174478        0.8255     0.82552
   19          H           0.183078        0.8169     0.81692
   20          H           0.173685        0.8263     0.82631
   21          H           0.193369        0.8066     0.80663
   22          H           0.152219        0.8478     0.84778
   23          H           0.165140        0.8349     0.83486
   24          H           0.188868        0.8111     0.81113
   25          H           0.237737        0.7623     0.76226
   26          H           0.199329        0.8007     0.80067
   27          H           0.239570        0.7604     0.76043
 DIPOLE           X         Y         Z       TOTAL
 POINT-CHG.    -2.776     2.985     1.029     4.204
 HYBRID        -0.228     0.129     0.139     0.297
 SUM           -3.004     3.114     1.168     4.481


          ATOMIC ORBITAL ELECTRON POPULATIONS

     Atom    s        px        py        pz   
    1  C   1.05133   1.16708   1.13422   1.08671
    2  C   1.05487   1.11859   1.05672   1.02638
    3  C   1.06058   1.02664   1.12965   1.07512
    4  C   1.07517   1.00795   1.05412   1.14685
    5  C   1.14267   1.00177   0.97562   0.92309
    6  C   1.06773   1.00004   1.13517   1.07483
    7  C   1.05042   1.13097   1.15886   1.11019
    8  O   1.89670   1.28942   1.22192   1.35725
    9  C   1.11518   1.19160   0.84839   1.20538
   10  H   0.86623
   11  H   0.83717
   12  H   0.83328
   13  H   0.83608
   14  H   0.88295
   15  H   0.81802
   16  H   0.86627
   17  H   0.79829
   18  H   0.82552
   19  H   0.81692
   20  H   0.82631
   21  H   0.80663
   22  H   0.84778
   23  H   0.83486
   24  H   0.81113
   25  H   0.76226
   26  H   0.80067
   27  H   0.76043


                    (SZ)    =    0.500000
                    (S**2)  =    0.757570


          ATOMIC ORBITAL SPIN POPULATIONS

    Atom   Total    s     px     py     pz   
         Atomic
    1  C  0.0000 -0.000  0.000  0.000 -0.000
    2  C  0.0002  0.000 -0.000  0.000  0.000
    3  C  0.0003 -0.000  0.001 -0.000 -0.000
    4  C  0.0699  0.005  0.033  0.029  0.003
    5  C -0.0331 -0.006  0.011 -0.023 -0.015
    6  C  0.0484  0.004  0.021  0.007  0.016
    7  C -0.0013 -0.000 -0.001 -0.000 -0.000
    8  O  0.8224  0.018  0.515  0.060  0.229
    9  C -0.0133 -0.007  0.026 -0.035  0.004
   10  H  0.0000  0.000
   11  H  0.0000  0.000
   12  H  0.0000  0.000
   13  H -0.0001 -0.000
   14  H  0.0001  0.000
   15  H  0.0041  0.004
   16  H  0.0008  0.001
   17  H  0.0033  0.003
   18  H -0.0025 -0.003
   19  H  0.0004  0.000
   20  H  0.0005  0.001
   21  H -0.0010 -0.001
   22  H  0.0001  0.000
   23  H  0.0007  0.001
   24  H  0.0012  0.001
   25  H  0.0430  0.043
   26  H  0.0004  0.000
   27  H  0.0554  0.055

 **********************
 *                    *
 * JOB ENDED NORMALLY *
 *                    *
 **********************



 TOTAL JOB TIME:             1.32 SECONDS

 == MOPAC DONE ==
