 *******************************************************************************
 **                                                                           **
 **                              MOPAC v23.2                                  **
 **                                                                           **
 *******************************************************************************
 **          Digital Object Identifier (DOI): 10.5281/zenodo.6511958          **
 **    Visit the DOI location for information on how to cite this program.    **
 *******************************************************************************

                              PM7 CALCULATION RESULTS

 *******************************************************************************
 *  CALCULATION DONE: (MAX THREADS = 40)             Fri Sep 19 21:35:07 2025  *
 *  PM7        - The PM7 Hamiltonian to be used
 *
 *
 *
 *                 CHARGE ON SYSTEM = +1
 *
 *
 *
 *  1SCF       - DO 1 SCF AND THEN STOP 
 *  T=         - A TIME OF 172800.0 SECONDS REQUESTED
 *  DUMP=N     - RESTART FILE WRITTEN EVERY 7200.0 SECONDS REQUESTED
 *  RELSCF     - DEFAULT SCF CRITERION MULTIPLIED BY 0.0001
 *              (DEFAULT SCF CRITERION = 0.00010)
 *  GRADIENTS  - ALL GRADIENTS TO BE PRINTED
 *  DISP       - PRINT DISPERSION AND HYDROGEN BOND ENERGIES
 *******************************************************************************
PM7 1SCF GRADIENTS DISP RELSCF=0.0001 CHARGE=1
 Title: ASE calculation

   ATOM   CHEMICAL          X               Y               Z
  NUMBER   SYMBOL      (ANGSTROMS)     (ANGSTROMS)     (ANGSTROMS)

     1       C         -2.18679307  *   0.75048228  *   1.04230929  *
     2       C         -1.63315471  *   1.05263209  *  -0.31110561  *
     3       C         -1.34051875  *  -0.07214436  *  -1.33640701  *
     4       N         -0.29465400  *   0.61322858  *  -0.65093239  *
     5       C          1.06640089  *   0.57649573  *  -0.31533692  *
     6       C          1.77799927  *  -0.80367312  *  -0.46001322  *
     7       C          2.12804531  *  -0.76985584  *   1.04904542  *
     8       C          1.38996929  *   0.58101353  *   1.21733897  *
     9       H         -1.97145290  *  -0.26591024  *   1.40391961  *
    10       H         -3.29284979  *   0.84665854  *   1.04356014  *
    11       H         -1.82875394  *   1.45585164  *   1.81340573  *
    12       H         -1.92905525  *   2.05453662  *  -0.70435344  *
    13       H         -1.53258597  *  -1.13417048  *  -1.10659529  *
    14       H         -1.49076386  *   0.10110476  *  -2.41808424  *
    15       H          1.58536530  *   1.41069109  *  -0.87404450  *
    16       H          1.13970715  *  -1.63908919  *  -0.76368634  *
    17       H          2.64775321  *  -0.79430901  *  -1.13335224  *
    18       H          1.71600589  *  -1.59977626  *   1.63559223  *
    19       H          3.20583122  *  -0.72525315  *   1.26274755  *
    20       H          0.52395591  *   0.55427950  *   1.88446367  *
    21       H          2.02769965  *   1.41778808  *   1.53522899  *



          CARTESIAN COORDINATES 

    NO.       ATOM           X           Y           Z

     1         C         -2.1868      0.7505      1.0423
     2         C         -1.6332      1.0526     -0.3111
     3         C         -1.3405     -0.0721     -1.3364
     4         N         -0.2947      0.6132     -0.6509
     5         C          1.0664      0.5765     -0.3153
     6         C          1.7780     -0.8037     -0.4600
     7         C          2.1280     -0.7699      1.0490
     8         C          1.3900      0.5810      1.2173
     9         H         -1.9715     -0.2659      1.4039
    10         H         -3.2928      0.8467      1.0436
    11         H         -1.8288      1.4559      1.8134
    12         H         -1.9291      2.0545     -0.7044
    13         H         -1.5326     -1.1342     -1.1066
    14         H         -1.4908      0.1011     -2.4181
    15         H          1.5854      1.4107     -0.8740
    16         H          1.1397     -1.6391     -0.7637
    17         H          2.6478     -0.7943     -1.1334
    18         H          1.7160     -1.5998      1.6356
    19         H          3.2058     -0.7253      1.2627
    20         H          0.5240      0.5543      1.8845
    21         H          2.0277      1.4178      1.5352

 General Reference for PM7:
 "Optimization of Parameters for Semiempirical Methods VI: More Modifications to the 
 NDDO Approximations and Re-optimization of Parameters", J. J. P. Stewart, J. Mol. Mod., 1:32, 19 (2013)
 https://link.springer.com/article/10.1007/s00894-012-1667-x

           Empirical Formula: C7 H13 N  =    21 atoms



      MOLECULAR POINT GROUP   :   C1  


          UHF CALCULATION, NO. OF ALPHA ELECTRONS =   23
                           NO. OF BETA  ELECTRONS =   22
  SCF CRITERION =    0.1000E-07

 -------------------------------------------------------------------------------
 PM7 1SCF GRADIENTS DISP RELSCF=0.0001 CHARGE=1
 Title: ASE calculation



     1SCF WAS SPECIFIED, SO BFGS WAS NOT USED                 
     SCF FIELD WAS ACHIEVED                                   


                              PM7 CALCULATION
                                                       MOPAC v23.2 Linux
                                                       Fri Sep 19 21:35:08 2025




          FINAL HEAT OF FORMATION =        214.97137 KCAL/MOL =     899.44020 KJ/MOL

          TOTAL ENERGY            =     -27953.12937 KCAL/MOL = ELECTRONIC ENERGY + CORE-CORE REPULSION
          ENERGY OF ATOMS         =      28170.10828 KCAL/MOL
                              SUM =        216.97891 KCAL/MOL
          DISPERSION ENERGY       =         -2.00755 KCAL/MOL
                              SUM =        214.97137 KCAL/MOL = FINAL HEAT OF FORMATION



          TOTAL ENERGY            =      -1212.16242 EV
          ELECTRONIC ENERGY       =      -6308.84786 EV 
          CORE-CORE REPULSION     =       5096.68544 EV
          COSMO AREA              =        164.48 SQUARE ANGSTROMS
          COSMO VOLUME            =        163.70 CUBIC ANGSTROMS

          GRADIENT NORM           =          1.19960          =       0.26177 PER ATOM
          IONIZATION POTENTIAL    =         15.419632 EV
          ALPHA SOMO LUMO (EV)    =        -15.420 -4.550
          BETA  SOMO LUMO (EV)    =        -15.633 -6.442
          NO. OF ALPHA ELECTRONS  =         23
          NO. OF BETA  ELECTRONS  =         22
          MOLECULAR WEIGHT        =        111.1864         POINT GROUP:  C1  

          MOLECULAR DIMENSIONS (Angstroms)

            Atom       Atom       Distance
            H    19    H    10     6.68968
            H    14    H    21     4.38820
            H    18    H    15     3.73100


          SCF CALCULATIONS        =          1

          WALL-CLOCK TIME         =      1.055 SECONDS
          COMPUTATION TIME        =      0.668 SECONDS

          LARGEST ATOMIC GRADIENTS

          Atom     Label                     Cartesian Gradients           Cartesian Coordinates       |Gradient|
                                           X          Y          Z        X          Y          Z

            13       H                   0.387      0.219      0.074   -1.53259   -1.13417   -1.10660      0.451
            10       H                   0.254      0.207      0.182   -3.29285    0.84666    1.04356      0.374
             9       H                  -0.167      0.207     -0.253   -1.97145   -0.26591    1.40392      0.367
             7       C                  -0.347      0.063      0.025    2.12805   -0.76986    1.04905      0.354
            17       H                   0.326     -0.117      0.028    2.64775   -0.79431   -1.13335      0.348
            19       H                  -0.134      0.243     -0.163    3.20583   -0.72525    1.26275      0.322
            15       H                  -0.280     -0.127      0.002    1.58537    1.41069   -0.87404      0.307
             5       C                   0.209     -0.054      0.189    1.06640    0.57650   -0.31534      0.287
             2       C                  -0.012     -0.279     -0.027   -1.63315    1.05263   -0.31111      0.280
            18       H                   0.066     -0.235     -0.086    1.71601   -1.59978    1.63559      0.259



       FINAL  POINT  AND  DERIVATIVES

   PARAMETER     ATOM    TYPE            VALUE        GRADIENT
      1          1  C    CARTESIAN X    -2.186793      0.024138  KCAL/ANGSTROM
      2          1  C    CARTESIAN Y     0.750482     -0.093903  KCAL/ANGSTROM
      3          1  C    CARTESIAN Z     1.042309      0.059737  KCAL/ANGSTROM
      4          2  C    CARTESIAN X    -1.633155     -0.011534  KCAL/ANGSTROM
      5          2  C    CARTESIAN Y     1.052632     -0.278702  KCAL/ANGSTROM
      6          2  C    CARTESIAN Z    -0.311106     -0.027025  KCAL/ANGSTROM
      7          3  C    CARTESIAN X    -1.340519     -0.072289  KCAL/ANGSTROM
      8          3  C    CARTESIAN Y    -0.072144     -0.031405  KCAL/ANGSTROM
      9          3  C    CARTESIAN Z    -1.336407     -0.043797  KCAL/ANGSTROM
     10          4  N    CARTESIAN X    -0.294654      0.021397  KCAL/ANGSTROM
     11          4  N    CARTESIAN Y     0.613229     -0.066665  KCAL/ANGSTROM
     12          4  N    CARTESIAN Z    -0.650932     -0.121224  KCAL/ANGSTROM
     13          5  C    CARTESIAN X     1.066401      0.209410  KCAL/ANGSTROM
     14          5  C    CARTESIAN Y     0.576496     -0.053660  KCAL/ANGSTROM
     15          5  C    CARTESIAN Z    -0.315337      0.188876  KCAL/ANGSTROM
     16          6  C    CARTESIAN X     1.777999      0.045207  KCAL/ANGSTROM
     17          6  C    CARTESIAN Y    -0.803673      0.044944  KCAL/ANGSTROM
     18          6  C    CARTESIAN Z    -0.460013      0.018440  KCAL/ANGSTROM
     19          7  C    CARTESIAN X     2.128045     -0.346980  KCAL/ANGSTROM
     20          7  C    CARTESIAN Y    -0.769856      0.063284  KCAL/ANGSTROM
     21          7  C    CARTESIAN Z     1.049045      0.024981  KCAL/ANGSTROM
     22          8  C    CARTESIAN X     1.389969     -0.099923  KCAL/ANGSTROM
     23          8  C    CARTESIAN Y     0.581014      0.005494  KCAL/ANGSTROM
     24          8  C    CARTESIAN Z     1.217339      0.059924  KCAL/ANGSTROM
     25          9  H    CARTESIAN X    -1.971453     -0.167241  KCAL/ANGSTROM
     26          9  H    CARTESIAN Y    -0.265910      0.206991  KCAL/ANGSTROM
     27          9  H    CARTESIAN Z     1.403920     -0.252646  KCAL/ANGSTROM
     28         10  H    CARTESIAN X    -3.292850      0.253737  KCAL/ANGSTROM
     29         10  H    CARTESIAN Y     0.846659      0.206583  KCAL/ANGSTROM
     30         10  H    CARTESIAN Z     1.043560      0.181626  KCAL/ANGSTROM
     31         11  H    CARTESIAN X    -1.828754      0.006686  KCAL/ANGSTROM
     32         11  H    CARTESIAN Y     1.455852     -0.187912  KCAL/ANGSTROM
     33         11  H    CARTESIAN Z     1.813406     -0.028325  KCAL/ANGSTROM
     34         12  H    CARTESIAN X    -1.929055     -0.108283  KCAL/ANGSTROM
     35         12  H    CARTESIAN Y     2.054537      0.117309  KCAL/ANGSTROM
     36         12  H    CARTESIAN Z    -0.704353      0.079285  KCAL/ANGSTROM
     37         13  H    CARTESIAN X    -1.532586      0.386902  KCAL/ANGSTROM
     38         13  H    CARTESIAN Y    -1.134170      0.218650  KCAL/ANGSTROM
     39         13  H    CARTESIAN Z    -1.106595      0.073851  KCAL/ANGSTROM
     40         14  H    CARTESIAN X    -1.490764     -0.193511  KCAL/ANGSTROM
     41         14  H    CARTESIAN Y     0.101105     -0.031204  KCAL/ANGSTROM
     42         14  H    CARTESIAN Z    -2.418084     -0.034200  KCAL/ANGSTROM
     43         15  H    CARTESIAN X     1.585365     -0.279853  KCAL/ANGSTROM
     44         15  H    CARTESIAN Y     1.410691     -0.126880  KCAL/ANGSTROM
     45         15  H    CARTESIAN Z    -0.874044      0.001834  KCAL/ANGSTROM
     46         16  H    CARTESIAN X     1.139707     -0.029592  KCAL/ANGSTROM
     47         16  H    CARTESIAN Y    -1.639089      0.109326  KCAL/ANGSTROM
     48         16  H    CARTESIAN Z    -0.763686      0.186792  KCAL/ANGSTROM
     49         17  H    CARTESIAN X     2.647753      0.326234  KCAL/ANGSTROM
     50         17  H    CARTESIAN Y    -0.794309     -0.116767  KCAL/ANGSTROM
     51         17  H    CARTESIAN Z    -1.133352      0.027568  KCAL/ANGSTROM
     52         18  H    CARTESIAN X     1.716006      0.065946  KCAL/ANGSTROM
     53         18  H    CARTESIAN Y    -1.599776     -0.235231  KCAL/ANGSTROM
     54         18  H    CARTESIAN Z     1.635592     -0.086112  KCAL/ANGSTROM
     55         19  H    CARTESIAN X     3.205831     -0.133837  KCAL/ANGSTROM
     56         19  H    CARTESIAN Y    -0.725253      0.243277  KCAL/ANGSTROM
     57         19  H    CARTESIAN Z     1.262748     -0.162509  KCAL/ANGSTROM
     58         20  H    CARTESIAN X     0.523956      0.011486  KCAL/ANGSTROM
     59         20  H    CARTESIAN Y     0.554280      0.123060  KCAL/ANGSTROM
     60         20  H    CARTESIAN Z     1.884464     -0.190824  KCAL/ANGSTROM
     61         21  H    CARTESIAN X     2.027700      0.091902  KCAL/ANGSTROM
     62         21  H    CARTESIAN Y     1.417788     -0.116594  KCAL/ANGSTROM
     63         21  H    CARTESIAN Z     1.535229      0.043742  KCAL/ANGSTROM




   ATOM   CHEMICAL          X               Y               Z
  NUMBER   SYMBOL      (ANGSTROMS)     (ANGSTROMS)     (ANGSTROMS)

     1       C         -2.18679307  *   0.75048228  *   1.04230929  *
     2       C         -1.63315471  *   1.05263209  *  -0.31110561  *
     3       C         -1.34051875  *  -0.07214436  *  -1.33640701  *
     4       N         -0.29465400  *   0.61322858  *  -0.65093239  *
     5       C          1.06640089  *   0.57649573  *  -0.31533692  *
     6       C          1.77799927  *  -0.80367312  *  -0.46001322  *
     7       C          2.12804531  *  -0.76985584  *   1.04904542  *
     8       C          1.38996929  *   0.58101353  *   1.21733897  *
     9       H         -1.97145290  *  -0.26591024  *   1.40391961  *
    10       H         -3.29284979  *   0.84665854  *   1.04356014  *
    11       H         -1.82875394  *   1.45585164  *   1.81340573  *
    12       H         -1.92905525  *   2.05453662  *  -0.70435344  *
    13       H         -1.53258597  *  -1.13417048  *  -1.10659529  *
    14       H         -1.49076386  *   0.10110476  *  -2.41808424  *
    15       H          1.58536530  *   1.41069109  *  -0.87404450  *
    16       H          1.13970715  *  -1.63908919  *  -0.76368634  *
    17       H          2.64775321  *  -0.79430901  *  -1.13335224  *
    18       H          1.71600589  *  -1.59977626  *   1.63559223  *
    19       H          3.20583122  *  -0.72525315  *   1.26274755  *
    20       H          0.52395591  *   0.55427950  *   1.88446367  *
    21       H          2.02769965  *   1.41778808  *   1.53522899  *

                             CARTESIAN COORDINATES

   1    C       -2.186793071     0.750482285     1.042309292
   2    C       -1.633154711     1.052632091    -0.311105607
   3    C       -1.340518750    -0.072144361    -1.336407009
   4    N       -0.294653999     0.613228576    -0.650932392
   5    C        1.066400886     0.576495733    -0.315336918
   6    C        1.777999271    -0.803673124    -0.460013217
   7    C        2.128045315    -0.769855838     1.049045416
   8    C        1.389969291     0.581013527     1.217338974
   9    H       -1.971452899    -0.265910237     1.403919609
  10    H       -3.292849792     0.846658537     1.043560142
  11    H       -1.828753938     1.455851641     1.813405728
  12    H       -1.929055245     2.054536618    -0.704353444
  13    H       -1.532585970    -1.134170482    -1.106595292
  14    H       -1.490763859     0.101104756    -2.418084244
  15    H        1.585365297     1.410691090    -0.874044497
  16    H        1.139707151    -1.639089195    -0.763686344
  17    H        2.647753208    -0.794309013    -1.133352244
  18    H        1.716005894    -1.599776261     1.635592229
  19    H        3.205831221    -0.725253150     1.262747548
  20    H        0.523955913     0.554279504     1.884463668
  21    H        2.027699648     1.417788084     1.535228987


           Empirical Formula: C7 H13 N  =    21 atoms



      MOLECULAR POINT GROUP   :   C1  


          ALPHA EIGENVALUES  
 -43.68333 -35.22982 -32.04003 -29.92707 -27.62050 -26.46579 -25.47905 -23.74013
 -22.53983 -22.08212 -21.05082 -20.50688 -19.53608 -18.89003 -18.38778 -17.87280
 -17.72190 -17.54863 -17.22484 -16.58931 -15.99188 -15.77407 -15.41963  -4.55005
  -3.42509  -2.20919  -1.38200  -1.24021  -0.98663  -0.68316  -0.57954  -0.00744
   0.28202   0.32042   0.54524   0.66618   1.10408   1.13099   1.24420   1.40100
   2.04941   2.13792   2.16449   2.32359   2.66560


           BETA EIGENVALUES 
 -42.16324 -35.13370 -31.68136 -29.77351 -27.57028 -26.25873 -25.23583 -23.36777
 -22.09425 -21.75885 -20.80978 -20.22654 -19.42058 -18.76907 -18.27834 -17.81024
 -17.63481 -17.10224 -16.95384 -16.20136 -15.95941 -15.63338  -6.44246  -3.91134
  -3.27220  -2.14855  -1.32556  -1.08653  -0.87866  -0.67178  -0.12178   0.13686
   0.32751   0.53858   0.60261   0.68743   1.10756   1.13590   1.25705   1.40543
   2.05550   2.14169   2.16806   2.32398   2.66627


              NET ATOMIC CHARGES AND DIPOLE CONTRIBUTIONS

  ATOM NO.   TYPE          CHARGE      No. of ELECS.   s-Pop       p-Pop       
    1          C          -0.473944        4.4739     1.05369     3.42025
    2          C           0.048246        3.9518     1.09444     2.85731
    3          C          -0.200802        4.2008     1.09606     3.10474
    4          N          -0.066278        5.0663     1.56659     3.49969
    5          C          -0.008709        4.0087     1.09305     2.91566
    6          C          -0.277853        4.2779     1.07847     3.19938
    7          C          -0.253393        4.2534     1.06845     3.18494
    8          C          -0.269675        4.2697     1.08010     3.18957
    9          H           0.180292        0.8197     0.81971
   10          H           0.211321        0.7887     0.78868
   11          H           0.193321        0.8067     0.80668
   12          H           0.215828        0.7842     0.78417
   13          H           0.219678        0.7803     0.78032
   14          H           0.227456        0.7725     0.77254
   15          H           0.220126        0.7799     0.77987
   16          H           0.162177        0.8378     0.83782
   17          H           0.183576        0.8164     0.81642
   18          H           0.166778        0.8332     0.83322
   19          H           0.179355        0.8206     0.82064
   20          H           0.161321        0.8387     0.83868
   21          H           0.181179        0.8188     0.81882
 DIPOLE           X         Y         Z       TOTAL
 POINT-CHG.    -2.089     0.812    -1.302     2.592
 HYBRID         0.040     0.070    -0.294     0.305
 SUM           -2.049     0.882    -1.596     2.743


          ATOMIC ORBITAL ELECTRON POPULATIONS

     Atom    s        px        py        pz   
    1  C   1.05369   1.19707   1.20812   1.01506
    2  C   1.09444   0.77605   1.06222   1.01904
    3  C   1.09606   0.89268   1.10300   1.10905
    4  N   1.56659   1.09130   1.20882   1.19957
    5  C   1.09305   0.75423   1.09790   1.06353
    6  C   1.07847   1.13134   0.99285   1.07519
    7  C   1.06845   1.15400   1.03747   0.99346
    8  C   1.08010   1.14350   1.10176   0.94431
    9  H   0.81971
   10  H   0.78868
   11  H   0.80668
   12  H   0.78417
   13  H   0.78032
   14  H   0.77254
   15  H   0.77987
   16  H   0.83782
   17  H   0.81642
   18  H   0.83322
   19  H   0.82064
   20  H   0.83868
   21  H   0.81882


                    (SZ)    =    0.500000
                    (S**2)  =    0.763309


          ATOMIC ORBITAL SPIN POPULATIONS

    Atom   Total    s     px     py     pz   
         Atomic
    1  C  0.0255  0.003  0.006  0.002  0.014
    2  C -0.0616 -0.004 -0.053  0.002 -0.007
    3  C -0.0526 -0.005 -0.046 -0.002  0.000
    4  N  0.9426  0.048  0.054  0.404  0.437
    5  C -0.0495 -0.007 -0.038 -0.001 -0.003
    6  C  0.0246  0.002  0.006  0.013  0.004
    7  C -0.0004 -0.000  0.000 -0.000 -0.000
    8  C  0.0497  0.004  0.008  0.005  0.033
    9  H -0.0009 -0.001
   10  H -0.0018 -0.002
   11  H -0.0012 -0.001
   12  H  0.0209  0.021
   13  H  0.0275  0.028
   14  H  0.0278  0.028
   15  H  0.0552  0.055
   16  H -0.0016 -0.002
   17  H -0.0016 -0.002
   18  H  0.0008  0.001
   19  H  0.0008  0.001
   20  H -0.0022 -0.002
   21  H -0.0020 -0.002

 **********************
 *                    *
 * JOB ENDED NORMALLY *
 *                    *
 **********************



 TOTAL JOB TIME:             1.44 SECONDS

 == MOPAC DONE ==
