 *******************************************************************************
 **                                                                           **
 **                              MOPAC v23.2                                  **
 **                                                                           **
 *******************************************************************************
 **          Digital Object Identifier (DOI): 10.5281/zenodo.6511958          **
 **    Visit the DOI location for information on how to cite this program.    **
 *******************************************************************************

                              PM7 CALCULATION RESULTS

 *******************************************************************************
 *  CALCULATION DONE: (MAX THREADS = 40)             Fri Sep 19 21:30:08 2025  *
 *  PM7        - The PM7 Hamiltonian to be used
 *  1SCF       - DO 1 SCF AND THEN STOP 
 *  T=         - A TIME OF 172800.0 SECONDS REQUESTED
 *  DUMP=N     - RESTART FILE WRITTEN EVERY 7200.0 SECONDS REQUESTED
 *  RELSCF     - DEFAULT SCF CRITERION MULTIPLIED BY 0.0001
 *              (DEFAULT SCF CRITERION = 0.00010)
 *  GRADIENTS  - ALL GRADIENTS TO BE PRINTED
 *  DISP       - PRINT DISPERSION AND HYDROGEN BOND ENERGIES
 *******************************************************************************
PM7 1SCF GRADIENTS DISP RELSCF=0.0001
 Title: ASE calculation

   ATOM   CHEMICAL          X               Y               Z
  NUMBER   SYMBOL      (ANGSTROMS)     (ANGSTROMS)     (ANGSTROMS)

     1       C         -0.89400931  *   1.87159806  *  -0.00500620  *
     2       N         -0.22409059  *   0.61655378  *   0.33091505  *
     3       C          0.13350673  *  -0.27311576  *  -0.80501851  *
     4       C          1.01599114  *  -1.38606917  *  -0.20460214  *
     5       C          2.48484121  *  -1.43109829  *  -0.17116714  *
     6       O          0.26381063  *  -2.60252836  *  -0.29959469  *
     7       C         -0.09051632  *  -1.74791948  *   0.79123421  *
     8       C         -1.00016117  *  -0.64383216  *   0.20628350  *
     9       C         -2.46274602  *  -0.78066047  *   0.06849949  *
    10       H         -1.39170174  *   2.24958630  *   0.90713861  *
    11       H         -0.12065933  *   2.60777760  *  -0.29102092  *
    12       H         -1.64002209  *   1.82184663  *  -0.81123826  *
    13       H          0.12259524  *   0.00126823  *  -1.83440484  *
    14       H          2.90626417  *  -1.56084843  *  -1.18062538  *
    15       H          2.90083705  *  -0.49972442  *   0.24928850  *
    16       H          2.85594337  *  -2.26677248  *   0.44227713  *
    17       H         -0.11100864  *  -2.13326728  *   1.78100911  *
    18       H         -2.97489968  *  -0.56358771  *   1.01951026  *
    19       H         -2.73850466  *  -1.80860020  *  -0.22230464  *
    20       H         -2.88407782  *  -0.11051335  *  -0.69287673  *



          CARTESIAN COORDINATES 

    NO.       ATOM           X           Y           Z

     1         C         -0.8940      1.8716     -0.0050
     2         N         -0.2241      0.6166      0.3309
     3         C          0.1335     -0.2731     -0.8050
     4         C          1.0160     -1.3861     -0.2046
     5         C          2.4848     -1.4311     -0.1712
     6         O          0.2638     -2.6025     -0.2996
     7         C         -0.0905     -1.7479      0.7912
     8         C         -1.0002     -0.6438      0.2063
     9         C         -2.4627     -0.7807      0.0685
    10         H         -1.3917      2.2496      0.9071
    11         H         -0.1207      2.6078     -0.2910
    12         H         -1.6400      1.8218     -0.8112
    13         H          0.1226      0.0013     -1.8344
    14         H          2.9063     -1.5608     -1.1806
    15         H          2.9008     -0.4997      0.2493
    16         H          2.8559     -2.2668      0.4423
    17         H         -0.1110     -2.1333      1.7810
    18         H         -2.9749     -0.5636      1.0195
    19         H         -2.7385     -1.8086     -0.2223
    20         H         -2.8841     -0.1105     -0.6929

 General Reference for PM7:
 "Optimization of Parameters for Semiempirical Methods VI: More Modifications to the 
 NDDO Approximations and Re-optimization of Parameters", J. J. P. Stewart, J. Mol. Mod., 1:32, 19 (2013)
 https://link.springer.com/article/10.1007/s00894-012-1667-x

           Empirical Formula: C7 H11 N O  =    20 atoms



      MOLECULAR POINT GROUP   :   C1  


      RHF CALCULATION, NO. OF DOUBLY OCCUPIED LEVELS = 25

  SCF CRITERION =    0.1000E-07

 -------------------------------------------------------------------------------
 PM7 1SCF GRADIENTS DISP RELSCF=0.0001
 Title: ASE calculation



     1SCF WAS SPECIFIED, SO BFGS WAS NOT USED                 
     SCF FIELD WAS ACHIEVED                                   


                              PM7 CALCULATION
                                                       MOPAC v23.2 Linux
                                                       Fri Sep 19 21:30:08 2025




          FINAL HEAT OF FORMATION =         52.82562 KCAL/MOL =     221.02238 KJ/MOL

          TOTAL ENERGY            =     -34269.24638 KCAL/MOL = ELECTRONIC ENERGY + CORE-CORE REPULSION
          ENERGY OF ATOMS         =      34323.93363 KCAL/MOL
                              SUM =         54.68725 KCAL/MOL
          DISPERSION ENERGY       =         -1.86163 KCAL/MOL
                              SUM =         52.82562 KCAL/MOL = FINAL HEAT OF FORMATION



          TOTAL ENERGY            =      -1486.05517 EV
          ELECTRONIC ENERGY       =      -7531.31945 EV 
          CORE-CORE REPULSION     =       6045.26428 EV
          COSMO AREA              =        165.37 SQUARE ANGSTROMS
          COSMO VOLUME            =        164.01 CUBIC ANGSTROMS

          GRADIENT NORM           =          1.34885          =       0.30161 PER ATOM
          IONIZATION POTENTIAL    =          9.256082 EV
          HOMO LUMO ENERGIES (EV) =         -9.256  1.759
          NO. OF FILLED LEVELS    =         25
          MOLECULAR WEIGHT        =        125.1700         POINT GROUP:  C1  

          MOLECULAR DIMENSIONS (Angstroms)

            Atom       Atom       Distance
            H    18    H    14     6.35793
            H    11    H    17     5.17394
            H    15    H    19     3.02774


          SCF CALCULATIONS        =          1

          WALL-CLOCK TIME         =      0.523 SECONDS
          COMPUTATION TIME        =      0.340 SECONDS

          LARGEST ATOMIC GRADIENTS

          Atom     Label                     Cartesian Gradients           Cartesian Coordinates       |Gradient|
                                           X          Y          Z        X          Y          Z

            14       H                  -0.134     -0.415      0.103    2.90626   -1.56085   -1.18063      0.449
             6       O                  -0.330      0.242      0.081    0.26381   -2.60253   -0.29959      0.417
             9       C                   0.040     -0.382     -0.032   -2.46275   -0.78066    0.06850      0.385
             2       N                   0.351     -0.090      0.079   -0.22409    0.61655    0.33092      0.371
             8       C                  -0.094     -0.306     -0.178   -1.00016   -0.64383    0.20628      0.366
            20       H                   0.273     -0.137      0.145   -2.88408   -0.11051   -0.69288      0.338
            17       H                  -0.170      0.224     -0.185   -0.11101   -2.13327    1.78101      0.337
             4       C                   0.206      0.082     -0.250    1.01599   -1.38607   -0.20460      0.334
            16       H                  -0.126      0.184     -0.236    2.85594   -2.26677    0.44228      0.325
            15       H                   0.102      0.163      0.218    2.90084   -0.49972    0.24929      0.291



       FINAL  POINT  AND  DERIVATIVES

   PARAMETER     ATOM    TYPE            VALUE        GRADIENT
      1          1  C    CARTESIAN X    -0.894009     -0.010949  KCAL/ANGSTROM
      2          1  C    CARTESIAN Y     1.871598     -0.241321  KCAL/ANGSTROM
      3          1  C    CARTESIAN Z    -0.005006      0.083159  KCAL/ANGSTROM
      4          2  N    CARTESIAN X    -0.224091      0.350650  KCAL/ANGSTROM
      5          2  N    CARTESIAN Y     0.616554     -0.090106  KCAL/ANGSTROM
      6          2  N    CARTESIAN Z     0.330915      0.079460  KCAL/ANGSTROM
      7          3  C    CARTESIAN X     0.133507      0.113650  KCAL/ANGSTROM
      8          3  C    CARTESIAN Y    -0.273116      0.133366  KCAL/ANGSTROM
      9          3  C    CARTESIAN Z    -0.805019     -0.144788  KCAL/ANGSTROM
     10          4  C    CARTESIAN X     1.015991      0.205790  KCAL/ANGSTROM
     11          4  C    CARTESIAN Y    -1.386069      0.082189  KCAL/ANGSTROM
     12          4  C    CARTESIAN Z    -0.204602     -0.250004  KCAL/ANGSTROM
     13          5  C    CARTESIAN X     2.484841      0.109810  KCAL/ANGSTROM
     14          5  C    CARTESIAN Y    -1.431098      0.220940  KCAL/ANGSTROM
     15          5  C    CARTESIAN Z    -0.171167      0.026915  KCAL/ANGSTROM
     16          6  O    CARTESIAN X     0.263811     -0.329744  KCAL/ANGSTROM
     17          6  O    CARTESIAN Y    -2.602528      0.242240  KCAL/ANGSTROM
     18          6  O    CARTESIAN Z    -0.299595      0.081191  KCAL/ANGSTROM
     19          7  C    CARTESIAN X    -0.090516     -0.032696  KCAL/ANGSTROM
     20          7  C    CARTESIAN Y    -1.747919      0.155841  KCAL/ANGSTROM
     21          7  C    CARTESIAN Z     0.791234      0.082402  KCAL/ANGSTROM
     22          8  C    CARTESIAN X    -1.000161     -0.094167  KCAL/ANGSTROM
     23          8  C    CARTESIAN Y    -0.643832     -0.305511  KCAL/ANGSTROM
     24          8  C    CARTESIAN Z     0.206283     -0.177581  KCAL/ANGSTROM
     25          9  C    CARTESIAN X    -2.462746      0.040100  KCAL/ANGSTROM
     26          9  C    CARTESIAN Y    -0.780660     -0.381826  KCAL/ANGSTROM
     27          9  C    CARTESIAN Z     0.068499     -0.032334  KCAL/ANGSTROM
     28         10  H    CARTESIAN X    -1.391702      0.117389  KCAL/ANGSTROM
     29         10  H    CARTESIAN Y     2.249586      0.243270  KCAL/ANGSTROM
     30         10  H    CARTESIAN Z     0.907139      0.002246  KCAL/ANGSTROM
     31         11  H    CARTESIAN X    -0.120659     -0.027216  KCAL/ANGSTROM
     32         11  H    CARTESIAN Y     2.607778     -0.223547  KCAL/ANGSTROM
     33         11  H    CARTESIAN Z    -0.291021      0.026639  KCAL/ANGSTROM
     34         12  H    CARTESIAN X    -1.640022     -0.204246  KCAL/ANGSTROM
     35         12  H    CARTESIAN Y     1.821847      0.025126  KCAL/ANGSTROM
     36         12  H    CARTESIAN Z    -0.811238      0.079260  KCAL/ANGSTROM
     37         13  H    CARTESIAN X     0.122595     -0.042412  KCAL/ANGSTROM
     38         13  H    CARTESIAN Y     0.001268     -0.027387  KCAL/ANGSTROM
     39         13  H    CARTESIAN Z    -1.834405      0.195695  KCAL/ANGSTROM
     40         14  H    CARTESIAN X     2.906264     -0.134415  KCAL/ANGSTROM
     41         14  H    CARTESIAN Y    -1.560848     -0.415322  KCAL/ANGSTROM
     42         14  H    CARTESIAN Z    -1.180625      0.103078  KCAL/ANGSTROM
     43         15  H    CARTESIAN X     2.900837      0.101856  KCAL/ANGSTROM
     44         15  H    CARTESIAN Y    -0.499724      0.162807  KCAL/ANGSTROM
     45         15  H    CARTESIAN Z     0.249289      0.218378  KCAL/ANGSTROM
     46         16  H    CARTESIAN X     2.855943     -0.125574  KCAL/ANGSTROM
     47         16  H    CARTESIAN Y    -2.266772      0.183555  KCAL/ANGSTROM
     48         16  H    CARTESIAN Z     0.442277     -0.236423  KCAL/ANGSTROM
     49         17  H    CARTESIAN X    -0.111009     -0.170392  KCAL/ANGSTROM
     50         17  H    CARTESIAN Y    -2.133267      0.224255  KCAL/ANGSTROM
     51         17  H    CARTESIAN Z     1.781009     -0.184537  KCAL/ANGSTROM
     52         18  H    CARTESIAN X    -2.974900      0.028958  KCAL/ANGSTROM
     53         18  H    CARTESIAN Y    -0.563588      0.037079  KCAL/ANGSTROM
     54         18  H    CARTESIAN Z     1.019510     -0.155121  KCAL/ANGSTROM
     55         19  H    CARTESIAN X    -2.738505     -0.169832  KCAL/ANGSTROM
     56         19  H    CARTESIAN Y    -1.808600      0.111016  KCAL/ANGSTROM
     57         19  H    CARTESIAN Z    -0.222305      0.057501  KCAL/ANGSTROM
     58         20  H    CARTESIAN X    -2.884078      0.273435  KCAL/ANGSTROM
     59         20  H    CARTESIAN Y    -0.110513     -0.136666  KCAL/ANGSTROM
     60         20  H    CARTESIAN Z    -0.692877      0.144861  KCAL/ANGSTROM




   ATOM   CHEMICAL          X               Y               Z
  NUMBER   SYMBOL      (ANGSTROMS)     (ANGSTROMS)     (ANGSTROMS)

     1       C         -0.89400931  *   1.87159806  *  -0.00500620  *
     2       N         -0.22409059  *   0.61655378  *   0.33091505  *
     3       C          0.13350673  *  -0.27311576  *  -0.80501851  *
     4       C          1.01599114  *  -1.38606917  *  -0.20460214  *
     5       C          2.48484121  *  -1.43109829  *  -0.17116714  *
     6       O          0.26381063  *  -2.60252836  *  -0.29959469  *
     7       C         -0.09051632  *  -1.74791948  *   0.79123421  *
     8       C         -1.00016117  *  -0.64383216  *   0.20628350  *
     9       C         -2.46274602  *  -0.78066047  *   0.06849949  *
    10       H         -1.39170174  *   2.24958630  *   0.90713861  *
    11       H         -0.12065933  *   2.60777760  *  -0.29102092  *
    12       H         -1.64002209  *   1.82184663  *  -0.81123826  *
    13       H          0.12259524  *   0.00126823  *  -1.83440484  *
    14       H          2.90626417  *  -1.56084843  *  -1.18062538  *
    15       H          2.90083705  *  -0.49972442  *   0.24928850  *
    16       H          2.85594337  *  -2.26677248  *   0.44227713  *
    17       H         -0.11100864  *  -2.13326728  *   1.78100911  *
    18       H         -2.97489968  *  -0.56358771  *   1.01951026  *
    19       H         -2.73850466  *  -1.80860020  *  -0.22230464  *
    20       H         -2.88407782  *  -0.11051335  *  -0.69287673  *

                             CARTESIAN COORDINATES

   1    C       -0.894009310     1.871598059    -0.005006200
   2    N       -0.224090594     0.616553784     0.330915047
   3    C        0.133506731    -0.273115760    -0.805018513
   4    C        1.015991137    -1.386069166    -0.204602141
   5    C        2.484841209    -1.431098292    -0.171167139
   6    O        0.263810633    -2.602528361    -0.299594686
   7    C       -0.090516323    -1.747919479     0.791234209
   8    C       -1.000161173    -0.643832165     0.206283496
   9    C       -2.462746023    -0.780660469     0.068499486
  10    H       -1.391701736     2.249586303     0.907138609
  11    H       -0.120659330     2.607777603    -0.291020917
  12    H       -1.640022086     1.821846625    -0.811238260
  13    H        0.122595241     0.001268233    -1.834404843
  14    H        2.906264169    -1.560848425    -1.180625380
  15    H        2.900837055    -0.499724415     0.249288504
  16    H        2.855943371    -2.266772480     0.442277125
  17    H       -0.111008642    -2.133267281     1.781009106
  18    H       -2.974899679    -0.563587708     1.019510259
  19    H       -2.738504664    -1.808600202    -0.222304643
  20    H       -2.884077819    -0.110513352    -0.692876725


           Empirical Formula: C7 H11 N O  =    20 atoms



      MOLECULAR POINT GROUP   :   C1  


                  EIGENVALUES  
 -36.77760 -31.90719 -26.84567 -26.59853 -25.56104 -22.83804 -22.03559 -19.27470
 -18.61328 -16.80652 -16.57264 -16.07217 -15.22211 -14.93211 -14.41169 -14.24529
 -13.85110 -13.61757 -13.02452 -12.31649 -11.99618 -11.70344 -11.22208 -10.15814
  -9.25608   1.75914   2.09495   2.24823   2.89456   3.19545   3.20592   3.84986
   4.04271   4.21560   4.60333   4.70958   5.30881   5.41749   5.47011   5.53514
   5.55262   5.62095   5.84239   5.88755   6.26543   6.59380   6.69674


              NET ATOMIC CHARGES AND DIPOLE CONTRIBUTIONS

  ATOM NO.   TYPE          CHARGE      No. of ELECS.   s-Pop       p-Pop       
    1          C          -0.283733        4.2837     1.06019     3.22354
    2          N          -0.351473        5.3515     1.74868     3.60279
    3          C          -0.151948        4.1519     1.08951     3.06244
    4          C           0.184540        3.8155     1.07445     2.74101
    5          C          -0.446561        4.4466     1.04582     3.40074
    6          O          -0.347581        6.3476     1.92162     4.42596
    7          C          -0.016928        4.0169     1.10221     2.91472
    8          C           0.063791        3.9362     1.06694     2.86927
    9          C          -0.443950        4.4439     1.04494     3.39901
   10          H           0.159292        0.8407     0.84071
   11          H           0.157511        0.8425     0.84249
   12          H           0.128071        0.8719     0.87193
   13          H           0.169492        0.8305     0.83051
   14          H           0.167584        0.8324     0.83242
   15          H           0.173750        0.8262     0.82625
   16          H           0.169353        0.8306     0.83065
   17          H           0.171598        0.8284     0.82840
   18          H           0.166795        0.8332     0.83320
   19          H           0.173869        0.8261     0.82613
   20          H           0.156529        0.8435     0.84347
 DIPOLE           X         Y         Z       TOTAL
 POINT-CHG.    -0.330     1.899     0.252     1.943
 HYBRID        -0.664    -0.240    -0.843     1.100
 SUM           -0.994     1.659    -0.592     2.022


          ATOMIC ORBITAL ELECTRON POPULATIONS

     Atom    s        px        py        pz   
    1  C   1.06019   1.11170   0.95993   1.15191
    2  N   1.74868   1.28320   1.02947   1.29012
    3  C   1.08951   1.03836   1.02590   0.99818
    4  C   1.07445   0.91097   0.83528   0.99475
    5  C   1.04582   1.01667   1.19286   1.19122
    6  O   1.92162   1.61298   1.31537   1.49761
    7  C   1.10221   1.01045   0.94544   0.95884
    8  C   1.06694   0.92685   0.91840   1.02402
    9  C   1.04494   1.02080   1.19435   1.18387
   10  H   0.84071
   11  H   0.84249
   12  H   0.87193
   13  H   0.83051
   14  H   0.83242
   15  H   0.82625
   16  H   0.83065
   17  H   0.82840
   18  H   0.83320
   19  H   0.82613
   20  H   0.84347

 **********************
 *                    *
 * JOB ENDED NORMALLY *
 *                    *
 **********************



 TOTAL JOB TIME:             0.95 SECONDS

 == MOPAC DONE ==
