 *******************************************************************************
 **                                                                           **
 **                              MOPAC v23.2                                  **
 **                                                                           **
 *******************************************************************************
 **          Digital Object Identifier (DOI): 10.5281/zenodo.6511958          **
 **    Visit the DOI location for information on how to cite this program.    **
 *******************************************************************************

                              PM7 CALCULATION RESULTS

 *******************************************************************************
 *  CALCULATION DONE: (MAX THREADS = 40)             Fri Sep 19 21:30:38 2025  *
 *  PM7        - The PM7 Hamiltonian to be used
 *
 *
 *
 *                 CHARGE ON SYSTEM = +1
 *
 *
 *
 *  EPS=37.5   - USE ANDREAS KLAMT'S COSMO IMPLICIT SOLVATION MODEL
 *  1SCF       - DO 1 SCF AND THEN STOP 
 *  T=         - A TIME OF 172800.0 SECONDS REQUESTED
 *  DUMP=N     - RESTART FILE WRITTEN EVERY 7200.0 SECONDS REQUESTED
 *  RELSCF     - DEFAULT SCF CRITERION MULTIPLIED BY 0.0001
 *              (DEFAULT SCF CRITERION = 0.00010)
 *  GRADIENTS  - ALL GRADIENTS TO BE PRINTED
 *  DISP       - PRINT DISPERSION AND HYDROGEN BOND ENERGIES
 *******************************************************************************
PM7 1SCF GRADIENTS EPS=37.5 DISP RELSCF=0.0001 CHARGE=1
 Title: ASE calculation

   ATOM   CHEMICAL          X               Y               Z
  NUMBER   SYMBOL      (ANGSTROMS)     (ANGSTROMS)     (ANGSTROMS)

     1       C         -0.00302295  *  -1.22823498  *  -0.99547597  *
     2       O          0.73269750  *  -0.26853072  *  -1.73841445  *
     3       C          0.63581713  *   1.02775408  *  -1.22335952  *
     4       C          1.23226146  *   1.00192442  *   0.23098673  *
     5       N          0.45555846  *   0.06799877  *   0.98642208  *
     6       C         -0.63645029  *  -0.54257365  *   0.25313001  *
     7       C         -1.49760130  *   0.62664512  *  -0.30951639  *
     8       O         -0.69126285  *   1.45498637  *  -1.13468104  *
     9       H          0.71605835  *  -2.03186272  *  -0.74382775  *
    10       H         -0.78381676  *  -1.63034042  *  -1.67626957  *
    11       H          1.13843895  *   1.69903923  *  -1.95372591  *
    12       H          1.21167148  *   2.03186272  *   0.68902926  *
    13       H          2.32443523  *   0.72585702  *   0.21574624  *
    14       H          0.65774367  *  -0.14886415  *   1.95372591  *
    15       H         -1.23533474  *  -1.25583198  *   0.87148701  *
    16       H         -1.91202889  *   1.28806217  *   0.47592985  *
    17       H         -2.32443523  *   0.25404827  *  -0.95076689  *



          CARTESIAN COORDINATES 

    NO.       ATOM           X           Y           Z

     1         C         -0.0030     -1.2282     -0.9955
     2         O          0.7327     -0.2685     -1.7384
     3         C          0.6358      1.0278     -1.2234
     4         C          1.2323      1.0019      0.2310
     5         N          0.4556      0.0680      0.9864
     6         C         -0.6365     -0.5426      0.2531
     7         C         -1.4976      0.6266     -0.3095
     8         O         -0.6913      1.4550     -1.1347
     9         H          0.7161     -2.0319     -0.7438
    10         H         -0.7838     -1.6303     -1.6763
    11         H          1.1384      1.6990     -1.9537
    12         H          1.2117      2.0319      0.6890
    13         H          2.3244      0.7259      0.2157
    14         H          0.6577     -0.1489      1.9537
    15         H         -1.2353     -1.2558      0.8715
    16         H         -1.9120      1.2881      0.4759
    17         H         -2.3244      0.2540     -0.9508

 General Reference for PM7:
 "Optimization of Parameters for Semiempirical Methods VI: More Modifications to the 
 NDDO Approximations and Re-optimization of Parameters", J. J. P. Stewart, J. Mol. Mod., 1:32, 19 (2013)
 https://link.springer.com/article/10.1007/s00894-012-1667-x

           Empirical Formula: C5 H9 N O2  =    17 atoms



      MOLECULAR POINT GROUP   :   Cs  


          UHF CALCULATION, NO. OF ALPHA ELECTRONS =   23
                           NO. OF BETA  ELECTRONS =   22
  SCF CRITERION =    0.1000E-07

 -------------------------------------------------------------------------------
 PM7 1SCF GRADIENTS EPS=37.5 DISP RELSCF=0.0001 CHARGE=1
 Title: ASE calculation



     1SCF WAS SPECIFIED, SO BFGS WAS NOT USED                 
     SCF FIELD WAS ACHIEVED                                   


                              PM7 CALCULATION
                                                       MOPAC v23.2 Linux
                                                       Fri Sep 19 21:30:39 2025




          FINAL HEAT OF FORMATION =         51.47038 KCAL/MOL =     215.35205 KJ/MOL

          TOTAL ENERGY            =     -34747.61571 KCAL/MOL = ELECTRONIC ENERGY + CORE-CORE REPULSION + SOLVATION ENERGY
          ENERGY OF ATOMS         =      34800.19765 KCAL/MOL
                              SUM =         52.58194 KCAL/MOL
          DISPERSION ENERGY       =         -1.11156 KCAL/MOL
                              SUM =         51.47038 KCAL/MOL = FINAL HEAT OF FORMATION

          VAN DER WAALS AREA      =        135.20 SQUARE ANGSTROMS


          TOTAL ENERGY            =      -1506.79923 EV
          ELECTRONIC ENERGY       =      -2355.53196 EV 
          CORE-CORE REPULSION     =        848.73273 EV

          DIELECTRIC ENERGY       =         -2.98776 EV
          COSMO AREA              =        135.20 SQUARE ANGSTROMS
          COSMO VOLUME            =        130.72 CUBIC ANGSTROMS

          GRADIENT NORM           =         24.99516          =       6.06222 PER ATOM
          IONIZATION POTENTIAL    =         11.122156 EV
          ALPHA SOMO LUMO (EV)    =        -11.157  0.185
          BETA  SOMO LUMO (EV)    =        -11.122 -2.140
          NO. OF ALPHA ELECTRONS  =         23
          NO. OF BETA  ELECTRONS  =         22
          MOLECULAR WEIGHT        =        115.1316         POINT GROUP:  Cs  

          MOLECULAR DIMENSIONS (Angstroms)

            Atom       Atom       Distance
            H    17    H    13     4.81616
            H    14    H    11     4.33857
            H     9    H    12     4.12053


          SCF CALCULATIONS        =          2

          WALL-CLOCK TIME         =      1.109 SECONDS
          COMPUTATION TIME        =      0.597 SECONDS

          LARGEST ATOMIC GRADIENTS

          Atom     Label                     Cartesian Gradients           Cartesian Coordinates       |Gradient|
                                           X          Y          Z        X          Y          Z

             3       C                 -10.837     -5.965     -8.383    0.63582    1.02775   -1.22336     14.943
             4       C                   7.324      2.758     10.013    1.23226    1.00192    0.23099     12.708
             6       C                  -2.222     -4.719      8.294   -0.63645   -0.54257    0.25313      9.797
             7       C                   3.409      4.076     -2.274   -1.49760    0.62665   -0.30952      5.780
             1       C                   3.816      3.257     -2.783   -0.00302   -1.22823   -0.99548      5.738
             2       O                   1.942      0.114      4.165    0.73270   -0.26853   -1.73841      4.597
             8       O                   1.388      0.277      3.806   -0.69126    1.45499   -1.13468      4.060
             5       N                  -1.668     -1.980      1.093    0.45556    0.06800    0.98642      2.810
            14       H                  -0.249      0.838     -2.605    0.65774   -0.14886    1.95373      2.748
            12       H                  -1.104      0.674     -1.633    1.21167    2.03186    0.68903      2.083



       FINAL  POINT  AND  DERIVATIVES

   PARAMETER     ATOM    TYPE            VALUE        GRADIENT
      1          1  C    CARTESIAN X    -0.003023      3.816322  KCAL/ANGSTROM
      2          1  C    CARTESIAN Y    -1.228235      3.257255  KCAL/ANGSTROM
      3          1  C    CARTESIAN Z    -0.995476     -2.783424  KCAL/ANGSTROM
      4          2  O    CARTESIAN X     0.732698      1.942434  KCAL/ANGSTROM
      5          2  O    CARTESIAN Y    -0.268531      0.113980  KCAL/ANGSTROM
      6          2  O    CARTESIAN Z    -1.738414      4.164997  KCAL/ANGSTROM
      7          3  C    CARTESIAN X     0.635817    -10.836695  KCAL/ANGSTROM
      8          3  C    CARTESIAN Y     1.027754     -5.965313  KCAL/ANGSTROM
      9          3  C    CARTESIAN Z    -1.223360     -8.383261  KCAL/ANGSTROM
     10          4  C    CARTESIAN X     1.232261      7.323532  KCAL/ANGSTROM
     11          4  C    CARTESIAN Y     1.001924      2.757913  KCAL/ANGSTROM
     12          4  C    CARTESIAN Z     0.230987     10.012608  KCAL/ANGSTROM
     13          5  N    CARTESIAN X     0.455558     -1.668095  KCAL/ANGSTROM
     14          5  N    CARTESIAN Y     0.067999     -1.979592  KCAL/ANGSTROM
     15          5  N    CARTESIAN Z     0.986422      1.093418  KCAL/ANGSTROM
     16          6  C    CARTESIAN X    -0.636450     -2.221789  KCAL/ANGSTROM
     17          6  C    CARTESIAN Y    -0.542574     -4.718519  KCAL/ANGSTROM
     18          6  C    CARTESIAN Z     0.253130      8.293626  KCAL/ANGSTROM
     19          7  C    CARTESIAN X    -1.497601      3.409290  KCAL/ANGSTROM
     20          7  C    CARTESIAN Y     0.626645      4.075601  KCAL/ANGSTROM
     21          7  C    CARTESIAN Z    -0.309516     -2.274119  KCAL/ANGSTROM
     22          8  O    CARTESIAN X    -0.691263      1.387912  KCAL/ANGSTROM
     23          8  O    CARTESIAN Y     1.454986      0.277028  KCAL/ANGSTROM
     24          8  O    CARTESIAN Z    -1.134681      3.805507  KCAL/ANGSTROM
     25          9  H    CARTESIAN X     0.716058      0.421536  KCAL/ANGSTROM
     26          9  H    CARTESIAN Y    -2.031863     -0.753154  KCAL/ANGSTROM
     27          9  H    CARTESIAN Z    -0.743828     -1.216675  KCAL/ANGSTROM
     28         10  H    CARTESIAN X    -0.783817     -0.643915  KCAL/ANGSTROM
     29         10  H    CARTESIAN Y    -1.630340     -0.670326  KCAL/ANGSTROM
     30         10  H    CARTESIAN Z    -1.676270     -1.848662  KCAL/ANGSTROM
     31         11  H    CARTESIAN X     1.138439      0.041652  KCAL/ANGSTROM
     32         11  H    CARTESIAN Y     1.699039      0.659330  KCAL/ANGSTROM
     33         11  H    CARTESIAN Z    -1.953726     -1.347032  KCAL/ANGSTROM
     34         12  H    CARTESIAN X     1.211671     -1.103944  KCAL/ANGSTROM
     35         12  H    CARTESIAN Y     2.031863      0.674047  KCAL/ANGSTROM
     36         12  H    CARTESIAN Z     0.689029     -1.632979  KCAL/ANGSTROM
     37         13  H    CARTESIAN X     2.324435      0.122148  KCAL/ANGSTROM
     38         13  H    CARTESIAN Y     0.725857     -0.496141  KCAL/ANGSTROM
     39         13  H    CARTESIAN Z     0.215746     -1.780413  KCAL/ANGSTROM
     40         14  H    CARTESIAN X     0.657744     -0.249358  KCAL/ANGSTROM
     41         14  H    CARTESIAN Y    -0.148864      0.837812  KCAL/ANGSTROM
     42         14  H    CARTESIAN Z     1.953726     -2.605486  KCAL/ANGSTROM
     43         15  H    CARTESIAN X    -1.235335      0.285248  KCAL/ANGSTROM
     44         15  H    CARTESIAN Y    -1.255832      0.653516  KCAL/ANGSTROM
     45         15  H    CARTESIAN Z     0.871487     -1.535648  KCAL/ANGSTROM
     46         16  H    CARTESIAN X    -1.912029     -0.706585  KCAL/ANGSTROM
     47         16  H    CARTESIAN Y     1.288062      0.873075  KCAL/ANGSTROM
     48         16  H    CARTESIAN Z     0.475930     -0.756143  KCAL/ANGSTROM
     49         17  H    CARTESIAN X    -2.324435     -1.319697  KCAL/ANGSTROM
     50         17  H    CARTESIAN Y     0.254048      0.403485  KCAL/ANGSTROM
     51         17  H    CARTESIAN Z    -0.950767     -1.206318  KCAL/ANGSTROM




   ATOM   CHEMICAL          X               Y               Z
  NUMBER   SYMBOL      (ANGSTROMS)     (ANGSTROMS)     (ANGSTROMS)

     1       C         -0.00302295  *  -1.22823498  *  -0.99547597  *
     2       O          0.73269750  *  -0.26853072  *  -1.73841445  *
     3       C          0.63581713  *   1.02775408  *  -1.22335952  *
     4       C          1.23226146  *   1.00192442  *   0.23098673  *
     5       N          0.45555846  *   0.06799877  *   0.98642208  *
     6       C         -0.63645029  *  -0.54257365  *   0.25313001  *
     7       C         -1.49760130  *   0.62664512  *  -0.30951639  *
     8       O         -0.69126285  *   1.45498637  *  -1.13468104  *
     9       H          0.71605835  *  -2.03186272  *  -0.74382775  *
    10       H         -0.78381676  *  -1.63034042  *  -1.67626957  *
    11       H          1.13843895  *   1.69903923  *  -1.95372591  *
    12       H          1.21167148  *   2.03186272  *   0.68902926  *
    13       H          2.32443523  *   0.72585702  *   0.21574624  *
    14       H          0.65774367  *  -0.14886415  *   1.95372591  *
    15       H         -1.23533474  *  -1.25583198  *   0.87148701  *
    16       H         -1.91202889  *   1.28806217  *   0.47592985  *
    17       H         -2.32443523  *   0.25404827  *  -0.95076689  *

                             CARTESIAN COORDINATES

   1    C       -0.003022950    -1.228234977    -0.995475970
   2    O        0.732697504    -0.268530723    -1.738414451
   3    C        0.635817134     1.027754083    -1.223359517
   4    C        1.232261463     1.001924425     0.230986729
   5    N        0.455558458     0.067998768     0.986422079
   6    C       -0.636450287    -0.542573655     0.253130009
   7    C       -1.497601297     0.626645123    -0.309516390
   8    O       -0.691262848     1.454986367    -1.134681040
   9    H        0.716058353    -2.031862723    -0.743827754
  10    H       -0.783816764    -1.630340418    -1.676269571
  11    H        1.138438947     1.699039228    -1.953725909
  12    H        1.211671481     2.031862723     0.689029265
  13    H        2.324435227     0.725857022     0.215746238
  14    H        0.657743670    -0.148864148     1.953725909
  15    H       -1.235334744    -1.255831983     0.871487005
  16    H       -1.912028889     1.288062170     0.475929850
  17    H       -2.324435227     0.254048271    -0.950766889


           Empirical Formula: C5 H9 N O2  =    17 atoms



      MOLECULAR POINT GROUP   :   Cs  


          ALPHA EIGENVALUES  
 -38.69731 -31.79170 -29.89579 -28.27816 -25.77155 -24.48403 -24.01730 -20.58076
 -19.15915 -19.09731 -18.40582 -17.07390 -16.43215 -15.77623 -15.17286 -14.68117
 -14.64792 -14.40577 -14.18183 -13.34352 -11.77498 -11.37406 -11.15656   0.18477
   0.97922   1.28624   2.03948   2.10475   2.46824   2.69227   3.29128   3.64728
   4.25639   4.47996   4.77361   4.82658   4.88343   4.89151   5.04780   5.23708
   5.33043


           BETA EIGENVALUES 
 -37.07706 -31.56532 -29.88825 -28.18792 -25.48839 -24.43010 -23.86439 -20.29652
 -19.00816 -18.75049 -18.31215 -16.86251 -15.93664 -15.62756 -14.84832 -14.61676
 -14.46432 -14.33514 -13.52959 -13.31226 -11.37642 -11.12216  -2.14020   0.77512
   0.99899   1.34693   2.11702   2.16118   2.63720   2.94615   3.41179   3.68224
   4.41188   4.50156   4.79105   4.83578   4.89789   4.98961   5.22855   5.33202
   5.40311


              NET ATOMIC CHARGES AND DIPOLE CONTRIBUTIONS

  ATOM NO.   TYPE          CHARGE      No. of ELECS.   s-Pop       p-Pop       
    1          C          -0.032350        4.0323     1.10600     2.92635
    2          O          -0.457523        6.4575     1.86957     4.58795
    3          C           0.340520        3.6595     1.12342     2.53606
    4          C          -0.283946        4.2839     1.10128     3.18267
    5          N           0.000651        4.9993     1.53419     3.46516
    6          C          -0.108021        4.1080     1.10207     3.00595
    7          C          -0.035970        4.0360     1.10588     2.93009
    8          O          -0.453977        6.4540     1.86975     4.58423
    9          H           0.177495        0.8225     0.82251
   10          H           0.181992        0.8180     0.81801
   11          H           0.205430        0.7946     0.79457
   12          H           0.253271        0.7467     0.74673
   13          H           0.250354        0.7496     0.74965
   14          H           0.369427        0.6306     0.63057
   15          H           0.231114        0.7689     0.76889
   16          H           0.177859        0.8221     0.82214
   17          H           0.183674        0.8163     0.81633
 DIPOLE           X         Y         Z       TOTAL
 POINT-CHG.     1.126    -1.688     7.544     7.812
 HYBRID         0.254    -0.019     0.563     0.618
 SUM            1.381    -1.707     8.106     8.399


          ATOMIC ORBITAL ELECTRON POPULATIONS

     Atom    s        px        py        pz   
    1  C   1.10600   1.05933   0.92638   0.94064
    2  O   1.86957   1.72775   1.27559   1.58461
    3  C   1.12342   0.79082   0.81689   0.92836
    4  C   1.10128   1.09249   1.05980   1.03039
    5  N   1.53419   1.13273   1.13573   1.19670
    6  C   1.10207   0.93616   1.05005   1.01973
    7  C   1.10588   0.95494   0.94615   1.02901
    8  O   1.86975   1.30923   1.55611   1.71889
    9  H   0.82251
   10  H   0.81801
   11  H   0.79457
   12  H   0.74673
   13  H   0.74965
   14  H   0.63057
   15  H   0.76889
   16  H   0.82214
   17  H   0.81633


                    (SZ)    =    0.500000
                    (S**2)  =    0.759798


          ATOMIC ORBITAL SPIN POPULATIONS

    Atom   Total    s     px     py     pz   
         Atomic
    1  C  0.0459  0.005  0.004  0.008  0.028
    2  O  0.0013  0.000 -0.001  0.000  0.002
    3  C  0.0033  0.000  0.001  0.001  0.001
    4  C -0.0405 -0.007 -0.010 -0.011 -0.013
    5  N  0.9686  0.043  0.338  0.477  0.110
    6  C -0.0735 -0.007 -0.030 -0.015 -0.022
    7  C  0.0437  0.005  0.013  0.017  0.008
    8  O  0.0007  0.000  0.001 -0.000  0.000
    9  H -0.0015 -0.002
   10  H  0.0006  0.001
   11  H -0.0008 -0.001
   12  H  0.0458  0.046
   13  H  0.0429  0.043
   14  H -0.0373 -0.037
   15  H  0.0021  0.002
   16  H -0.0015 -0.001
   17  H  0.0003  0.000

 **********************
 *                    *
 * JOB ENDED NORMALLY *
 *                    *
 **********************



 TOTAL JOB TIME:             1.62 SECONDS

 == MOPAC DONE ==
