 *******************************************************************************
 **                                                                           **
 **                              MOPAC v23.2                                  **
 **                                                                           **
 *******************************************************************************
 **          Digital Object Identifier (DOI): 10.5281/zenodo.6511958          **
 **    Visit the DOI location for information on how to cite this program.    **
 *******************************************************************************

                              PM7 CALCULATION RESULTS

 *******************************************************************************
 *  CALCULATION DONE: (MAX THREADS = 40)             Fri Sep 19 21:53:13 2025  *
 *  PM7        - The PM7 Hamiltonian to be used
 *  1SCF       - DO 1 SCF AND THEN STOP 
 *  T=         - A TIME OF 172800.0 SECONDS REQUESTED
 *  DUMP=N     - RESTART FILE WRITTEN EVERY 7200.0 SECONDS REQUESTED
 *  RELSCF     - DEFAULT SCF CRITERION MULTIPLIED BY 0.0001
 *              (DEFAULT SCF CRITERION = 0.00010)
 *  GRADIENTS  - ALL GRADIENTS TO BE PRINTED
 *  DISP       - PRINT DISPERSION AND HYDROGEN BOND ENERGIES
 *******************************************************************************
PM7 1SCF GRADIENTS DISP RELSCF=0.0001
 Title: ASE calculation

   ATOM   CHEMICAL          X               Y               Z
  NUMBER   SYMBOL      (ANGSTROMS)     (ANGSTROMS)     (ANGSTROMS)

     1       C         -2.45723217  *  -0.02047225  *   0.42362003  *
     2       C         -1.06799059  *  -0.61014512  *   0.28023917  *
     3       C         -0.41169371  *  -0.51255260  *  -1.14846600  *
     4       C         -0.20504425  *   1.01562272  *  -1.30234054  *
     5       C          0.14453753  *   1.48811527  *   0.14042429  *
     6       C          0.10281304  *   0.18271288  *   0.97464243  *
     7       C          1.27587083  *  -0.73955151  *   0.58994666  *
     8       C          2.18013467  *  -0.40643642  *  -0.57362342  *
     9       C          0.92866421  *  -1.20874899  *  -0.84279197  *
    10       H         -2.51252987  *   1.02332199  *   0.09496168  *
    11       H         -3.18407903  *  -0.58825301  *  -0.17070793  *
    12       H         -2.78683768  *  -0.05084926  *   1.46974293  *
    13       H         -1.09171797  *  -1.66275624  *   0.63062609  *
    14       H         -0.98061526  *  -0.96841523  *  -1.96084867  *
    15       H          0.58869708  *   1.25003179  *  -2.02455121  *
    16       H         -1.11736842  *   1.50321870  *  -1.67370488  *
    17       H         -0.58804401  *   2.21874599  *   0.51128962  *
    18       H          1.12660376  *   1.97709593  *   0.19537970  *
    19       H         -0.00920676  *   0.34447779  *   2.04834221  *
    20       H          1.62863785  *  -1.39671858  *   1.37232633  *
    21       H          2.29518559  *   0.60925028  *  -0.93419674  *
    22       H          3.13995424  *  -0.91634776  *  -0.63925916  *
    23       H          1.01008093  *  -2.23250605  *  -1.17996330  *



          CARTESIAN COORDINATES 

    NO.       ATOM           X           Y           Z

     1         C         -2.4572     -0.0205      0.4236
     2         C         -1.0680     -0.6101      0.2802
     3         C         -0.4117     -0.5126     -1.1485
     4         C         -0.2050      1.0156     -1.3023
     5         C          0.1445      1.4881      0.1404
     6         C          0.1028      0.1827      0.9746
     7         C          1.2759     -0.7396      0.5899
     8         C          2.1801     -0.4064     -0.5736
     9         C          0.9287     -1.2087     -0.8428
    10         H         -2.5125      1.0233      0.0950
    11         H         -3.1841     -0.5883     -0.1707
    12         H         -2.7868     -0.0508      1.4697
    13         H         -1.0917     -1.6628      0.6306
    14         H         -0.9806     -0.9684     -1.9608
    15         H          0.5887      1.2500     -2.0246
    16         H         -1.1174      1.5032     -1.6737
    17         H         -0.5880      2.2187      0.5113
    18         H          1.1266      1.9771      0.1954
    19         H         -0.0092      0.3445      2.0483
    20         H          1.6286     -1.3967      1.3723
    21         H          2.2952      0.6093     -0.9342
    22         H          3.1400     -0.9163     -0.6393
    23         H          1.0101     -2.2325     -1.1800

 General Reference for PM7:
 "Optimization of Parameters for Semiempirical Methods VI: More Modifications to the 
 NDDO Approximations and Re-optimization of Parameters", J. J. P. Stewart, J. Mol. Mod., 1:32, 19 (2013)
 https://link.springer.com/article/10.1007/s00894-012-1667-x

           Empirical Formula: C9 H14  =    23 atoms



      MOLECULAR POINT GROUP   :   Cs  


      RHF CALCULATION, NO. OF DOUBLY OCCUPIED LEVELS = 25

  SCF CRITERION =    0.1000E-07

 -------------------------------------------------------------------------------
 PM7 1SCF GRADIENTS DISP RELSCF=0.0001
 Title: ASE calculation



     1SCF WAS SPECIFIED, SO BFGS WAS NOT USED                 
     SCF FIELD WAS ACHIEVED                                   


                              PM7 CALCULATION
                                                       MOPAC v23.2 Linux
                                                       Fri Sep 19 21:53:14 2025




          FINAL HEAT OF FORMATION =         22.97356 KCAL/MOL =      96.12137 KJ/MOL

          TOTAL ENERGY            =     -29827.38526 KCAL/MOL = ELECTRONIC ENERGY + CORE-CORE REPULSION
          ENERGY OF ATOMS         =      29852.41387 KCAL/MOL
                              SUM =         25.02861 KCAL/MOL
          DISPERSION ENERGY       =         -2.05505 KCAL/MOL
                              SUM =         22.97356 KCAL/MOL = FINAL HEAT OF FORMATION



          TOTAL ENERGY            =      -1293.43784 EV
          ELECTRONIC ENERGY       =      -7563.89128 EV 
          CORE-CORE REPULSION     =       6270.45344 EV
          COSMO AREA              =        162.09 SQUARE ANGSTROMS
          COSMO VOLUME            =        169.29 CUBIC ANGSTROMS

          GRADIENT NORM           =          1.37052          =       0.28577 PER ATOM
          IONIZATION POTENTIAL    =         10.263834 EV
          HOMO LUMO ENERGIES (EV) =        -10.264  2.370
          NO. OF FILLED LEVELS    =         25
          MOLECULAR WEIGHT        =        122.2096         POINT GROUP:  Cs  

          MOLECULAR DIMENSIONS (Angstroms)

            Atom       Atom       Distance
            H    22    H    12     6.35011
            H    16    H    20     4.63027
            H    23    H    18     4.14130


          SCF CALCULATIONS        =          1

          WALL-CLOCK TIME         =      0.695 SECONDS
          COMPUTATION TIME        =      0.349 SECONDS

          LARGEST ATOMIC GRADIENTS

          Atom     Label                     Cartesian Gradients           Cartesian Coordinates       |Gradient|
                                           X          Y          Z        X          Y          Z

            11       H                   0.044     -0.452     -0.069   -3.18408   -0.58825   -0.17071      0.460
            12       H                   0.127     -0.339      0.282   -2.78684   -0.05085    1.46974      0.459
             6       C                  -0.331     -0.249     -0.028    0.10281    0.18271    0.97464      0.415
             3       C                  -0.250     -0.143      0.296   -0.41169   -0.51255   -1.14847      0.413
            10       H                  -0.199      0.316     -0.057   -2.51253    1.02332    0.09496      0.378
            13       H                   0.340     -0.105     -0.049   -1.09172   -1.66276    0.63063      0.359
            15       H                   0.292      0.032     -0.172    0.58870    1.25003   -2.02455      0.340
            18       H                   0.327      0.084     -0.016    1.12660    1.97710    0.19538      0.338
             1       C                  -0.315      0.091      0.044   -2.45723   -0.02047    0.42362      0.331
            17       H                   0.079      0.250     -0.162   -0.58804    2.21875    0.51129      0.309



       FINAL  POINT  AND  DERIVATIVES

   PARAMETER     ATOM    TYPE            VALUE        GRADIENT
      1          1  C    CARTESIAN X    -2.457232     -0.314770  KCAL/ANGSTROM
      2          1  C    CARTESIAN Y    -0.020472      0.090541  KCAL/ANGSTROM
      3          1  C    CARTESIAN Z     0.423620      0.044453  KCAL/ANGSTROM
      4          2  C    CARTESIAN X    -1.067991     -0.209576  KCAL/ANGSTROM
      5          2  C    CARTESIAN Y    -0.610145     -0.084395  KCAL/ANGSTROM
      6          2  C    CARTESIAN Z     0.280239      0.077876  KCAL/ANGSTROM
      7          3  C    CARTESIAN X    -0.411694     -0.249647  KCAL/ANGSTROM
      8          3  C    CARTESIAN Y    -0.512553     -0.142818  KCAL/ANGSTROM
      9          3  C    CARTESIAN Z    -1.148466      0.296176  KCAL/ANGSTROM
     10          4  C    CARTESIAN X    -0.205044      0.094052  KCAL/ANGSTROM
     11          4  C    CARTESIAN Y     1.015623      0.010564  KCAL/ANGSTROM
     12          4  C    CARTESIAN Z    -1.302341     -0.032316  KCAL/ANGSTROM
     13          5  C    CARTESIAN X     0.144538      0.094596  KCAL/ANGSTROM
     14          5  C    CARTESIAN Y     1.488115      0.013695  KCAL/ANGSTROM
     15          5  C    CARTESIAN Z     0.140424     -0.022570  KCAL/ANGSTROM
     16          6  C    CARTESIAN X     0.102813     -0.330717  KCAL/ANGSTROM
     17          6  C    CARTESIAN Y     0.182713     -0.248956  KCAL/ANGSTROM
     18          6  C    CARTESIAN Z     0.974642     -0.027724  KCAL/ANGSTROM
     19          7  C    CARTESIAN X     1.275871      0.143019  KCAL/ANGSTROM
     20          7  C    CARTESIAN Y    -0.739552      0.087575  KCAL/ANGSTROM
     21          7  C    CARTESIAN Z     0.589947     -0.012517  KCAL/ANGSTROM
     22          8  C    CARTESIAN X     2.180135      0.078527  KCAL/ANGSTROM
     23          8  C    CARTESIAN Y    -0.406436      0.076164  KCAL/ANGSTROM
     24          8  C    CARTESIAN Z    -0.573623     -0.041876  KCAL/ANGSTROM
     25          9  C    CARTESIAN X     0.928664      0.123599  KCAL/ANGSTROM
     26          9  C    CARTESIAN Y    -1.208749      0.059535  KCAL/ANGSTROM
     27          9  C    CARTESIAN Z    -0.842792     -0.097857  KCAL/ANGSTROM
     28         10  H    CARTESIAN X    -2.512530     -0.199408  KCAL/ANGSTROM
     29         10  H    CARTESIAN Y     1.023322      0.315861  KCAL/ANGSTROM
     30         10  H    CARTESIAN Z     0.094962     -0.056738  KCAL/ANGSTROM
     31         11  H    CARTESIAN X    -3.184079      0.043506  KCAL/ANGSTROM
     32         11  H    CARTESIAN Y    -0.588253     -0.452454  KCAL/ANGSTROM
     33         11  H    CARTESIAN Z    -0.170708     -0.069338  KCAL/ANGSTROM
     34         12  H    CARTESIAN X    -2.786838      0.127068  KCAL/ANGSTROM
     35         12  H    CARTESIAN Y    -0.050849     -0.339344  KCAL/ANGSTROM
     36         12  H    CARTESIAN Z     1.469743      0.281523  KCAL/ANGSTROM
     37         13  H    CARTESIAN X    -1.091718      0.340129  KCAL/ANGSTROM
     38         13  H    CARTESIAN Y    -1.662756     -0.104971  KCAL/ANGSTROM
     39         13  H    CARTESIAN Z     0.630626     -0.048762  KCAL/ANGSTROM
     40         14  H    CARTESIAN X    -0.980615     -0.129019  KCAL/ANGSTROM
     41         14  H    CARTESIAN Y    -0.968415      0.039350  KCAL/ANGSTROM
     42         14  H    CARTESIAN Z    -1.960849     -0.133555  KCAL/ANGSTROM
     43         15  H    CARTESIAN X     0.588697      0.291778  KCAL/ANGSTROM
     44         15  H    CARTESIAN Y     1.250032      0.032317  KCAL/ANGSTROM
     45         15  H    CARTESIAN Z    -2.024551     -0.171641  KCAL/ANGSTROM
     46         16  H    CARTESIAN X    -1.117368      0.105469  KCAL/ANGSTROM
     47         16  H    CARTESIAN Y     1.503219      0.283005  KCAL/ANGSTROM
     48         16  H    CARTESIAN Z    -1.673705     -0.060363  KCAL/ANGSTROM
     49         17  H    CARTESIAN X    -0.588044      0.078812  KCAL/ANGSTROM
     50         17  H    CARTESIAN Y     2.218746      0.250449  KCAL/ANGSTROM
     51         17  H    CARTESIAN Z     0.511290     -0.162027  KCAL/ANGSTROM
     52         18  H    CARTESIAN X     1.126604      0.326577  KCAL/ANGSTROM
     53         18  H    CARTESIAN Y     1.977096      0.083722  KCAL/ANGSTROM
     54         18  H    CARTESIAN Z     0.195380     -0.015645  KCAL/ANGSTROM
     55         19  H    CARTESIAN X    -0.009207     -0.070545  KCAL/ANGSTROM
     56         19  H    CARTESIAN Y     0.344478      0.125727  KCAL/ANGSTROM
     57         19  H    CARTESIAN Z     2.048342      0.126618  KCAL/ANGSTROM
     58         20  H    CARTESIAN X     1.628638     -0.132040  KCAL/ANGSTROM
     59         20  H    CARTESIAN Y    -1.396719     -0.039746  KCAL/ANGSTROM
     60         20  H    CARTESIAN Z     1.372326      0.150200  KCAL/ANGSTROM
     61         21  H    CARTESIAN X     2.295186      0.039954  KCAL/ANGSTROM
     62         21  H    CARTESIAN Y     0.609250     -0.016277  KCAL/ANGSTROM
     63         21  H    CARTESIAN Z    -0.934197     -0.000951  KCAL/ANGSTROM
     64         22  H    CARTESIAN X     3.139954     -0.079892  KCAL/ANGSTROM
     65         22  H    CARTESIAN Y    -0.916348      0.058739  KCAL/ANGSTROM
     66         22  H    CARTESIAN Z    -0.639259      0.004441  KCAL/ANGSTROM
     67         23  H    CARTESIAN X     1.010081     -0.171475  KCAL/ANGSTROM
     68         23  H    CARTESIAN Y    -2.232506     -0.098286  KCAL/ANGSTROM
     69         23  H    CARTESIAN Z    -1.179963     -0.027412  KCAL/ANGSTROM




   ATOM   CHEMICAL          X               Y               Z
  NUMBER   SYMBOL      (ANGSTROMS)     (ANGSTROMS)     (ANGSTROMS)

     1       C         -2.45723217  *  -0.02047225  *   0.42362003  *
     2       C         -1.06799059  *  -0.61014512  *   0.28023917  *
     3       C         -0.41169371  *  -0.51255260  *  -1.14846600  *
     4       C         -0.20504425  *   1.01562272  *  -1.30234054  *
     5       C          0.14453753  *   1.48811527  *   0.14042429  *
     6       C          0.10281304  *   0.18271288  *   0.97464243  *
     7       C          1.27587083  *  -0.73955151  *   0.58994666  *
     8       C          2.18013467  *  -0.40643642  *  -0.57362342  *
     9       C          0.92866421  *  -1.20874899  *  -0.84279197  *
    10       H         -2.51252987  *   1.02332199  *   0.09496168  *
    11       H         -3.18407903  *  -0.58825301  *  -0.17070793  *
    12       H         -2.78683768  *  -0.05084926  *   1.46974293  *
    13       H         -1.09171797  *  -1.66275624  *   0.63062609  *
    14       H         -0.98061526  *  -0.96841523  *  -1.96084867  *
    15       H          0.58869708  *   1.25003179  *  -2.02455121  *
    16       H         -1.11736842  *   1.50321870  *  -1.67370488  *
    17       H         -0.58804401  *   2.21874599  *   0.51128962  *
    18       H          1.12660376  *   1.97709593  *   0.19537970  *
    19       H         -0.00920676  *   0.34447779  *   2.04834221  *
    20       H          1.62863785  *  -1.39671858  *   1.37232633  *
    21       H          2.29518559  *   0.60925028  *  -0.93419674  *
    22       H          3.13995424  *  -0.91634776  *  -0.63925916  *
    23       H          1.01008093  *  -2.23250605  *  -1.17996330  *

                             CARTESIAN COORDINATES

   1    C       -2.457232174    -0.020472255     0.423620029
   2    C       -1.067990594    -0.610145118     0.280239175
   3    C       -0.411693709    -0.512552599    -1.148465996
   4    C       -0.205044247     1.015622717    -1.302340541
   5    C        0.144537525     1.488115273     0.140424285
   6    C        0.102813041     0.182712884     0.974642432
   7    C        1.275870827    -0.739551512     0.589946659
   8    C        2.180134667    -0.406436417    -0.573623416
   9    C        0.928664214    -1.208748994    -0.842791972
  10    H       -2.512529872     1.023321988     0.094961679
  11    H       -3.184079027    -0.588253010    -0.170707929
  12    H       -2.786837682    -0.050849259     1.469742930
  13    H       -1.091717974    -1.662756239     0.630626087
  14    H       -0.980615258    -0.968415232    -1.960848674
  15    H        0.588697080     1.250031791    -2.024551211
  16    H       -1.117368422     1.503218696    -1.673704876
  17    H       -0.588044008     2.218745992     0.511289621
  18    H        1.126603762     1.977095929     0.195379699
  19    H       -0.009206756     0.344477786     2.048342211
  20    H        1.628637853    -1.396718582     1.372326330
  21    H        2.295185585     0.609250282    -0.934196735
  22    H        3.139954237    -0.916347759    -0.639259161
  23    H        1.010080927    -2.232506055    -1.179963304


           Empirical Formula: C9 H14  =    23 atoms



      MOLECULAR POINT GROUP   :   Cs  


                  EIGENVALUES  
 -32.53060 -28.05138 -25.65789 -24.65441 -23.71615 -20.24643 -19.59933 -18.39526
 -17.71199 -17.59263 -16.90795 -14.94256 -14.19987 -14.14855 -13.58062 -13.08590
 -12.90434 -12.12833 -11.89736 -11.69651 -11.53623 -11.48371 -10.81441 -10.73855
 -10.26383   2.36963   3.67845   3.72485   3.74611   4.00911   4.14068   4.71425
   4.83370   4.86486   5.15210   5.44719   5.52888   5.88641   5.91162   5.93446
   6.16237   6.20887   6.34282   6.34469   6.39080   6.44520   6.49789   6.74171
   6.80607   7.10986


              NET ATOMIC CHARGES AND DIPOLE CONTRIBUTIONS

  ATOM NO.   TYPE          CHARGE      No. of ELECS.   s-Pop       p-Pop       
    1          C          -0.456144        4.4561     1.05227     3.40388
    2          C          -0.100440        4.1004     1.08206     3.01838
    3          C          -0.101366        4.1014     1.07733     3.02404
    4          C          -0.273109        4.2731     1.06776     3.20535
    5          C          -0.273090        4.2731     1.06777     3.20532
    6          C          -0.101341        4.1013     1.07734     3.02401
    7          C          -0.184763        4.1848     1.06347     3.12129
    8          C          -0.314942        4.3149     1.05336     3.26158
    9          C          -0.184771        4.1848     1.06346     3.12131
   10          H           0.150121        0.8499     0.84988
   11          H           0.145733        0.8543     0.85427
   12          H           0.145740        0.8543     0.85426
   13          H           0.132280        0.8677     0.86772
   14          H           0.133200        0.8668     0.86680
   15          H           0.136605        0.8634     0.86340
   16          H           0.132620        0.8674     0.86738
   17          H           0.132626        0.8674     0.86737
   18          H           0.136607        0.8634     0.86339
   19          H           0.133204        0.8668     0.86680
   20          H           0.149188        0.8508     0.85081
   21          H           0.161548        0.8385     0.83845
   22          H           0.151312        0.8487     0.84869
   23          H           0.149183        0.8508     0.85082
 DIPOLE           X         Y         Z       TOTAL
 POINT-CHG.    -0.451     0.089     0.080     0.467
 HYBRID         0.059     0.083    -0.042     0.110
 SUM           -0.392     0.172     0.038     0.430


          ATOMIC ORBITAL ELECTRON POPULATIONS

     Atom    s        px        py        pz   
    1  C   1.05227   1.06809   1.16450   1.17129
    2  C   1.08206   0.95327   1.07421   0.99091
    3  C   1.07733   0.99590   0.99247   1.03567
    4  C   1.06776   1.14654   1.02189   1.03691
    5  C   1.06777   1.14871   1.04717   1.00944
    6  C   1.07734   0.97901   0.97958   1.06542
    7  C   1.06347   1.05443   1.10110   0.96576
    8  C   1.05336   1.02621   1.14124   1.09414
    9  C   1.06346   0.98767   1.07889   1.05474
   10  H   0.84988
   11  H   0.85427
   12  H   0.85426
   13  H   0.86772
   14  H   0.86680
   15  H   0.86340
   16  H   0.86738
   17  H   0.86737
   18  H   0.86339
   19  H   0.86680
   20  H   0.85081
   21  H   0.83845
   22  H   0.84869
   23  H   0.85082

 **********************
 *                    *
 * JOB ENDED NORMALLY *
 *                    *
 **********************



 TOTAL JOB TIME:             1.12 SECONDS

 == MOPAC DONE ==
