 *******************************************************************************
 **                                                                           **
 **                              MOPAC v23.2                                  **
 **                                                                           **
 *******************************************************************************
 **          Digital Object Identifier (DOI): 10.5281/zenodo.6511958          **
 **    Visit the DOI location for information on how to cite this program.    **
 *******************************************************************************

                              PM7 CALCULATION RESULTS

 *******************************************************************************
 *  CALCULATION DONE: (MAX THREADS = 40)             Fri Sep 19 21:41:08 2025  *
 *  PM7        - The PM7 Hamiltonian to be used
 *  1SCF       - DO 1 SCF AND THEN STOP 
 *  T=         - A TIME OF 172800.0 SECONDS REQUESTED
 *  DUMP=N     - RESTART FILE WRITTEN EVERY 7200.0 SECONDS REQUESTED
 *  RELSCF     - DEFAULT SCF CRITERION MULTIPLIED BY 0.0001
 *              (DEFAULT SCF CRITERION = 0.00010)
 *  GRADIENTS  - ALL GRADIENTS TO BE PRINTED
 *  DISP       - PRINT DISPERSION AND HYDROGEN BOND ENERGIES
 *******************************************************************************
PM7 1SCF GRADIENTS DISP RELSCF=0.0001
 Title: ASE calculation

   ATOM   CHEMICAL          X               Y               Z
  NUMBER   SYMBOL      (ANGSTROMS)     (ANGSTROMS)     (ANGSTROMS)

     1       O          2.62155413  *  -0.08085859  *   1.57946159  *
     2       C          2.54473232  *  -0.63058822  *   0.51258868  *
     3       O          1.37863572  *  -0.90102991  *  -0.10473299  *
     4       C          0.16242477  *  -0.44560765  *   0.52886373  *
     5       C          0.07009113  *   1.03834663  *   0.29719967  *
     6       C         -0.26688768  *   1.55860849  *  -0.88142782  *
     7       C         -2.21086419  *  -1.06116375  *   0.13181471  *
     8       O         -3.08390704  *  -1.86094529  *  -0.55127219  *
     9       C         -0.91239517  *  -1.23828846  *  -0.13678331  *
    10       H          3.35210931  *  -0.99926948  *  -0.12115099  *
    11       H          0.23416655  *  -0.69378568  *   1.61793426  *
    12       H          0.34441017  *   1.65004160  *   1.15600875  *
    13       H         -0.31107852  *   2.61916096  *  -1.07711410  *
    14       H         -0.52217050  *   0.95693722  *  -1.74450693  *
    15       H         -2.65232070  *  -0.35432409  *   0.82131173  *
    16       H         -4.01613393  *  -1.68439631  *  -0.29051185  *
    17       H         -0.57288606  *  -1.98138774  *  -0.86098891  *



          CARTESIAN COORDINATES 

    NO.       ATOM           X           Y           Z

     1         O          2.6216     -0.0809      1.5795
     2         C          2.5447     -0.6306      0.5126
     3         O          1.3786     -0.9010     -0.1047
     4         C          0.1624     -0.4456      0.5289
     5         C          0.0701      1.0383      0.2972
     6         C         -0.2669      1.5586     -0.8814
     7         C         -2.2109     -1.0612      0.1318
     8         O         -3.0839     -1.8609     -0.5513
     9         C         -0.9124     -1.2383     -0.1368
    10         H          3.3521     -0.9993     -0.1212
    11         H          0.2342     -0.6938      1.6179
    12         H          0.3444      1.6500      1.1560
    13         H         -0.3111      2.6192     -1.0771
    14         H         -0.5222      0.9569     -1.7445
    15         H         -2.6523     -0.3543      0.8213
    16         H         -4.0161     -1.6844     -0.2905
    17         H         -0.5729     -1.9814     -0.8610

 General Reference for PM7:
 "Optimization of Parameters for Semiempirical Methods VI: More Modifications to the 
 NDDO Approximations and Re-optimization of Parameters", J. J. P. Stewart, J. Mol. Mod., 1:32, 19 (2013)
 https://link.springer.com/article/10.1007/s00894-012-1667-x

           Empirical Formula: C6 H8 O3  =    17 atoms



      MOLECULAR POINT GROUP   :   C1  


      RHF CALCULATION, NO. OF DOUBLY OCCUPIED LEVELS = 25

  SCF CRITERION =    0.1000E-07

 -------------------------------------------------------------------------------
 PM7 1SCF GRADIENTS DISP RELSCF=0.0001
 Title: ASE calculation



     1SCF WAS SPECIFIED, SO BFGS WAS NOT USED                 
     SCF FIELD WAS ACHIEVED                                   


                              PM7 CALCULATION
                                                       MOPAC v23.2 Linux
                                                       Fri Sep 19 21:41:09 2025




          FINAL HEAT OF FORMATION =        -92.50037 KCAL/MOL =    -387.02154 KJ/MOL

          TOTAL ENERGY            =     -39888.17854 KCAL/MOL = ELECTRONIC ENERGY + CORE-CORE REPULSION
          ENERGY OF ATOMS         =      39797.54792 KCAL/MOL
                              SUM =        -90.63062 KCAL/MOL
          DISPERSION ENERGY       =         -1.86975 KCAL/MOL
                              SUM =        -92.50037 KCAL/MOL = FINAL HEAT OF FORMATION



          TOTAL ENERGY            =      -1729.71513 EV
          ELECTRONIC ENERGY       =      -7392.06360 EV 
          CORE-CORE REPULSION     =       5662.34847 EV
          COSMO AREA              =        165.72 SQUARE ANGSTROMS
          COSMO VOLUME            =        160.90 CUBIC ANGSTROMS

          GRADIENT NORM           =          1.12636          =       0.27318 PER ATOM
          IONIZATION POTENTIAL    =          9.578749 EV
          HOMO LUMO ENERGIES (EV) =         -9.579  0.521
          NO. OF FILLED LEVELS    =         25
          MOLECULAR WEIGHT        =        128.1274         POINT GROUP:  C1  

          MOLECULAR DIMENSIONS (Angstroms)

            Atom       Atom       Distance
            H    16    H    10     7.40197
            H    13    H    17     4.56244
            H    11    H    14     3.25645


          SCF CALCULATIONS        =          1

          WALL-CLOCK TIME         =      0.930 SECONDS
          COMPUTATION TIME        =      0.886 SECONDS

          LARGEST ATOMIC GRADIENTS

          Atom     Label                     Cartesian Gradients           Cartesian Coordinates       |Gradient|
                                           X          Y          Z        X          Y          Z

            15       H                  -0.251      0.306      0.150   -2.65232   -0.35432    0.82131      0.424
            10       H                   0.036      0.254     -0.334    3.35211   -0.99927   -0.12115      0.421
             8       O                   0.266     -0.069     -0.315   -3.08391   -1.86095   -0.55127      0.418
             9       C                   0.249      0.230     -0.079   -0.91240   -1.23829   -0.13678      0.348
            12       H                   0.247     -0.032      0.209    0.34441    1.65004    1.15601      0.325
             7       C                  -0.199      0.128      0.200   -2.21086   -1.06116    0.13181      0.310
            17       H                   0.148     -0.177     -0.149   -0.57289   -1.98139   -0.86099      0.275
            14       H                  -0.038     -0.236      0.075   -0.52217    0.95694   -1.74451      0.250
            13       H                   0.017     -0.180     -0.126   -0.31108    2.61916   -1.07711      0.220
             2       C                  -0.033      0.202      0.057    2.54473   -0.63059    0.51259      0.213



       FINAL  POINT  AND  DERIVATIVES

   PARAMETER     ATOM    TYPE            VALUE        GRADIENT
      1          1  O    CARTESIAN X     2.621554     -0.112364  KCAL/ANGSTROM
      2          1  O    CARTESIAN Y    -0.080859     -0.075428  KCAL/ANGSTROM
      3          1  O    CARTESIAN Z     1.579462      0.092519  KCAL/ANGSTROM
      4          2  C    CARTESIAN X     2.544732     -0.033029  KCAL/ANGSTROM
      5          2  C    CARTESIAN Y    -0.630588      0.202297  KCAL/ANGSTROM
      6          2  C    CARTESIAN Z     0.512589      0.057426  KCAL/ANGSTROM
      7          3  O    CARTESIAN X     1.378636     -0.128315  KCAL/ANGSTROM
      8          3  O    CARTESIAN Y    -0.901030      0.069532  KCAL/ANGSTROM
      9          3  O    CARTESIAN Z    -0.104733      0.060121  KCAL/ANGSTROM
     10          4  C    CARTESIAN X     0.162425     -0.034384  KCAL/ANGSTROM
     11          4  C    CARTESIAN Y    -0.445608     -0.050494  KCAL/ANGSTROM
     12          4  C    CARTESIAN Z     0.528864      0.059380  KCAL/ANGSTROM
     13          5  C    CARTESIAN X     0.070091      0.053294  KCAL/ANGSTROM
     14          5  C    CARTESIAN Y     1.038347     -0.128037  KCAL/ANGSTROM
     15          5  C    CARTESIAN Z     0.297200      0.029195  KCAL/ANGSTROM
     16          6  C    CARTESIAN X    -0.266888      0.081960  KCAL/ANGSTROM
     17          6  C    CARTESIAN Y     1.558608     -0.131399  KCAL/ANGSTROM
     18          6  C    CARTESIAN Z    -0.881428     -0.046465  KCAL/ANGSTROM
     19          7  C    CARTESIAN X    -2.210864     -0.199084  KCAL/ANGSTROM
     20          7  C    CARTESIAN Y    -1.061164      0.127794  KCAL/ANGSTROM
     21          7  C    CARTESIAN Z     0.131815      0.200478  KCAL/ANGSTROM
     22          8  O    CARTESIAN X    -3.083907      0.266169  KCAL/ANGSTROM
     23          8  O    CARTESIAN Y    -1.860945     -0.069342  KCAL/ANGSTROM
     24          8  O    CARTESIAN Z    -0.551272     -0.314855  KCAL/ANGSTROM
     25          9  C    CARTESIAN X    -0.912395      0.249206  KCAL/ANGSTROM
     26          9  C    CARTESIAN Y    -1.238288      0.230235  KCAL/ANGSTROM
     27          9  C    CARTESIAN Z    -0.136783     -0.078713  KCAL/ANGSTROM
     28         10  H    CARTESIAN X     3.352109      0.035849  KCAL/ANGSTROM
     29         10  H    CARTESIAN Y    -0.999269      0.253644  KCAL/ANGSTROM
     30         10  H    CARTESIAN Z    -0.121151     -0.334485  KCAL/ANGSTROM
     31         11  H    CARTESIAN X     0.234167     -0.119449  KCAL/ANGSTROM
     32         11  H    CARTESIAN Y    -0.693786     -0.138305  KCAL/ANGSTROM
     33         11  H    CARTESIAN Z     1.617934      0.031397  KCAL/ANGSTROM
     34         12  H    CARTESIAN X     0.344410      0.247439  KCAL/ANGSTROM
     35         12  H    CARTESIAN Y     1.650042     -0.031953  KCAL/ANGSTROM
     36         12  H    CARTESIAN Z     1.156009      0.208606  KCAL/ANGSTROM
     37         13  H    CARTESIAN X    -0.311079      0.017223  KCAL/ANGSTROM
     38         13  H    CARTESIAN Y     2.619161     -0.179585  KCAL/ANGSTROM
     39         13  H    CARTESIAN Z    -1.077114     -0.126351  KCAL/ANGSTROM
     40         14  H    CARTESIAN X    -0.522170     -0.037546  KCAL/ANGSTROM
     41         14  H    CARTESIAN Y     0.956937     -0.235786  KCAL/ANGSTROM
     42         14  H    CARTESIAN Z    -1.744507      0.075320  KCAL/ANGSTROM
     43         15  H    CARTESIAN X    -2.652321     -0.251169  KCAL/ANGSTROM
     44         15  H    CARTESIAN Y    -0.354324      0.306355  KCAL/ANGSTROM
     45         15  H    CARTESIAN Z     0.821312      0.150243  KCAL/ANGSTROM
     46         16  H    CARTESIAN X    -4.016134     -0.184133  KCAL/ANGSTROM
     47         16  H    CARTESIAN Y    -1.684396      0.027518  KCAL/ANGSTROM
     48         16  H    CARTESIAN Z    -0.290512      0.085250  KCAL/ANGSTROM
     49         17  H    CARTESIAN X    -0.572886      0.148331  KCAL/ANGSTROM
     50         17  H    CARTESIAN Y    -1.981388     -0.177049  KCAL/ANGSTROM
     51         17  H    CARTESIAN Z    -0.860989     -0.149065  KCAL/ANGSTROM




   ATOM   CHEMICAL          X               Y               Z
  NUMBER   SYMBOL      (ANGSTROMS)     (ANGSTROMS)     (ANGSTROMS)

     1       O          2.62155413  *  -0.08085859  *   1.57946159  *
     2       C          2.54473232  *  -0.63058822  *   0.51258868  *
     3       O          1.37863572  *  -0.90102991  *  -0.10473299  *
     4       C          0.16242477  *  -0.44560765  *   0.52886373  *
     5       C          0.07009113  *   1.03834663  *   0.29719967  *
     6       C         -0.26688768  *   1.55860849  *  -0.88142782  *
     7       C         -2.21086419  *  -1.06116375  *   0.13181471  *
     8       O         -3.08390704  *  -1.86094529  *  -0.55127219  *
     9       C         -0.91239517  *  -1.23828846  *  -0.13678331  *
    10       H          3.35210931  *  -0.99926948  *  -0.12115099  *
    11       H          0.23416655  *  -0.69378568  *   1.61793426  *
    12       H          0.34441017  *   1.65004160  *   1.15600875  *
    13       H         -0.31107852  *   2.61916096  *  -1.07711410  *
    14       H         -0.52217050  *   0.95693722  *  -1.74450693  *
    15       H         -2.65232070  *  -0.35432409  *   0.82131173  *
    16       H         -4.01613393  *  -1.68439631  *  -0.29051185  *
    17       H         -0.57288606  *  -1.98138774  *  -0.86098891  *

                             CARTESIAN COORDINATES

   1    O        2.621554126    -0.080858586     1.579461595
   2    C        2.544732322    -0.630588216     0.512588685
   3    O        1.378635721    -0.901029907    -0.104732993
   4    C        0.162424773    -0.445607647     0.528863732
   5    C        0.070091125     1.038346628     0.297199670
   6    C       -0.266887679     1.558608491    -0.881427816
   7    C       -2.210864185    -1.061163752     0.131814708
   8    O       -3.083907038    -1.860945286    -0.551272191
   9    C       -0.912395169    -1.238288460    -0.136783309
  10    H        3.352109310    -0.999269477    -0.121150988
  11    H        0.234166546    -0.693785681     1.617934256
  12    H        0.344410174     1.650041596     1.156008751
  13    H       -0.311078518     2.619160964    -1.077114102
  14    H       -0.522170497     0.956937217    -1.744506934
  15    H       -2.652320702    -0.354324091     0.821311731
  16    H       -4.016133931    -1.684396308    -0.290511845
  17    H       -0.572886063    -1.981387735    -0.860988908


           Empirical Formula: C6 H8 O3  =    17 atoms



      MOLECULAR POINT GROUP   :   C1  


                  EIGENVALUES  
 -31.44875 -30.45331 -30.19331 -28.57784 -26.25778 -24.24997 -22.12440 -20.56129
 -19.11159 -18.11705 -17.60185 -16.75191 -16.22801 -15.31586 -14.94750 -14.29396
 -13.91165 -13.63350 -13.09889 -12.91361 -12.00696 -11.37735 -11.06983 -10.66983
  -9.57875   0.52108   0.77911   0.93957   1.84876   2.37685   3.73457   3.92109
   4.20301   4.62140   4.83892   5.10947   5.16822   5.40543   5.57688   5.67400
   5.81427   6.19012   6.36478   6.49268


              NET ATOMIC CHARGES AND DIPOLE CONTRIBUTIONS

  ATOM NO.   TYPE          CHARGE      No. of ELECS.   s-Pop       p-Pop       
    1          O          -0.502911        6.5029     1.87605     4.62686
    2          C           0.505659        3.4943     1.14764     2.34670
    3          O          -0.434348        6.4343     1.86708     4.56727
    4          C           0.148912        3.8511     1.08169     2.76940
    5          C          -0.193763        4.1938     1.09754     3.09623
    6          C          -0.263138        4.2631     1.10131     3.16182
    7          C           0.113055        3.8869     1.10211     2.78483
    8          O          -0.472133        6.4721     1.83899     4.63314
    9          C          -0.307151        4.3072     1.08144     3.22571
   10          H           0.149982        0.8500     0.85002
   11          H           0.150241        0.8498     0.84976
   12          H           0.159069        0.8409     0.84093
   13          H           0.143702        0.8563     0.85630
   14          H           0.154589        0.8454     0.84541
   15          H           0.134553        0.8654     0.86545
   16          H           0.319831        0.6802     0.68017
   17          H           0.193853        0.8061     0.80615
 DIPOLE           X         Y         Z       TOTAL
 POINT-CHG.    -1.674     0.656    -0.405     1.843
 HYBRID        -0.460    -0.067    -0.111     0.478
 SUM           -2.134     0.589    -0.516     2.273


          ATOMIC ORBITAL ELECTRON POPULATIONS

     Atom    s        px        py        pz   
    1  O   1.87605   1.85803   1.45008   1.31875
    2  C   1.14764   0.83311   0.71003   0.80356
    3  O   1.86708   1.26661   1.73268   1.56797
    4  C   1.08169   0.79327   0.94348   1.03265
    5  C   1.09754   1.02101   1.01471   1.06050
    6  C   1.10131   0.98037   1.12821   1.05325
    7  C   1.10211   0.91473   0.92441   0.94569
    8  O   1.83899   1.31331   1.64552   1.67432
    9  C   1.08144   0.98289   1.11664   1.12618
   10  H   0.85002
   11  H   0.84976
   12  H   0.84093
   13  H   0.85630
   14  H   0.84541
   15  H   0.86545
   16  H   0.68017
   17  H   0.80615

 **********************
 *                    *
 * JOB ENDED NORMALLY *
 *                    *
 **********************



 TOTAL JOB TIME:             1.41 SECONDS

 == MOPAC DONE ==
