 *******************************************************************************
 **                                                                           **
 **                              MOPAC v23.2                                  **
 **                                                                           **
 *******************************************************************************
 **          Digital Object Identifier (DOI): 10.5281/zenodo.6511958          **
 **    Visit the DOI location for information on how to cite this program.    **
 *******************************************************************************

                              PM7 CALCULATION RESULTS

 *******************************************************************************
 *  CALCULATION DONE: (MAX THREADS = 40)             Fri Sep 19 21:42:53 2025  *
 *  PM7        - The PM7 Hamiltonian to be used
 *
 *
 *
 *                 CHARGE ON SYSTEM = +1
 *
 *
 *
 *  EPS=37.5   - USE ANDREAS KLAMT'S COSMO IMPLICIT SOLVATION MODEL
 *  1SCF       - DO 1 SCF AND THEN STOP 
 *  T=         - A TIME OF 172800.0 SECONDS REQUESTED
 *  DUMP=N     - RESTART FILE WRITTEN EVERY 7200.0 SECONDS REQUESTED
 *  RELSCF     - DEFAULT SCF CRITERION MULTIPLIED BY 0.0001
 *              (DEFAULT SCF CRITERION = 0.00010)
 *  GRADIENTS  - ALL GRADIENTS TO BE PRINTED
 *  DISP       - PRINT DISPERSION AND HYDROGEN BOND ENERGIES
 *******************************************************************************
PM7 1SCF GRADIENTS EPS=37.5 DISP RELSCF=0.0001 CHARGE=1
 Title: ASE calculation

   ATOM   CHEMICAL          X               Y               Z
  NUMBER   SYMBOL      (ANGSTROMS)     (ANGSTROMS)     (ANGSTROMS)

     1       C         -2.48501478  *   1.43030080  *   0.50106423  *
     2       C         -1.35564233  *   0.58289244  *   0.22354377  *
     3       C         -1.44338994  *  -0.74010544  *  -0.40453833  *
     4       C          0.00571530  *  -1.25453952  *  -0.55709055  *
     5       C          0.85514056  *  -0.19604603  *   0.03551713  *
     6       C          2.24260799  *  -0.23893058  *   0.10837798  *
     7       N          3.40274210  *  -0.27170136  *   0.16097657  *
     8       C          0.03626448  *   0.94336360  *   0.52799227  *
     9       H         -2.84888631  *   1.97327447  *  -0.41432076  *
    10       H         -3.40274210  *   0.89021654  *   0.83607886  *
    11       H         -2.30638858  *   2.24241256  *   1.24050673  *
    12       H         -1.98858196  *  -0.73277219  *  -1.38543811  *
    13       H         -2.07475237  *  -1.45717552  *   0.18825543  *
    14       H          0.15853965  *  -2.24241256  *  -0.06059211  *
    15       H          0.27344254  *  -1.44951966  *  -1.62336318  *
    16       H          0.36068374  *   1.92689333  *   0.07829549  *
    17       H          0.21572470  *   1.15437354  *   1.62336318  *



          CARTESIAN COORDINATES 

    NO.       ATOM           X           Y           Z

     1         C         -2.4850      1.4303      0.5011
     2         C         -1.3556      0.5829      0.2235
     3         C         -1.4434     -0.7401     -0.4045
     4         C          0.0057     -1.2545     -0.5571
     5         C          0.8551     -0.1960      0.0355
     6         C          2.2426     -0.2389      0.1084
     7         N          3.4027     -0.2717      0.1610
     8         C          0.0363      0.9434      0.5280
     9         H         -2.8489      1.9733     -0.4143
    10         H         -3.4027      0.8902      0.8361
    11         H         -2.3064      2.2424      1.2405
    12         H         -1.9886     -0.7328     -1.3854
    13         H         -2.0748     -1.4572      0.1883
    14         H          0.1585     -2.2424     -0.0606
    15         H          0.2734     -1.4495     -1.6234
    16         H          0.3607      1.9269      0.0783
    17         H          0.2157      1.1544      1.6234

 General Reference for PM7:
 "Optimization of Parameters for Semiempirical Methods VI: More Modifications to the 
 NDDO Approximations and Re-optimization of Parameters", J. J. P. Stewart, J. Mol. Mod., 1:32, 19 (2013)
 https://link.springer.com/article/10.1007/s00894-012-1667-x

           Empirical Formula: C7 H9 N  =    17 atoms



      MOLECULAR POINT GROUP   :   C1  


          UHF CALCULATION, NO. OF ALPHA ELECTRONS =   21
                           NO. OF BETA  ELECTRONS =   20
  SCF CRITERION =    0.1000E-07

 -------------------------------------------------------------------------------
 PM7 1SCF GRADIENTS EPS=37.5 DISP RELSCF=0.0001 CHARGE=1
 Title: ASE calculation



     1SCF WAS SPECIFIED, SO BFGS WAS NOT USED                 
     SCF FIELD WAS ACHIEVED                                   


                              PM7 CALCULATION
                                                       MOPAC v23.2 Linux
                                                       Fri Sep 19 21:42:54 2025




          FINAL HEAT OF FORMATION =        164.34911 KCAL/MOL =     687.63668 KJ/MOL

          TOTAL ENERGY            =     -26774.74393 KCAL/MOL = ELECTRONIC ENERGY + CORE-CORE REPULSION + SOLVATION ENERGY
          ENERGY OF ATOMS         =      26940.56889 KCAL/MOL
                              SUM =        165.82496 KCAL/MOL
          DISPERSION ENERGY       =         -1.47585 KCAL/MOL
                              SUM =        164.34911 KCAL/MOL = FINAL HEAT OF FORMATION

          VAN DER WAALS AREA      =        158.50 SQUARE ANGSTROMS


          TOTAL ENERGY            =      -1161.06279 EV
          ELECTRONIC ENERGY       =      -1619.43254 EV 
          CORE-CORE REPULSION     =        458.36975 EV

          DIELECTRIC ENERGY       =         -3.02157 EV
          COSMO AREA              =        158.50 SQUARE ANGSTROMS
          COSMO VOLUME            =        150.28 CUBIC ANGSTROMS

          GRADIENT NORM           =         18.92973          =       4.59114 PER ATOM
          IONIZATION POTENTIAL    =          9.995056 EV
          ALPHA SOMO LUMO (EV)    =         -9.995 -1.999
          BETA  SOMO LUMO (EV)    =        -12.857 -2.017
          NO. OF ALPHA ELECTRONS  =         21
          NO. OF BETA  ELECTRONS  =         20
          MOLECULAR WEIGHT        =        107.1548         POINT GROUP:  C1  

          MOLECULAR DIMENSIONS (Angstroms)

            Atom       Atom       Distance
            H    10    N     7     6.93689
            H    16    H    14     4.14482
            H    17    H    15     3.12728


          SCF CALCULATIONS        =          2

          WALL-CLOCK TIME         =      0.883 SECONDS
          COMPUTATION TIME        =      0.994 SECONDS

          LARGEST ATOMIC GRADIENTS

          Atom     Label                     Cartesian Gradients           Cartesian Coordinates       |Gradient|
                                           X          Y          Z        X          Y          Z

             8       C                  -6.191      5.787      2.306    0.03626    0.94336    0.52799      8.783
             2       C                   7.591     -2.406      0.132   -1.35564    0.58289    0.22354      7.964
             7       N                  -7.504      0.514     -0.705    3.40274   -0.27170    0.16098      7.554
             6       C                   7.349     -0.212      0.848    2.24261   -0.23893    0.10838      7.401
             3       C                  -5.394      0.626     -0.422   -1.44339   -0.74011   -0.40454      5.447
             5       C                   4.420     -2.152     -0.525    0.85514   -0.19605    0.03552      4.944
             1       C                  -2.994      1.994     -2.416   -2.48501    1.43030    0.50106      4.333
            16       H                   2.092     -1.369     -0.312    0.36068    1.92689    0.07830      2.520
            17       H                   1.691     -1.141     -0.495    0.21572    1.15437    1.62336      2.099
            11       H                  -0.823      1.254      1.221   -2.30639    2.24241    1.24051      1.934



       FINAL  POINT  AND  DERIVATIVES

   PARAMETER     ATOM    TYPE            VALUE        GRADIENT
      1          1  C    CARTESIAN X    -2.485015     -2.993663  KCAL/ANGSTROM
      2          1  C    CARTESIAN Y     1.430301      1.994179  KCAL/ANGSTROM
      3          1  C    CARTESIAN Z     0.501064     -2.415924  KCAL/ANGSTROM
      4          2  C    CARTESIAN X    -1.355642      7.591040  KCAL/ANGSTROM
      5          2  C    CARTESIAN Y     0.582892     -2.406496  KCAL/ANGSTROM
      6          2  C    CARTESIAN Z     0.223544      0.131796  KCAL/ANGSTROM
      7          3  C    CARTESIAN X    -1.443390     -5.394030  KCAL/ANGSTROM
      8          3  C    CARTESIAN Y    -0.740105      0.626163  KCAL/ANGSTROM
      9          3  C    CARTESIAN Z    -0.404538     -0.421954  KCAL/ANGSTROM
     10          4  C    CARTESIAN X     0.005715     -1.727768  KCAL/ANGSTROM
     11          4  C    CARTESIAN Y    -1.254540     -0.435317  KCAL/ANGSTROM
     12          4  C    CARTESIAN Z    -0.557091     -0.422365  KCAL/ANGSTROM
     13          5  C    CARTESIAN X     0.855141      4.420145  KCAL/ANGSTROM
     14          5  C    CARTESIAN Y    -0.196046     -2.151563  KCAL/ANGSTROM
     15          5  C    CARTESIAN Z     0.035517     -0.524598  KCAL/ANGSTROM
     16          6  C    CARTESIAN X     2.242608      7.349300  KCAL/ANGSTROM
     17          6  C    CARTESIAN Y    -0.238931     -0.211848  KCAL/ANGSTROM
     18          6  C    CARTESIAN Z     0.108378      0.847871  KCAL/ANGSTROM
     19          7  N    CARTESIAN X     3.402742     -7.503834  KCAL/ANGSTROM
     20          7  N    CARTESIAN Y    -0.271701      0.513773  KCAL/ANGSTROM
     21          7  N    CARTESIAN Z     0.160977     -0.705270  KCAL/ANGSTROM
     22          8  C    CARTESIAN X     0.036264     -6.191456  KCAL/ANGSTROM
     23          8  C    CARTESIAN Y     0.943364      5.787044  KCAL/ANGSTROM
     24          8  C    CARTESIAN Z     0.527992      2.306127  KCAL/ANGSTROM
     25          9  H    CARTESIAN X    -2.848886     -1.106181  KCAL/ANGSTROM
     26          9  H    CARTESIAN Y     1.973274      0.795634  KCAL/ANGSTROM
     27          9  H    CARTESIAN Z    -0.414321      0.905110  KCAL/ANGSTROM
     28         10  H    CARTESIAN X    -3.402742     -1.454388  KCAL/ANGSTROM
     29         10  H    CARTESIAN Y     0.890217      0.360236  KCAL/ANGSTROM
     30         10  H    CARTESIAN Z     0.836079      1.130368  KCAL/ANGSTROM
     31         11  H    CARTESIAN X    -2.306389     -0.822766  KCAL/ANGSTROM
     32         11  H    CARTESIAN Y     2.242413      1.253700  KCAL/ANGSTROM
     33         11  H    CARTESIAN Z     1.240507      1.220749  KCAL/ANGSTROM
     34         12  H    CARTESIAN X    -1.988582      0.690321  KCAL/ANGSTROM
     35         12  H    CARTESIAN Y    -0.732772     -1.109024  KCAL/ANGSTROM
     36         12  H    CARTESIAN Z    -1.385438     -0.845404  KCAL/ANGSTROM
     37         13  H    CARTESIAN X    -2.074752      0.696756  KCAL/ANGSTROM
     38         13  H    CARTESIAN Y    -1.457176     -1.114480  KCAL/ANGSTROM
     39         13  H    CARTESIAN Z     0.188255      0.050093  KCAL/ANGSTROM
     40         14  H    CARTESIAN X     0.158540      1.225269  KCAL/ANGSTROM
     41         14  H    CARTESIAN Y    -2.242413     -0.986920  KCAL/ANGSTROM
     42         14  H    CARTESIAN Z    -0.060592     -0.110301  KCAL/ANGSTROM
     43         15  H    CARTESIAN X     0.273443      1.437974  KCAL/ANGSTROM
     44         15  H    CARTESIAN Y    -1.449520     -0.404737  KCAL/ANGSTROM
     45         15  H    CARTESIAN Z    -1.623363     -0.339329  KCAL/ANGSTROM
     46         16  H    CARTESIAN X     0.360684      2.091937  KCAL/ANGSTROM
     47         16  H    CARTESIAN Y     1.926893     -1.369192  KCAL/ANGSTROM
     48         16  H    CARTESIAN Z     0.078295     -0.312395  KCAL/ANGSTROM
     49         17  H    CARTESIAN X     0.215725      1.691340  KCAL/ANGSTROM
     50         17  H    CARTESIAN Y     1.154374     -1.141153  KCAL/ANGSTROM
     51         17  H    CARTESIAN Z     1.623363     -0.494576  KCAL/ANGSTROM




   ATOM   CHEMICAL          X               Y               Z
  NUMBER   SYMBOL      (ANGSTROMS)     (ANGSTROMS)     (ANGSTROMS)

     1       C         -2.48501478  *   1.43030080  *   0.50106423  *
     2       C         -1.35564233  *   0.58289244  *   0.22354377  *
     3       C         -1.44338994  *  -0.74010544  *  -0.40453833  *
     4       C          0.00571530  *  -1.25453952  *  -0.55709055  *
     5       C          0.85514056  *  -0.19604603  *   0.03551713  *
     6       C          2.24260799  *  -0.23893058  *   0.10837798  *
     7       N          3.40274210  *  -0.27170136  *   0.16097657  *
     8       C          0.03626448  *   0.94336360  *   0.52799227  *
     9       H         -2.84888631  *   1.97327447  *  -0.41432076  *
    10       H         -3.40274210  *   0.89021654  *   0.83607886  *
    11       H         -2.30638858  *   2.24241256  *   1.24050673  *
    12       H         -1.98858196  *  -0.73277219  *  -1.38543811  *
    13       H         -2.07475237  *  -1.45717552  *   0.18825543  *
    14       H          0.15853965  *  -2.24241256  *  -0.06059211  *
    15       H          0.27344254  *  -1.44951966  *  -1.62336318  *
    16       H          0.36068374  *   1.92689333  *   0.07829549  *
    17       H          0.21572470  *   1.15437354  *   1.62336318  *

                             CARTESIAN COORDINATES

   1    C       -2.485014777     1.430300796     0.501064229
   2    C       -1.355642333     0.582892445     0.223543767
   3    C       -1.443389939    -0.740105435    -0.404538332
   4    C        0.005715296    -1.254539516    -0.557090548
   5    C        0.855140557    -0.196046027     0.035517129
   6    C        2.242607990    -0.238930581     0.108377983
   7    N        3.402742100    -0.271701365     0.160976569
   8    C        0.036264483     0.943363603     0.527992274
   9    H       -2.848886312     1.973274473    -0.414320762
  10    H       -3.402742100     0.890216539     0.836078858
  11    H       -2.306388577     2.242412558     1.240506727
  12    H       -1.988581958    -0.732772189    -1.385438113
  13    H       -2.074752371    -1.457175516     0.188255430
  14    H        0.158539646    -2.242412558    -0.060592108
  15    H        0.273442542    -1.449519656    -1.623363182
  16    H        0.360683740     1.926893331     0.078295495
  17    H        0.215724698     1.154373535     1.623363182


           Empirical Formula: C7 H9 N  =    17 atoms



      MOLECULAR POINT GROUP   :   C1  


          ALPHA EIGENVALUES  
 -35.91178 -32.40296 -28.28978 -26.61797 -24.60617 -22.00541 -20.01512 -18.66198
 -17.59658 -16.24873 -15.41705 -15.34826 -15.23360 -15.08827 -14.27669 -14.24761
 -13.88164 -13.55874 -13.28709 -13.09599  -9.99506  -1.99929   0.28904   0.65766
   1.78004   2.23119   2.35612   2.75958   2.99964   3.34627   3.61073   4.08974
   4.24222   4.46924   4.68167   4.92538   4.94069   5.02022   5.32642   5.62814
   5.84873


           BETA EIGENVALUES 
 -35.43898 -32.33441 -28.18796 -26.54010 -24.50367 -21.89210 -19.97660 -18.53561
 -17.33484 -16.17421 -15.26881 -15.14239 -15.01083 -14.79679 -14.10282 -13.94976
 -13.83609 -13.50218 -13.13360 -12.85693  -2.01667  -1.47311   0.38895   1.48591
   1.80991   2.25752   2.38790   2.92234   3.19704   3.44665   3.78712   4.15713
   4.27440   4.47599   4.68308   5.00533   5.05278   5.11269   5.33406   5.67986
   5.84970


              NET ATOMIC CHARGES AND DIPOLE CONTRIBUTIONS

  ATOM NO.   TYPE          CHARGE      No. of ELECS.   s-Pop       p-Pop       
    1          C          -0.575509        4.5755     1.05895     3.51656
    2          C           0.569863        3.4301     1.16834     2.26180
    3          C          -0.388106        4.3881     1.07347     3.31463
    4          C          -0.259298        4.2593     1.05916     3.20014
    5          C          -0.012944        4.0129     1.07099     2.94195
    6          C           0.186429        3.8136     1.09421     2.71936
    7          N          -0.320120        5.3201     1.83096     3.48916
    8          C          -0.390743        4.3907     1.06706     3.32368
    9          H           0.272445        0.7276     0.72756
   10          H           0.241309        0.7587     0.75869
   11          H           0.228813        0.7712     0.77119
   12          H           0.248981        0.7510     0.75102
   13          H           0.251833        0.7482     0.74817
   14          H           0.203538        0.7965     0.79646
   15          H           0.203473        0.7965     0.79653
   16          H           0.269473        0.7305     0.73053
   17          H           0.270562        0.7294     0.72944
 DIPOLE           X         Y         Z       TOTAL
 POINT-CHG.   -11.885     2.637     0.100    12.175
 HYBRID        -0.412     0.175     0.032     0.449
 SUM          -12.298     2.812     0.133    12.616


          ATOMIC ORBITAL ELECTRON POPULATIONS

     Atom    s        px        py        pz   
    1  C   1.05895   1.11118   1.17326   1.23212
    2  C   1.16834   0.94846   0.85253   0.46080
    3  C   1.07347   1.08883   1.03623   1.18956
    4  C   1.05916   0.94777   1.07943   1.17293
    5  C   1.07099   0.92420   0.99107   1.02669
    6  C   1.09421   0.91492   0.89518   0.90926
    7  N   1.83096   1.23011   1.12709   1.13196
    8  C   1.06706   0.99681   1.11892   1.20795
    9  H   0.72756
   10  H   0.75869
   11  H   0.77119
   12  H   0.75102
   13  H   0.74817
   14  H   0.79646
   15  H   0.79653
   16  H   0.73053
   17  H   0.72944


                    (SZ)    =    0.500000
                    (S**2)  =    0.772465


          ATOMIC ORBITAL SPIN POPULATIONS

    Atom   Total    s     px     py     pz   
         Atomic
    1  C -0.0006 -0.000 -0.000 -0.000  0.000
    2  C  0.0034  0.000  0.001  0.001  0.002
    3  C  0.0021  0.000  0.001  0.000  0.001
    4  C -0.0305 -0.005 -0.009 -0.016 -0.000
    5  C  0.8751  0.023  0.029  0.178  0.645
    6  C -0.2023 -0.015 -0.019 -0.061 -0.108
    7  N  0.2894  0.004  0.006  0.084  0.195
    8  C -0.0296 -0.005 -0.009 -0.016  0.000
    9  H  0.0002  0.000
   10  H  0.0001  0.000
   11  H  0.0000  0.000
   12  H  0.0007  0.001
   13  H  0.0008  0.001
   14  H  0.0269  0.027
   15  H  0.0278  0.028
   16  H  0.0179  0.018
   17  H  0.0185  0.018

 **********************
 *                    *
 * JOB ENDED NORMALLY *
 *                    *
 **********************



 TOTAL JOB TIME:             1.20 SECONDS

 == MOPAC DONE ==
