 *******************************************************************************
 **                                                                           **
 **                              MOPAC v23.2                                  **
 **                                                                           **
 *******************************************************************************
 **          Digital Object Identifier (DOI): 10.5281/zenodo.6511958          **
 **    Visit the DOI location for information on how to cite this program.    **
 *******************************************************************************

                              PM7 CALCULATION RESULTS

 *******************************************************************************
 *  CALCULATION DONE: (MAX THREADS = 40)             Fri Sep 19 21:32:20 2025  *
 *  PM7        - The PM7 Hamiltonian to be used
 *  1SCF       - DO 1 SCF AND THEN STOP 
 *  T=         - A TIME OF 172800.0 SECONDS REQUESTED
 *  DUMP=N     - RESTART FILE WRITTEN EVERY 7200.0 SECONDS REQUESTED
 *  RELSCF     - DEFAULT SCF CRITERION MULTIPLIED BY 0.0001
 *              (DEFAULT SCF CRITERION = 0.00010)
 *  GRADIENTS  - ALL GRADIENTS TO BE PRINTED
 *  DISP       - PRINT DISPERSION AND HYDROGEN BOND ENERGIES
 *******************************************************************************
PM7 1SCF GRADIENTS DISP RELSCF=0.0001
 Title: ASE calculation

   ATOM   CHEMICAL          X               Y               Z
  NUMBER   SYMBOL      (ANGSTROMS)     (ANGSTROMS)     (ANGSTROMS)

     1       C          2.31362359  *  -0.91941803  *   0.53151859  *
     2       C          1.69269843  *   0.35656552  *   1.02525130  *
     3       C          0.88032153  *   1.29094024  *   0.15274078  *
     4       C          0.00643428  *   0.54194446  *  -0.87920099  *
     5       C         -0.57484050  *  -0.24591158  *   0.30915421  *
     6       C         -0.96635813  *  -1.69259322  *   0.40327066  *
     7       C         -2.01338639  *  -0.61585684  *   0.59320848  *
     8       O         -2.90045373  *  -0.53323690  *  -0.47430498  *
     9       N          0.23426034  *   0.51340932  *   1.30509870  *
    10       H          2.28084478  *  -1.69553012  *   1.31078463  *
    11       H          1.80800854  *  -1.33187302  *  -0.35137071  *
    12       H          3.36652660  *  -0.76577994  *   0.25756290  *
    13       H          2.29521947  *   0.83584810  *   1.82166025  *
    14       H          1.00434069  *   2.35737924  *   0.12852358  *
    15       H          0.54263777  *  -0.04297342  *  -1.63032249  *
    16       H         -0.72107407  *   1.17660124  *  -1.39532787  *
    17       H         -0.99478857  *  -2.29847692  *  -0.50112922  *
    18       H         -0.65108453  *  -2.29011051  *   1.25493865  *
    19       H         -2.48276698  *  -0.41516252  *   1.55461751  *
    20       H         -3.28600583  *   0.36934476  *  -0.52128359  *



          CARTESIAN COORDINATES 

    NO.       ATOM           X           Y           Z

     1         C          2.3136     -0.9194      0.5315
     2         C          1.6927      0.3566      1.0253
     3         C          0.8803      1.2909      0.1527
     4         C          0.0064      0.5419     -0.8792
     5         C         -0.5748     -0.2459      0.3092
     6         C         -0.9664     -1.6926      0.4033
     7         C         -2.0134     -0.6159      0.5932
     8         O         -2.9005     -0.5332     -0.4743
     9         N          0.2343      0.5134      1.3051
    10         H          2.2808     -1.6955      1.3108
    11         H          1.8080     -1.3319     -0.3514
    12         H          3.3665     -0.7658      0.2576
    13         H          2.2952      0.8358      1.8217
    14         H          1.0043      2.3574      0.1285
    15         H          0.5426     -0.0430     -1.6303
    16         H         -0.7211      1.1766     -1.3953
    17         H         -0.9948     -2.2985     -0.5011
    18         H         -0.6511     -2.2901      1.2549
    19         H         -2.4828     -0.4152      1.5546
    20         H         -3.2860      0.3693     -0.5213

 General Reference for PM7:
 "Optimization of Parameters for Semiempirical Methods VI: More Modifications to the 
 NDDO Approximations and Re-optimization of Parameters", J. J. P. Stewart, J. Mol. Mod., 1:32, 19 (2013)
 https://link.springer.com/article/10.1007/s00894-012-1667-x

           Empirical Formula: C7 H11 N O  =    20 atoms



      MOLECULAR POINT GROUP   :   C1  


      RHF CALCULATION, NO. OF DOUBLY OCCUPIED LEVELS = 25

  SCF CRITERION =    0.1000E-07

 -------------------------------------------------------------------------------
 PM7 1SCF GRADIENTS DISP RELSCF=0.0001
 Title: ASE calculation



     1SCF WAS SPECIFIED, SO BFGS WAS NOT USED                 
     SCF FIELD WAS ACHIEVED                                   


                              PM7 CALCULATION
                                                       MOPAC v23.2 Linux
                                                       Fri Sep 19 21:32:20 2025




          FINAL HEAT OF FORMATION =         38.85901 KCAL/MOL =     162.58610 KJ/MOL

          TOTAL ENERGY            =     -34283.17075 KCAL/MOL = ELECTRONIC ENERGY + CORE-CORE REPULSION
          ENERGY OF ATOMS         =      34323.93363 KCAL/MOL
                              SUM =         40.76288 KCAL/MOL
          DISPERSION ENERGY       =         -1.90387 KCAL/MOL
                              SUM =         38.85901 KCAL/MOL = FINAL HEAT OF FORMATION



          TOTAL ENERGY            =      -1486.65899 EV
          ELECTRONIC ENERGY       =      -7497.96441 EV 
          CORE-CORE REPULSION     =       6011.30542 EV
          COSMO AREA              =        162.69 SQUARE ANGSTROMS
          COSMO VOLUME            =        164.23 CUBIC ANGSTROMS

          GRADIENT NORM           =          1.14669          =       0.25641 PER ATOM
          IONIZATION POTENTIAL    =          9.761460 EV
          HOMO LUMO ENERGIES (EV) =         -9.761  1.868
          NO. OF FILLED LEVELS    =         25
          MOLECULAR WEIGHT        =        125.1700         POINT GROUP:  C1  

          MOLECULAR DIMENSIONS (Angstroms)

            Atom       Atom       Distance
            H    20    H    12     6.79347
            H    14    H    18     5.00965
            H    13    H    15     3.43283


          SCF CALCULATIONS        =          1

          WALL-CLOCK TIME         =      0.531 SECONDS
          COMPUTATION TIME        =      0.343 SECONDS

          LARGEST ATOMIC GRADIENTS

          Atom     Label                     Cartesian Gradients           Cartesian Coordinates       |Gradient|
                                           X          Y          Z        X          Y          Z

            16       H                   0.310      0.206      0.001   -0.72107    1.17660   -1.39533      0.372
            11       H                   0.120      0.259     -0.240    1.80801   -1.33187   -0.35137      0.372
             4       C                  -0.156     -0.311      0.130    0.00643    0.54194   -0.87920      0.371
             5       C                   0.097     -0.069      0.283   -0.57484   -0.24591    0.30915      0.307
             9       N                   0.029     -0.018      0.284    0.23426    0.51341    1.30510      0.286
            19       H                   0.112      0.049     -0.250   -2.48277   -0.41516    1.55462      0.278
            20       H                  -0.250     -0.068      0.040   -3.28601    0.36934   -0.52128      0.262
            12       H                   0.210     -0.119     -0.080    3.36653   -0.76578    0.25756      0.254
             8       O                  -0.194     -0.154     -0.011   -2.90045   -0.53324   -0.47430      0.248
             7       C                   0.081      0.113     -0.198   -2.01339   -0.61586    0.59321      0.242



       FINAL  POINT  AND  DERIVATIVES

   PARAMETER     ATOM    TYPE            VALUE        GRADIENT
      1          1  C    CARTESIAN X     2.313624      0.052444  KCAL/ANGSTROM
      2          1  C    CARTESIAN Y    -0.919418     -0.010206  KCAL/ANGSTROM
      3          1  C    CARTESIAN Z     0.531519      0.026238  KCAL/ANGSTROM
      4          2  C    CARTESIAN X     1.692698     -0.205352  KCAL/ANGSTROM
      5          2  C    CARTESIAN Y     0.356566     -0.047216  KCAL/ANGSTROM
      6          2  C    CARTESIAN Z     1.025251      0.050628  KCAL/ANGSTROM
      7          3  C    CARTESIAN X     0.880322      0.054431  KCAL/ANGSTROM
      8          3  C    CARTESIAN Y     1.290940      0.000465  KCAL/ANGSTROM
      9          3  C    CARTESIAN Z     0.152741     -0.153371  KCAL/ANGSTROM
     10          4  C    CARTESIAN X     0.006434     -0.156204  KCAL/ANGSTROM
     11          4  C    CARTESIAN Y     0.541944     -0.310621  KCAL/ANGSTROM
     12          4  C    CARTESIAN Z    -0.879201      0.129918  KCAL/ANGSTROM
     13          5  C    CARTESIAN X    -0.574841      0.096973  KCAL/ANGSTROM
     14          5  C    CARTESIAN Y    -0.245912     -0.068707  KCAL/ANGSTROM
     15          5  C    CARTESIAN Z     0.309154      0.283314  KCAL/ANGSTROM
     16          6  C    CARTESIAN X    -0.966358      0.233031  KCAL/ANGSTROM
     17          6  C    CARTESIAN Y    -1.692593      0.015678  KCAL/ANGSTROM
     18          6  C    CARTESIAN Z     0.403271      0.062853  KCAL/ANGSTROM
     19          7  C    CARTESIAN X    -2.013386      0.080601  KCAL/ANGSTROM
     20          7  C    CARTESIAN Y    -0.615857      0.112507  KCAL/ANGSTROM
     21          7  C    CARTESIAN Z     0.593208     -0.198416  KCAL/ANGSTROM
     22          8  O    CARTESIAN X    -2.900454     -0.194074  KCAL/ANGSTROM
     23          8  O    CARTESIAN Y    -0.533237     -0.154316  KCAL/ANGSTROM
     24          8  O    CARTESIAN Z    -0.474305     -0.010567  KCAL/ANGSTROM
     25          9  N    CARTESIAN X     0.234260      0.029131  KCAL/ANGSTROM
     26          9  N    CARTESIAN Y     0.513409     -0.017556  KCAL/ANGSTROM
     27          9  N    CARTESIAN Z     1.305099      0.283676  KCAL/ANGSTROM
     28         10  H    CARTESIAN X     2.280845     -0.145289  KCAL/ANGSTROM
     29         10  H    CARTESIAN Y    -1.695530     -0.134482  KCAL/ANGSTROM
     30         10  H    CARTESIAN Z     1.310785      0.098914  KCAL/ANGSTROM
     31         11  H    CARTESIAN X     1.808009      0.119853  KCAL/ANGSTROM
     32         11  H    CARTESIAN Y    -1.331873      0.258740  KCAL/ANGSTROM
     33         11  H    CARTESIAN Z    -0.351371     -0.239620  KCAL/ANGSTROM
     34         12  H    CARTESIAN X     3.366527      0.210109  KCAL/ANGSTROM
     35         12  H    CARTESIAN Y    -0.765780     -0.119168  KCAL/ANGSTROM
     36         12  H    CARTESIAN Z     0.257563     -0.079752  KCAL/ANGSTROM
     37         13  H    CARTESIAN X     2.295219     -0.153750  KCAL/ANGSTROM
     38         13  H    CARTESIAN Y     0.835848      0.055240  KCAL/ANGSTROM
     39         13  H    CARTESIAN Z     1.821660     -0.110267  KCAL/ANGSTROM
     40         14  H    CARTESIAN X     1.004341      0.110642  KCAL/ANGSTROM
     41         14  H    CARTESIAN Y     2.357379      0.203262  KCAL/ANGSTROM
     42         14  H    CARTESIAN Z     0.128524      0.014992  KCAL/ANGSTROM
     43         15  H    CARTESIAN X     0.542638     -0.052353  KCAL/ANGSTROM
     44         15  H    CARTESIAN Y    -0.042973      0.092912  KCAL/ANGSTROM
     45         15  H    CARTESIAN Z    -1.630322     -0.172743  KCAL/ANGSTROM
     46         16  H    CARTESIAN X    -0.721074      0.310451  KCAL/ANGSTROM
     47         16  H    CARTESIAN Y     1.176601      0.205800  KCAL/ANGSTROM
     48         16  H    CARTESIAN Z    -1.395328      0.001127  KCAL/ANGSTROM
     49         17  H    CARTESIAN X    -0.994789     -0.214189  KCAL/ANGSTROM
     50         17  H    CARTESIAN Y    -2.298477     -0.025764  KCAL/ANGSTROM
     51         17  H    CARTESIAN Z    -0.501129      0.102043  KCAL/ANGSTROM
     52         18  H    CARTESIAN X    -0.651085     -0.038081  KCAL/ANGSTROM
     53         18  H    CARTESIAN Y    -2.290111     -0.037128  KCAL/ANGSTROM
     54         18  H    CARTESIAN Z     1.254939      0.120641  KCAL/ANGSTROM
     55         19  H    CARTESIAN X    -2.482767      0.111795  KCAL/ANGSTROM
     56         19  H    CARTESIAN Y    -0.415163      0.048522  KCAL/ANGSTROM
     57         19  H    CARTESIAN Z     1.554618     -0.250000  KCAL/ANGSTROM
     58         20  H    CARTESIAN X    -3.286006     -0.250167  KCAL/ANGSTROM
     59         20  H    CARTESIAN Y     0.369345     -0.067966  KCAL/ANGSTROM
     60         20  H    CARTESIAN Z    -0.521284      0.040388  KCAL/ANGSTROM




   ATOM   CHEMICAL          X               Y               Z
  NUMBER   SYMBOL      (ANGSTROMS)     (ANGSTROMS)     (ANGSTROMS)

     1       C          2.31362359  *  -0.91941803  *   0.53151859  *
     2       C          1.69269843  *   0.35656552  *   1.02525130  *
     3       C          0.88032153  *   1.29094024  *   0.15274078  *
     4       C          0.00643428  *   0.54194446  *  -0.87920099  *
     5       C         -0.57484050  *  -0.24591158  *   0.30915421  *
     6       C         -0.96635813  *  -1.69259322  *   0.40327066  *
     7       C         -2.01338639  *  -0.61585684  *   0.59320848  *
     8       O         -2.90045373  *  -0.53323690  *  -0.47430498  *
     9       N          0.23426034  *   0.51340932  *   1.30509870  *
    10       H          2.28084478  *  -1.69553012  *   1.31078463  *
    11       H          1.80800854  *  -1.33187302  *  -0.35137071  *
    12       H          3.36652660  *  -0.76577994  *   0.25756290  *
    13       H          2.29521947  *   0.83584810  *   1.82166025  *
    14       H          1.00434069  *   2.35737924  *   0.12852358  *
    15       H          0.54263777  *  -0.04297342  *  -1.63032249  *
    16       H         -0.72107407  *   1.17660124  *  -1.39532787  *
    17       H         -0.99478857  *  -2.29847692  *  -0.50112922  *
    18       H         -0.65108453  *  -2.29011051  *   1.25493865  *
    19       H         -2.48276698  *  -0.41516252  *   1.55461751  *
    20       H         -3.28600583  *   0.36934476  *  -0.52128359  *

                             CARTESIAN COORDINATES

   1    C        2.313623594    -0.919418033     0.531518589
   2    C        1.692698425     0.356565515     1.025251300
   3    C        0.880321528     1.290940244     0.152740783
   4    C        0.006434279     0.541944456    -0.879200988
   5    C       -0.574840504    -0.245911584     0.309154207
   6    C       -0.966358132    -1.692593222     0.403270657
   7    C       -2.013386392    -0.615856839     0.593208484
   8    O       -2.900453734    -0.533236903    -0.474304983
   9    N        0.234260343     0.513409325     1.305098703
  10    H        2.280844779    -1.695530123     1.310784629
  11    H        1.808008541    -1.331873021    -0.351370714
  12    H        3.366526599    -0.765779939     0.257562902
  13    H        2.295219472     0.835848100     1.821660251
  14    H        1.004340686     2.357379238     0.128523579
  15    H        0.542637772    -0.042973424    -1.630322495
  16    H       -0.721074067     1.176601241    -1.395327875
  17    H       -0.994788573    -2.298476924    -0.501129218
  18    H       -0.651084526    -2.290110512     1.254938651
  19    H       -2.482766980    -0.415162518     1.554617515
  20    H       -3.286005833     0.369344757    -0.521283593


           Empirical Formula: C7 H11 N O  =    20 atoms



      MOLECULAR POINT GROUP   :   C1  


                  EIGENVALUES  
 -36.89326 -30.72641 -28.55348 -26.42332 -25.64849 -22.71712 -20.89595 -19.29477
 -18.57116 -17.93635 -17.25856 -16.21640 -15.71618 -14.73175 -14.35951 -14.21060
 -13.54542 -13.37441 -12.75310 -12.40942 -11.96042 -11.66867 -11.11367 -10.55295
  -9.76146   1.86760   2.08940   2.37712   2.81380   3.06252   3.57285   3.62253
   3.93971   4.00919   4.26264   4.62672   5.28905   5.44046   5.48935   5.51209
   5.66691   5.70926   5.81532   5.89675   6.10052   6.31152   6.64487


              NET ATOMIC CHARGES AND DIPOLE CONTRIBUTIONS

  ATOM NO.   TYPE          CHARGE      No. of ELECS.   s-Pop       p-Pop       
    1          C          -0.453895        4.4539     1.05086     3.40303
    2          C          -0.016823        4.0168     1.06968     2.94714
    3          C          -0.109632        4.1096     1.08926     3.02037
    4          C          -0.279444        4.2794     1.07238     3.20707
    5          C           0.037615        3.9624     1.05572     2.90666
    6          C          -0.364310        4.3643     1.06049     3.30382
    7          C           0.099063        3.9009     1.06935     2.83159
    8          O          -0.511148        6.5111     1.84700     4.66414
    9          N          -0.369821        5.3698     1.79900     3.57082
   10          H           0.162290        0.8377     0.83771
   11          H           0.160159        0.8398     0.83984
   12          H           0.157452        0.8425     0.84255
   13          H           0.169379        0.8306     0.83062
   14          H           0.169751        0.8302     0.83025
   15          H           0.156646        0.8434     0.84335
   16          H           0.159839        0.8402     0.84016
   17          H           0.180481        0.8195     0.81952
   18          H           0.174404        0.8256     0.82560
   19          H           0.159581        0.8404     0.84042
   20          H           0.318413        0.6816     0.68159
 DIPOLE           X         Y         Z       TOTAL
 POINT-CHG.     1.600     0.473    -0.417     1.720
 HYBRID        -0.180    -0.147    -0.634     0.675
 SUM            1.420     0.327    -1.051     1.797


          ATOMIC ORBITAL ELECTRON POPULATIONS

     Atom    s        px        py        pz   
    1  C   1.05086   1.15498   1.07377   1.17428
    2  C   1.06968   0.89332   1.00779   1.04604
    3  C   1.08926   1.05340   1.05872   0.90825
    4  C   1.07238   1.08390   1.08278   1.04038
    5  C   1.05572   1.01013   0.97359   0.92294
    6  C   1.06049   1.11383   0.99977   1.19022
    7  C   1.06935   0.84946   1.05394   0.92819
    8  O   1.84700   1.65148   1.45000   1.56266
    9  N   1.79900   1.08729   1.22694   1.25658
   10  H   0.83771
   11  H   0.83984
   12  H   0.84255
   13  H   0.83062
   14  H   0.83025
   15  H   0.84335
   16  H   0.84016
   17  H   0.81952
   18  H   0.82560
   19  H   0.84042
   20  H   0.68159

 **********************
 *                    *
 * JOB ENDED NORMALLY *
 *                    *
 **********************



 TOTAL JOB TIME:             0.94 SECONDS

 == MOPAC DONE ==
