 *******************************************************************************
 **                                                                           **
 **                              MOPAC v23.2                                  **
 **                                                                           **
 *******************************************************************************
 **          Digital Object Identifier (DOI): 10.5281/zenodo.6511958          **
 **    Visit the DOI location for information on how to cite this program.    **
 *******************************************************************************

                              PM7 CALCULATION RESULTS

 *******************************************************************************
 *  CALCULATION DONE: (MAX THREADS = 40)             Fri Sep 19 21:33:44 2025  *
 *  PM7        - The PM7 Hamiltonian to be used
 *  1SCF       - DO 1 SCF AND THEN STOP 
 *  T=         - A TIME OF 172800.0 SECONDS REQUESTED
 *  DUMP=N     - RESTART FILE WRITTEN EVERY 7200.0 SECONDS REQUESTED
 *  RELSCF     - DEFAULT SCF CRITERION MULTIPLIED BY 0.0001
 *              (DEFAULT SCF CRITERION = 0.00010)
 *  GRADIENTS  - ALL GRADIENTS TO BE PRINTED
 *  DISP       - PRINT DISPERSION AND HYDROGEN BOND ENERGIES
 *******************************************************************************
PM7 1SCF GRADIENTS DISP RELSCF=0.0001
 Title: ASE calculation

   ATOM   CHEMICAL          X               Y               Z
  NUMBER   SYMBOL      (ANGSTROMS)     (ANGSTROMS)     (ANGSTROMS)

     1       C         -0.97500693  *   1.74998738  *   0.65628784  *
     2       C         -0.38539847  *   0.47413432  *   0.10206845  *
     3       C         -0.93896297  *   0.02391436  *  -1.25026212  *
     4       C         -1.72957338  *  -1.26598252  *  -0.97748826  *
     5       C         -1.12031337  *  -1.90640135  *   0.28145048  *
     6       C         -0.45101611  *  -0.77004958  *   1.07303151  *
     7       N          0.96423492  *  -1.05762158  *   1.36255473  *
     8       C          1.70271877  *  -0.22535649  *   0.71175709  *
     9       O          1.04089789  *   0.70663009  *  -0.04790588  *
    10       H         -2.06165921  *   1.67065642  *   0.77577208  *
    11       H         -0.54579430  *   2.00097736  *   1.63572418  *
    12       H         -0.77064245  *   2.60442276  *  -0.00450131  *
    13       H         -1.56355512  *   0.79566551  *  -1.72617925  *
    14       H         -0.10468071  *  -0.16475921  *  -1.95441698  *
    15       H         -2.79908327  *  -1.04000913  *  -0.81995931  *
    16       H         -1.68474156  *  -1.95377628  *  -1.83745594  *
    17       H         -0.37487027  *  -2.67910325  *   0.01261978  *
    18       H         -1.88126240  *  -2.42434509  *   0.88573987  *
    19       H         -0.98221990  *  -0.55570900  *   2.02296755  *
    20       H          2.77578462  *  -0.12944131  *   0.66900574  *



          CARTESIAN COORDINATES 

    NO.       ATOM           X           Y           Z

     1         C         -0.9750      1.7500      0.6563
     2         C         -0.3854      0.4741      0.1021
     3         C         -0.9390      0.0239     -1.2503
     4         C         -1.7296     -1.2660     -0.9775
     5         C         -1.1203     -1.9064      0.2815
     6         C         -0.4510     -0.7700      1.0730
     7         N          0.9642     -1.0576      1.3626
     8         C          1.7027     -0.2254      0.7118
     9         O          1.0409      0.7066     -0.0479
    10         H         -2.0617      1.6707      0.7758
    11         H         -0.5458      2.0010      1.6357
    12         H         -0.7706      2.6044     -0.0045
    13         H         -1.5636      0.7957     -1.7262
    14         H         -0.1047     -0.1648     -1.9544
    15         H         -2.7991     -1.0400     -0.8200
    16         H         -1.6847     -1.9538     -1.8375
    17         H         -0.3749     -2.6791      0.0126
    18         H         -1.8813     -2.4243      0.8857
    19         H         -0.9822     -0.5557      2.0230
    20         H          2.7758     -0.1294      0.6690

 General Reference for PM7:
 "Optimization of Parameters for Semiempirical Methods VI: More Modifications to the 
 NDDO Approximations and Re-optimization of Parameters", J. J. P. Stewart, J. Mol. Mod., 1:32, 19 (2013)
 https://link.springer.com/article/10.1007/s00894-012-1667-x

           Empirical Formula: C7 H11 N O  =    20 atoms



      MOLECULAR POINT GROUP   :   C1  


      RHF CALCULATION, NO. OF DOUBLY OCCUPIED LEVELS = 25

  SCF CRITERION =    0.1000E-07

 -------------------------------------------------------------------------------
 PM7 1SCF GRADIENTS DISP RELSCF=0.0001
 Title: ASE calculation



     1SCF WAS SPECIFIED, SO BFGS WAS NOT USED                 
     SCF FIELD WAS ACHIEVED                                   


                              PM7 CALCULATION
                                                       MOPAC v23.2 Linux
                                                       Fri Sep 19 21:33:44 2025




          FINAL HEAT OF FORMATION =        -39.42863 KCAL/MOL =    -164.96937 KJ/MOL

          TOTAL ENERGY            =     -34361.33975 KCAL/MOL = ELECTRONIC ENERGY + CORE-CORE REPULSION
          ENERGY OF ATOMS         =      34323.93363 KCAL/MOL
                              SUM =        -37.40611 KCAL/MOL
          DISPERSION ENERGY       =         -2.02251 KCAL/MOL
                              SUM =        -39.42863 KCAL/MOL = FINAL HEAT OF FORMATION



          TOTAL ENERGY            =      -1490.04872 EV
          ELECTRONIC ENERGY       =      -7707.82737 EV 
          CORE-CORE REPULSION     =       6217.77865 EV
          COSMO AREA              =        158.53 SQUARE ANGSTROMS
          COSMO VOLUME            =        161.97 CUBIC ANGSTROMS

          GRADIENT NORM           =          1.08069          =       0.24165 PER ATOM
          IONIZATION POTENTIAL    =         10.043747 EV
          HOMO LUMO ENERGIES (EV) =        -10.044  0.988
          NO. OF FILLED LEVELS    =         25
          MOLECULAR WEIGHT        =        125.1700         POINT GROUP:  C1  

          MOLECULAR DIMENSIONS (Angstroms)

            Atom       Atom       Distance
            H    20    H    15     5.84169
            H    17    H    12     5.27993
            H    19    H    14     4.07530


          SCF CALCULATIONS        =          1

          WALL-CLOCK TIME         =      0.430 SECONDS
          COMPUTATION TIME        =      0.389 SECONDS

          LARGEST ATOMIC GRADIENTS

          Atom     Label                     Cartesian Gradients           Cartesian Coordinates       |Gradient|
                                           X          Y          Z        X          Y          Z

             2       C                   0.165     -0.331      0.206   -0.38540    0.47413    0.10207      0.424
             8       C                  -0.135      0.137     -0.360    1.70272   -0.22536    0.71176      0.408
            10       H                   0.361      0.078      0.098   -2.06166    1.67066    0.77577      0.382
            15       H                  -0.297     -0.085     -0.079   -2.79908   -1.04001   -0.81996      0.319
             1       C                   0.193     -0.180     -0.123   -0.97501    1.74999    0.65629      0.292
            12       H                  -0.150      0.185      0.168   -0.77064    2.60442   -0.00450      0.292
            11       H                  -0.219     -0.025     -0.080   -0.54579    2.00098    1.63572      0.235
            14       H                   0.198     -0.113     -0.014   -0.10468   -0.16476   -1.95442      0.228
            20       H                  -0.202      0.029      0.081    2.77578   -0.12944    0.66901      0.220
            17       H                   0.107      0.174      0.020   -0.37487   -2.67910    0.01262      0.205



       FINAL  POINT  AND  DERIVATIVES

   PARAMETER     ATOM    TYPE            VALUE        GRADIENT
      1          1  C    CARTESIAN X    -0.975007      0.193442  KCAL/ANGSTROM
      2          1  C    CARTESIAN Y     1.749987     -0.180320  KCAL/ANGSTROM
      3          1  C    CARTESIAN Z     0.656288     -0.123251  KCAL/ANGSTROM
      4          2  C    CARTESIAN X    -0.385398      0.165479  KCAL/ANGSTROM
      5          2  C    CARTESIAN Y     0.474134     -0.331144  KCAL/ANGSTROM
      6          2  C    CARTESIAN Z     0.102068      0.205992  KCAL/ANGSTROM
      7          3  C    CARTESIAN X    -0.938963      0.088547  KCAL/ANGSTROM
      8          3  C    CARTESIAN Y     0.023914     -0.108150  KCAL/ANGSTROM
      9          3  C    CARTESIAN Z    -1.250262      0.043817  KCAL/ANGSTROM
     10          4  C    CARTESIAN X    -1.729573     -0.144861  KCAL/ANGSTROM
     11          4  C    CARTESIAN Y    -1.265983      0.127195  KCAL/ANGSTROM
     12          4  C    CARTESIAN Z    -0.977488      0.012524  KCAL/ANGSTROM
     13          5  C    CARTESIAN X    -1.120313     -0.020951  KCAL/ANGSTROM
     14          5  C    CARTESIAN Y    -1.906401      0.165632  KCAL/ANGSTROM
     15          5  C    CARTESIAN Z     0.281450     -0.031794  KCAL/ANGSTROM
     16          6  C    CARTESIAN X    -0.451016      0.086478  KCAL/ANGSTROM
     17          6  C    CARTESIAN Y    -0.770050      0.182593  KCAL/ANGSTROM
     18          6  C    CARTESIAN Z     1.073032      0.016194  KCAL/ANGSTROM
     19          7  N    CARTESIAN X     0.964235      0.074572  KCAL/ANGSTROM
     20          7  N    CARTESIAN Y    -1.057622     -0.135337  KCAL/ANGSTROM
     21          7  N    CARTESIAN Z     1.362555      0.062094  KCAL/ANGSTROM
     22          8  C    CARTESIAN X     1.702719     -0.134817  KCAL/ANGSTROM
     23          8  C    CARTESIAN Y    -0.225356      0.137191  KCAL/ANGSTROM
     24          8  C    CARTESIAN Z     0.711757     -0.359724  KCAL/ANGSTROM
     25          9  O    CARTESIAN X     1.040898     -0.052391  KCAL/ANGSTROM
     26          9  O    CARTESIAN Y     0.706630      0.077613  KCAL/ANGSTROM
     27          9  O    CARTESIAN Z    -0.047906     -0.019833  KCAL/ANGSTROM
     28         10  H    CARTESIAN X    -2.061659      0.360970  KCAL/ANGSTROM
     29         10  H    CARTESIAN Y     1.670656      0.077513  KCAL/ANGSTROM
     30         10  H    CARTESIAN Z     0.775772      0.097629  KCAL/ANGSTROM
     31         11  H    CARTESIAN X    -0.545794     -0.219460  KCAL/ANGSTROM
     32         11  H    CARTESIAN Y     2.000977     -0.024859  KCAL/ANGSTROM
     33         11  H    CARTESIAN Z     1.635724     -0.079666  KCAL/ANGSTROM
     34         12  H    CARTESIAN X    -0.770642     -0.150117  KCAL/ANGSTROM
     35         12  H    CARTESIAN Y     2.604423      0.185184  KCAL/ANGSTROM
     36         12  H    CARTESIAN Z    -0.004501      0.168118  KCAL/ANGSTROM
     37         13  H    CARTESIAN X    -1.563555     -0.000493  KCAL/ANGSTROM
     38         13  H    CARTESIAN Y     0.795666      0.032738  KCAL/ANGSTROM
     39         13  H    CARTESIAN Z    -1.726179     -0.079361  KCAL/ANGSTROM
     40         14  H    CARTESIAN X    -0.104681      0.197661  KCAL/ANGSTROM
     41         14  H    CARTESIAN Y    -0.164759     -0.113469  KCAL/ANGSTROM
     42         14  H    CARTESIAN Z    -1.954417     -0.013790  KCAL/ANGSTROM
     43         15  H    CARTESIAN X    -2.799083     -0.296607  KCAL/ANGSTROM
     44         15  H    CARTESIAN Y    -1.040009     -0.085387  KCAL/ANGSTROM
     45         15  H    CARTESIAN Z    -0.819959     -0.078933  KCAL/ANGSTROM
     46         16  H    CARTESIAN X    -1.684742      0.081691  KCAL/ANGSTROM
     47         16  H    CARTESIAN Y    -1.953776     -0.063791  KCAL/ANGSTROM
     48         16  H    CARTESIAN Z    -1.837456      0.036973  KCAL/ANGSTROM
     49         17  H    CARTESIAN X    -0.374870      0.106932  KCAL/ANGSTROM
     50         17  H    CARTESIAN Y    -2.679103      0.173995  KCAL/ANGSTROM
     51         17  H    CARTESIAN Z     0.012620      0.020232  KCAL/ANGSTROM
     52         18  H    CARTESIAN X    -1.881262     -0.070224  KCAL/ANGSTROM
     53         18  H    CARTESIAN Y    -2.424345     -0.060742  KCAL/ANGSTROM
     54         18  H    CARTESIAN Z     0.885740      0.000939  KCAL/ANGSTROM
     55         19  H    CARTESIAN X    -0.982220     -0.063753  KCAL/ANGSTROM
     56         19  H    CARTESIAN Y    -0.555709     -0.085891  KCAL/ANGSTROM
     57         19  H    CARTESIAN Z     2.022968      0.041144  KCAL/ANGSTROM
     58         20  H    CARTESIAN X     2.775785     -0.202100  KCAL/ANGSTROM
     59         20  H    CARTESIAN Y    -0.129441      0.029434  KCAL/ANGSTROM
     60         20  H    CARTESIAN Z     0.669006      0.080689  KCAL/ANGSTROM




   ATOM   CHEMICAL          X               Y               Z
  NUMBER   SYMBOL      (ANGSTROMS)     (ANGSTROMS)     (ANGSTROMS)

     1       C         -0.97500693  *   1.74998738  *   0.65628784  *
     2       C         -0.38539847  *   0.47413432  *   0.10206845  *
     3       C         -0.93896297  *   0.02391436  *  -1.25026212  *
     4       C         -1.72957338  *  -1.26598252  *  -0.97748826  *
     5       C         -1.12031337  *  -1.90640135  *   0.28145048  *
     6       C         -0.45101611  *  -0.77004958  *   1.07303151  *
     7       N          0.96423492  *  -1.05762158  *   1.36255473  *
     8       C          1.70271877  *  -0.22535649  *   0.71175709  *
     9       O          1.04089789  *   0.70663009  *  -0.04790588  *
    10       H         -2.06165921  *   1.67065642  *   0.77577208  *
    11       H         -0.54579430  *   2.00097736  *   1.63572418  *
    12       H         -0.77064245  *   2.60442276  *  -0.00450131  *
    13       H         -1.56355512  *   0.79566551  *  -1.72617925  *
    14       H         -0.10468071  *  -0.16475921  *  -1.95441698  *
    15       H         -2.79908327  *  -1.04000913  *  -0.81995931  *
    16       H         -1.68474156  *  -1.95377628  *  -1.83745594  *
    17       H         -0.37487027  *  -2.67910325  *   0.01261978  *
    18       H         -1.88126240  *  -2.42434509  *   0.88573987  *
    19       H         -0.98221990  *  -0.55570900  *   2.02296755  *
    20       H          2.77578462  *  -0.12944131  *   0.66900574  *

                             CARTESIAN COORDINATES

   1    C       -0.975006930     1.749987383     0.656287840
   2    C       -0.385398468     0.474134322     0.102068454
   3    C       -0.938962969     0.023914361    -1.250262118
   4    C       -1.729573378    -1.265982519    -0.977488258
   5    C       -1.120313375    -1.906401354     0.281450478
   6    C       -0.451016115    -0.770049581     1.073031513
   7    N        0.964234918    -1.057621579     1.362554732
   8    C        1.702718770    -0.225356490     0.711757093
   9    O        1.040897894     0.706630089    -0.047905885
  10    H       -2.061659212     1.670656419     0.775772083
  11    H       -0.545794298     2.000977359     1.635724184
  12    H       -0.770642446     2.604422763    -0.004501311
  13    H       -1.563555123     0.795665505    -1.726179253
  14    H       -0.104680713    -0.164759210    -1.954416981
  15    H       -2.799083268    -1.040009131    -0.819959305
  16    H       -1.684741563    -1.953776277    -1.837455938
  17    H       -0.374870268    -2.679103251     0.012619779
  18    H       -1.881262397    -2.424345087     0.885739868
  19    H       -0.982219902    -0.555709003     2.022967547
  20    H        2.775784619    -0.129441307     0.669005735


           Empirical Formula: C7 H11 N O  =    20 atoms



      MOLECULAR POINT GROUP   :   C1  


                  EIGENVALUES  
 -35.82240 -30.23820 -29.21993 -26.51665 -24.87487 -23.21746 -21.21251 -19.99430
 -19.57781 -17.24725 -16.34024 -15.92928 -15.39121 -14.79863 -14.45536 -13.99892
 -13.64191 -13.05626 -12.62975 -12.52711 -12.00787 -11.78954 -11.49115 -10.69811
 -10.04375   0.98796   1.87554   2.83839   3.23341   3.49247   3.84899   3.89250
   4.27595   4.40275   4.65136   5.15038   5.28310   5.38145   5.47987   5.49535
   5.70601   5.80390   5.97759   6.23605   6.38475   6.49354   6.65274


              NET ATOMIC CHARGES AND DIPOLE CONTRIBUTIONS

  ATOM NO.   TYPE          CHARGE      No. of ELECS.   s-Pop       p-Pop       
    1          C          -0.485994        4.4860     1.05772     3.42827
    2          C           0.241406        3.7586     1.10546     2.65314
    3          C          -0.318274        4.3183     1.06892     3.24935
    4          C          -0.263032        4.2630     1.06201     3.20102
    5          C          -0.286111        4.2861     1.06614     3.21997
    6          C          -0.001669        4.0017     1.09477     2.90690
    7          N          -0.475499        5.4755     1.77046     3.70504
    8          C           0.270806        3.7292     1.13606     2.59313
    9          O          -0.418426        6.4184     1.87954     4.53889
   10          H           0.160221        0.8398     0.83978
   11          H           0.164131        0.8359     0.83587
   12          H           0.167637        0.8324     0.83236
   13          H           0.150228        0.8498     0.84977
   14          H           0.164500        0.8355     0.83550
   15          H           0.138377        0.8616     0.86162
   16          H           0.141869        0.8581     0.85813
   17          H           0.162904        0.8371     0.83710
   18          H           0.144451        0.8555     0.85555
   19          H           0.155805        0.8442     0.84420
   20          H           0.186671        0.8133     0.81333
 DIPOLE           X         Y         Z       TOTAL
 POINT-CHG.    -1.788     0.427    -0.718     1.974
 HYBRID         0.037     0.682    -0.528     0.864
 SUM           -1.751     1.110    -1.246     2.419


          ATOMIC ORBITAL ELECTRON POPULATIONS

     Atom    s        px        py        pz   
    1  C   1.05772   1.15757   1.09196   1.17875
    2  C   1.10546   0.74436   0.94880   0.95998
    3  C   1.06892   1.12544   1.06504   1.05887
    4  C   1.06201   1.09749   1.03684   1.06669
    5  C   1.06614   1.12382   1.06226   1.03389
    6  C   1.09477   0.89195   0.96805   1.04691
    7  N   1.77046   1.10403   1.30740   1.29361
    8  C   1.13606   0.98491   0.79866   0.80956
    9  O   1.87954   1.28790   1.57028   1.68071
   10  H   0.83978
   11  H   0.83587
   12  H   0.83236
   13  H   0.84977
   14  H   0.83550
   15  H   0.86162
   16  H   0.85813
   17  H   0.83710
   18  H   0.85555
   19  H   0.84420
   20  H   0.81333

 **********************
 *                    *
 * JOB ENDED NORMALLY *
 *                    *
 **********************



 TOTAL JOB TIME:             0.80 SECONDS

 == MOPAC DONE ==
