 *******************************************************************************
 **                                                                           **
 **                              MOPAC v23.2                                  **
 **                                                                           **
 *******************************************************************************
 **          Digital Object Identifier (DOI): 10.5281/zenodo.6511958          **
 **    Visit the DOI location for information on how to cite this program.    **
 *******************************************************************************

                              PM7 CALCULATION RESULTS

 *******************************************************************************
 *  CALCULATION DONE: (MAX THREADS = 40)             Fri Sep 19 21:32:58 2025  *
 *  PM7        - The PM7 Hamiltonian to be used
 *  EPS=37.5   - USE ANDREAS KLAMT'S COSMO IMPLICIT SOLVATION MODEL
 *  1SCF       - DO 1 SCF AND THEN STOP 
 *  T=         - A TIME OF 172800.0 SECONDS REQUESTED
 *  DUMP=N     - RESTART FILE WRITTEN EVERY 7200.0 SECONDS REQUESTED
 *  RELSCF     - DEFAULT SCF CRITERION MULTIPLIED BY 0.0001
 *              (DEFAULT SCF CRITERION = 0.00010)
 *  GRADIENTS  - ALL GRADIENTS TO BE PRINTED
 *  DISP       - PRINT DISPERSION AND HYDROGEN BOND ENERGIES
 *******************************************************************************
PM7 1SCF GRADIENTS EPS=37.5 DISP RELSCF=0.0001
 Title: ASE calculation

   ATOM   CHEMICAL          X               Y               Z
  NUMBER   SYMBOL      (ANGSTROMS)     (ANGSTROMS)     (ANGSTROMS)

     1       C         -2.00596298  *  -1.10631710  *  -0.06534689  *
     2       C         -0.69598544  *  -0.37589643  *  -0.36912387  *
     3       C         -0.57554976  *   0.88095316  *   0.50456281  *
     4       C          0.82805570  *   1.42480181  *   0.51464205  *
     5       O          1.17125720  *   2.25687751  *   1.31663634  *
     6       C          1.77959166  *   0.89717408  *  -0.52507631  *
     7       C          1.82586016  *  -0.63825257  *  -0.54679554  *
     8       O          2.87333264  *  -1.09672798  *   0.27673509  *
     9       C          0.50548084  *  -1.29544197  *  -0.11107931  *
    10       H         -2.05395022  *  -1.44350267  *   0.97617159  *
    11       H         -2.87333264  *  -0.46021045  *  -0.24119311  *
    12       H         -2.12689714  *  -1.99150684  *  -0.70015246  *
    13       H         -0.69687302  *  -0.07500575  *  -1.44564711  *
    14       H         -1.27394309  *   1.66914313  *   0.15649393  *
    15       H         -0.89413846  *   0.66959537  *   1.54727243  *
    16       H          1.48837373  *   1.28949086  *  -1.51969303  *
    17       H          2.80498632  *   1.29213444  *  -0.34604260  *
    18       H          2.15354637  *  -1.00759494  *  -1.54727243  *
    19       H          2.79063449  *  -0.76116115  *   1.19094724  *
    20       H          0.37694683  *  -2.25687751  *  -0.64173161  *
    21       H          0.55894171  *  -1.56832835  *   0.96072851  *



          CARTESIAN COORDINATES 

    NO.       ATOM           X           Y           Z

     1         C         -2.0060     -1.1063     -0.0653
     2         C         -0.6960     -0.3759     -0.3691
     3         C         -0.5755      0.8810      0.5046
     4         C          0.8281      1.4248      0.5146
     5         O          1.1713      2.2569      1.3166
     6         C          1.7796      0.8972     -0.5251
     7         C          1.8259     -0.6383     -0.5468
     8         O          2.8733     -1.0967      0.2767
     9         C          0.5055     -1.2954     -0.1111
    10         H         -2.0540     -1.4435      0.9762
    11         H         -2.8733     -0.4602     -0.2412
    12         H         -2.1269     -1.9915     -0.7002
    13         H         -0.6969     -0.0750     -1.4456
    14         H         -1.2739      1.6691      0.1565
    15         H         -0.8941      0.6696      1.5473
    16         H          1.4884      1.2895     -1.5197
    17         H          2.8050      1.2921     -0.3460
    18         H          2.1535     -1.0076     -1.5473
    19         H          2.7906     -0.7612      1.1909
    20         H          0.3769     -2.2569     -0.6417
    21         H          0.5589     -1.5683      0.9607

 General Reference for PM7:
 "Optimization of Parameters for Semiempirical Methods VI: More Modifications to the 
 NDDO Approximations and Re-optimization of Parameters", J. J. P. Stewart, J. Mol. Mod., 1:32, 19 (2013)
 https://link.springer.com/article/10.1007/s00894-012-1667-x

           Empirical Formula: C7 H12 O2  =    21 atoms



      MOLECULAR POINT GROUP   :   C1  


      RHF CALCULATION, NO. OF DOUBLY OCCUPIED LEVELS = 26

  SCF CRITERION =    0.1000E-07

 -------------------------------------------------------------------------------
 PM7 1SCF GRADIENTS EPS=37.5 DISP RELSCF=0.0001
 Title: ASE calculation



     1SCF WAS SPECIFIED, SO BFGS WAS NOT USED                 
     SCF FIELD WAS ACHIEVED                                   


                              PM7 CALCULATION
                                                       MOPAC v23.2 Linux
                                                       Fri Sep 19 21:32:59 2025




          FINAL HEAT OF FORMATION =       -118.75317 KCAL/MOL =    -496.86326 KJ/MOL

          TOTAL ENERGY            =     -37213.93661 KCAL/MOL = ELECTRONIC ENERGY + CORE-CORE REPULSION + SOLVATION ENERGY
          ENERGY OF ATOMS         =      37097.27293 KCAL/MOL
                              SUM =       -116.66367 KCAL/MOL
          DISPERSION ENERGY       =         -2.08949 KCAL/MOL
                              SUM =       -118.75317 KCAL/MOL = FINAL HEAT OF FORMATION

          VAN DER WAALS AREA      =        164.77 SQUARE ANGSTROMS


          TOTAL ENERGY            =      -1613.74903 EV
          ELECTRONIC ENERGY       =      -2453.20418 EV 
          CORE-CORE REPULSION     =        839.45515 EV

          DIELECTRIC ENERGY       =         -0.56193 EV
          COSMO AREA              =        164.77 SQUARE ANGSTROMS
          COSMO VOLUME            =        167.88 CUBIC ANGSTROMS

          GRADIENT NORM           =         30.03498          =       6.55417 PER ATOM
          IONIZATION POTENTIAL    =         10.532037 EV
          HOMO LUMO ENERGIES (EV) =        -10.532  0.509
          NO. OF FILLED LEVELS    =         26
          MOLECULAR WEIGHT        =        128.1706         POINT GROUP:  C1  

          MOLECULAR DIMENSIONS (Angstroms)

            Atom       Atom       Distance
            H    17    H    11     5.94348
            O     5    H    20     4.54054
            H    16    H    19     3.47439


          SCF CALCULATIONS        =          2

          WALL-CLOCK TIME         =      0.734 SECONDS
          COMPUTATION TIME        =      0.986 SECONDS

          LARGEST ATOMIC GRADIENTS

          Atom     Label                     Cartesian Gradients           Cartesian Coordinates       |Gradient|
                                           X          Y          Z        X          Y          Z

             4       C                   7.968     14.711     14.694    0.82806    1.42480    0.51464     22.267
             5       O                  -4.156    -10.489     -9.359    1.17126    2.25688    1.31664     14.659
             6       C                  -1.658     -0.263     -8.095    1.77959    0.89717   -0.52508      8.267
             3       C                  -5.918     -1.715     -1.825   -0.57555    0.88095    0.50456      6.426
             7       C                   4.456     -0.570      4.117    1.82586   -0.63825   -0.54680      6.093
            19       H                  -0.286      0.173     -3.739    2.79063   -0.76116    1.19095      3.754
             9       C                  -2.465     -0.857     -0.307    0.50548   -1.29544   -0.11108      2.628
            16       H                   0.711     -0.803      2.288    1.48837    1.28949   -1.51969      2.526
            14       H                   1.295     -0.935      0.577   -1.27394    1.66914    0.15649      1.699
            17       H                  -0.500     -0.395      1.476    2.80499    1.29213   -0.34604      1.608



       FINAL  POINT  AND  DERIVATIVES

   PARAMETER     ATOM    TYPE            VALUE        GRADIENT
      1          1  C    CARTESIAN X    -2.005963     -0.946619  KCAL/ANGSTROM
      2          1  C    CARTESIAN Y    -1.106317     -0.333394  KCAL/ANGSTROM
      3          1  C    CARTESIAN Z    -0.065347      0.021862  KCAL/ANGSTROM
      4          2  C    CARTESIAN X    -0.695985     -0.026945  KCAL/ANGSTROM
      5          2  C    CARTESIAN Y    -0.375896      0.467094  KCAL/ANGSTROM
      6          2  C    CARTESIAN Z    -0.369124     -0.036909  KCAL/ANGSTROM
      7          3  C    CARTESIAN X    -0.575550     -5.917925  KCAL/ANGSTROM
      8          3  C    CARTESIAN Y     0.880953     -1.715108  KCAL/ANGSTROM
      9          3  C    CARTESIAN Z     0.504563     -1.824845  KCAL/ANGSTROM
     10          4  C    CARTESIAN X     0.828056      7.968001  KCAL/ANGSTROM
     11          4  C    CARTESIAN Y     1.424802     14.711360  KCAL/ANGSTROM
     12          4  C    CARTESIAN Z     0.514642     14.694189  KCAL/ANGSTROM
     13          5  O    CARTESIAN X     1.171257     -4.155656  KCAL/ANGSTROM
     14          5  O    CARTESIAN Y     2.256878    -10.489200  KCAL/ANGSTROM
     15          5  O    CARTESIAN Z     1.316636     -9.359239  KCAL/ANGSTROM
     16          6  C    CARTESIAN X     1.779592     -1.658415  KCAL/ANGSTROM
     17          6  C    CARTESIAN Y     0.897174     -0.263120  KCAL/ANGSTROM
     18          6  C    CARTESIAN Z    -0.525076     -8.094587  KCAL/ANGSTROM
     19          7  C    CARTESIAN X     1.825860      4.455772  KCAL/ANGSTROM
     20          7  C    CARTESIAN Y    -0.638253     -0.569919  KCAL/ANGSTROM
     21          7  C    CARTESIAN Z    -0.546796      4.116920  KCAL/ANGSTROM
     22          8  O    CARTESIAN X     2.873333     -1.450693  KCAL/ANGSTROM
     23          8  O    CARTESIAN Y    -1.096728      0.285245  KCAL/ANGSTROM
     24          8  O    CARTESIAN Z     0.276735     -0.292279  KCAL/ANGSTROM
     25          9  C    CARTESIAN X     0.505481     -2.465330  KCAL/ANGSTROM
     26          9  C    CARTESIAN Y    -1.295442     -0.856513  KCAL/ANGSTROM
     27          9  C    CARTESIAN Z    -0.111079     -0.307317  KCAL/ANGSTROM
     28         10  H    CARTESIAN X    -2.053950      0.004052  KCAL/ANGSTROM
     29         10  H    CARTESIAN Y    -1.443503      0.170477  KCAL/ANGSTROM
     30         10  H    CARTESIAN Z     0.976172     -0.411107  KCAL/ANGSTROM
     31         11  H    CARTESIAN X    -2.873333      0.471449  KCAL/ANGSTROM
     32         11  H    CARTESIAN Y    -0.460210     -0.347541  KCAL/ANGSTROM
     33         11  H    CARTESIAN Z    -0.241193     -0.015043  KCAL/ANGSTROM
     34         12  H    CARTESIAN X    -2.126897     -0.017636  KCAL/ANGSTROM
     35         12  H    CARTESIAN Y    -1.991507      0.253388  KCAL/ANGSTROM
     36         12  H    CARTESIAN Z    -0.700152      0.180154  KCAL/ANGSTROM
     37         13  H    CARTESIAN X    -0.696873     -0.085649  KCAL/ANGSTROM
     38         13  H    CARTESIAN Y    -0.075006     -0.337155  KCAL/ANGSTROM
     39         13  H    CARTESIAN Z    -1.445647      0.831414  KCAL/ANGSTROM
     40         14  H    CARTESIAN X    -1.273943      1.295454  KCAL/ANGSTROM
     41         14  H    CARTESIAN Y     1.669143     -0.934509  KCAL/ANGSTROM
     42         14  H    CARTESIAN Z     0.156494      0.577453  KCAL/ANGSTROM
     43         15  H    CARTESIAN X    -0.894138      1.008712  KCAL/ANGSTROM
     44         15  H    CARTESIAN Y     0.669595      0.671580  KCAL/ANGSTROM
     45         15  H    CARTESIAN Z     1.547272     -0.925325  KCAL/ANGSTROM
     46         16  H    CARTESIAN X     1.488374      0.710924  KCAL/ANGSTROM
     47         16  H    CARTESIAN Y     1.289491     -0.802533  KCAL/ANGSTROM
     48         16  H    CARTESIAN Z    -1.519693      2.287621  KCAL/ANGSTROM
     49         17  H    CARTESIAN X     2.804986     -0.499652  KCAL/ANGSTROM
     50         17  H    CARTESIAN Y     1.292134     -0.395141  KCAL/ANGSTROM
     51         17  H    CARTESIAN Z    -0.346043      1.476407  KCAL/ANGSTROM
     52         18  H    CARTESIAN X     2.153546      0.381916  KCAL/ANGSTROM
     53         18  H    CARTESIAN Y    -1.007595     -0.375522  KCAL/ANGSTROM
     54         18  H    CARTESIAN Z    -1.547272      1.475200  KCAL/ANGSTROM
     55         19  H    CARTESIAN X     2.790634     -0.286303  KCAL/ANGSTROM
     56         19  H    CARTESIAN Y    -0.761161      0.172768  KCAL/ANGSTROM
     57         19  H    CARTESIAN Z     1.190947     -3.739273  KCAL/ANGSTROM
     58         20  H    CARTESIAN X     0.376947      0.649344  KCAL/ANGSTROM
     59         20  H    CARTESIAN Y    -2.256878      0.562754  KCAL/ANGSTROM
     60         20  H    CARTESIAN Z    -0.641732      0.279479  KCAL/ANGSTROM
     61         21  H    CARTESIAN X     0.558942      0.565200  KCAL/ANGSTROM
     62         21  H    CARTESIAN Y    -1.568328      0.124990  KCAL/ANGSTROM
     63         21  H    CARTESIAN Z     0.960729     -0.934780  KCAL/ANGSTROM




   ATOM   CHEMICAL          X               Y               Z
  NUMBER   SYMBOL      (ANGSTROMS)     (ANGSTROMS)     (ANGSTROMS)

     1       C         -2.00596298  *  -1.10631710  *  -0.06534689  *
     2       C         -0.69598544  *  -0.37589643  *  -0.36912387  *
     3       C         -0.57554976  *   0.88095316  *   0.50456281  *
     4       C          0.82805570  *   1.42480181  *   0.51464205  *
     5       O          1.17125720  *   2.25687751  *   1.31663634  *
     6       C          1.77959166  *   0.89717408  *  -0.52507631  *
     7       C          1.82586016  *  -0.63825257  *  -0.54679554  *
     8       O          2.87333264  *  -1.09672798  *   0.27673509  *
     9       C          0.50548084  *  -1.29544197  *  -0.11107931  *
    10       H         -2.05395022  *  -1.44350267  *   0.97617159  *
    11       H         -2.87333264  *  -0.46021045  *  -0.24119311  *
    12       H         -2.12689714  *  -1.99150684  *  -0.70015246  *
    13       H         -0.69687302  *  -0.07500575  *  -1.44564711  *
    14       H         -1.27394309  *   1.66914313  *   0.15649393  *
    15       H         -0.89413846  *   0.66959537  *   1.54727243  *
    16       H          1.48837373  *   1.28949086  *  -1.51969303  *
    17       H          2.80498632  *   1.29213444  *  -0.34604260  *
    18       H          2.15354637  *  -1.00759494  *  -1.54727243  *
    19       H          2.79063449  *  -0.76116115  *   1.19094724  *
    20       H          0.37694683  *  -2.25687751  *  -0.64173161  *
    21       H          0.55894171  *  -1.56832835  *   0.96072851  *

                             CARTESIAN COORDINATES

   1    C       -2.005962983    -1.106317103    -0.065346893
   2    C       -0.695985443    -0.375896434    -0.369123871
   3    C       -0.575549756     0.880953155     0.504562810
   4    C        0.828055701     1.424801815     0.514642054
   5    O        1.171257195     2.256877512     1.316636340
   6    C        1.779591661     0.897174084    -0.525076306
   7    C        1.825860164    -0.638252567    -0.546795542
   8    O        2.873332639    -1.096727983     0.276735090
   9    C        0.505480843    -1.295441974    -0.111079312
  10    H       -2.053950217    -1.443502675     0.976171586
  11    H       -2.873332639    -0.460210452    -0.241193111
  12    H       -2.126897137    -1.991506842    -0.700152462
  13    H       -0.696873023    -0.075005747    -1.445647105
  14    H       -1.273943085     1.669143135     0.156493925
  15    H       -0.894138457     0.669595375     1.547272432
  16    H        1.488373734     1.289490862    -1.519693033
  17    H        2.804986316     1.292134442    -0.346042602
  18    H        2.153546369    -1.007594936    -1.547272432
  19    H        2.790634494    -0.761161154     1.190947244
  20    H        0.376946827    -2.256877512    -0.641731605
  21    H        0.558941713    -1.568328354     0.960728508


           Empirical Formula: C7 H12 O2  =    21 atoms



      MOLECULAR POINT GROUP   :   C1  


                  EIGENVALUES  
 -31.69633 -30.51786 -29.11954 -26.67954 -25.33505 -23.83048 -21.46423 -20.24620
 -18.33612 -17.33062 -17.18274 -16.27026 -15.71173 -15.20147 -14.60350 -14.16013
 -13.66550 -13.40603 -13.20142 -12.97919 -12.75137 -12.45493 -11.63083 -11.51293
 -11.10603 -10.53204   0.50949   2.60261   2.90773   3.40611   3.48454   3.72053
   3.93848   4.21871   4.44329   4.85224   5.08746   5.29492   5.38047   5.66338
   5.77198   5.81451   5.99639   6.06784   6.14880   6.28243   6.50617   6.99911


              NET ATOMIC CHARGES AND DIPOLE CONTRIBUTIONS

  ATOM NO.   TYPE          CHARGE      No. of ELECS.   s-Pop       p-Pop       
    1          C          -0.464940        4.4649     1.05623     3.40871
    2          C          -0.053475        4.0535     1.05593     2.99755
    3          C          -0.415344        4.4153     1.07605     3.33930
    4          C           0.570833        3.4292     1.12646     2.30271
    5          O          -0.598745        6.5987     1.87023     4.72852
    6          C          -0.466099        4.4661     1.08237     3.38373
    7          C           0.200466        3.7995     1.08642     2.71311
    8          O          -0.636430        6.6364     1.84131     4.79512
    9          C          -0.366643        4.3666     1.07348     3.29316
   10          H           0.154079        0.8459     0.84592
   11          H           0.152999        0.8470     0.84700
   12          H           0.151382        0.8486     0.84862
   13          H           0.144880        0.8551     0.85512
   14          H           0.192333        0.8077     0.80767
   15          H           0.191472        0.8085     0.80853
   16          H           0.203774        0.7962     0.79623
   17          H           0.197486        0.8025     0.80251
   18          H           0.152218        0.8478     0.84778
   19          H           0.359084        0.6409     0.64092
   20          H           0.163215        0.8368     0.83679
   21          H           0.167455        0.8325     0.83255
 DIPOLE           X         Y         Z       TOTAL
 POINT-CHG.    -3.603    -2.105    -3.168     5.239
 HYBRID         0.169     0.355     0.767     0.862
 SUM           -3.434    -1.750    -2.401     4.541


          ATOMIC ORBITAL ELECTRON POPULATIONS

     Atom    s        px        py        pz   
    1  C   1.05623   1.07587   1.15085   1.18199
    2  C   1.05593   0.96303   0.95417   1.08035
    3  C   1.07605   1.06740   1.10215   1.16975
    4  C   1.12646   0.87869   0.69053   0.73349
    5  O   1.87023   1.83693   1.41079   1.48080
    6  C   1.08237   1.16035   1.07844   1.14494
    7  C   1.08642   0.84883   0.90273   0.96155
    8  O   1.84131   1.58592   1.80624   1.40296
    9  C   1.07348   1.00926   1.10195   1.18195
   10  H   0.84592
   11  H   0.84700
   12  H   0.84862
   13  H   0.85512
   14  H   0.80767
   15  H   0.80853
   16  H   0.79623
   17  H   0.80251
   18  H   0.84778
   19  H   0.64092
   20  H   0.83679
   21  H   0.83255

 **********************
 *                    *
 * JOB ENDED NORMALLY *
 *                    *
 **********************



 TOTAL JOB TIME:             1.09 SECONDS

 == MOPAC DONE ==
