 *******************************************************************************
 **                                                                           **
 **                              MOPAC v23.2                                  **
 **                                                                           **
 *******************************************************************************
 **          Digital Object Identifier (DOI): 10.5281/zenodo.6511958          **
 **    Visit the DOI location for information on how to cite this program.    **
 *******************************************************************************

                              PM7 CALCULATION RESULTS

 *******************************************************************************
 *  CALCULATION DONE: (MAX THREADS = 40)             Fri Sep 19 21:35:08 2025  *
 *  PM7        - The PM7 Hamiltonian to be used
 *
 *
 *
 *                 CHARGE ON SYSTEM = +1
 *
 *
 *
 *  1SCF       - DO 1 SCF AND THEN STOP 
 *  T=         - A TIME OF 172800.0 SECONDS REQUESTED
 *  DUMP=N     - RESTART FILE WRITTEN EVERY 7200.0 SECONDS REQUESTED
 *  RELSCF     - DEFAULT SCF CRITERION MULTIPLIED BY 0.0001
 *              (DEFAULT SCF CRITERION = 0.00010)
 *  GRADIENTS  - ALL GRADIENTS TO BE PRINTED
 *  DISP       - PRINT DISPERSION AND HYDROGEN BOND ENERGIES
 *******************************************************************************
PM7 1SCF GRADIENTS DISP RELSCF=0.0001 CHARGE=1
 Title: ASE calculation

   ATOM   CHEMICAL          X               Y               Z
  NUMBER   SYMBOL      (ANGSTROMS)     (ANGSTROMS)     (ANGSTROMS)

     1       N          2.94263194  *  -0.92262197  *  -0.00175553  *
     2       C          1.74182452  *  -0.72139974  *   0.01187420  *
     3       N          0.67862259  *  -0.59461097  *  -1.12213823  *
     4       C         -0.41106270  *  -0.35286174  *  -0.22378100  *
     5       C         -1.72474871  *  -1.07499647  *  -0.42274319  *
     6       O         -2.40187597  *  -0.82846072  *   0.79130836  *
     7       C         -0.47289600  *   1.14915052  *   0.29191485  *
     8       O          0.48049988  *   0.87530594  *   1.35957014  *
     9       C          0.59526319  *  -0.49620365  *   1.03355927  *
    10       H          3.67745308  *  -1.05715725  *  -0.65790953  *
    11       H          0.66246887  *  -0.73248241  *  -2.11109956  *
    12       H         -2.31276813  *  -0.64843478  *  -1.26497548  *
    13       H         -1.59020004  *  -2.16605198  *  -0.57391538  *
    14       H         -3.21826063  *  -1.38415833  *   0.85367048  *
    15       H         -1.45373965  *   1.39631947  *   0.74148635  *
    16       H         -0.09774184  *   1.92601085  *  -0.37962752  *
    17       H          0.49399131  *  -1.17012832  *   1.88473971  *



          CARTESIAN COORDINATES 

    NO.       ATOM           X           Y           Z

     1         N          2.9426     -0.9226     -0.0018
     2         C          1.7418     -0.7214      0.0119
     3         N          0.6786     -0.5946     -1.1221
     4         C         -0.4111     -0.3529     -0.2238
     5         C         -1.7247     -1.0750     -0.4227
     6         O         -2.4019     -0.8285      0.7913
     7         C         -0.4729      1.1492      0.2919
     8         O          0.4805      0.8753      1.3596
     9         C          0.5953     -0.4962      1.0336
    10         H          3.6775     -1.0572     -0.6579
    11         H          0.6625     -0.7325     -2.1111
    12         H         -2.3128     -0.6484     -1.2650
    13         H         -1.5902     -2.1661     -0.5739
    14         H         -3.2183     -1.3842      0.8537
    15         H         -1.4537      1.3963      0.7415
    16         H         -0.0977      1.9260     -0.3796
    17         H          0.4940     -1.1701      1.8847

 General Reference for PM7:
 "Optimization of Parameters for Semiempirical Methods VI: More Modifications to the 
 NDDO Approximations and Re-optimization of Parameters", J. J. P. Stewart, J. Mol. Mod., 1:32, 19 (2013)
 https://link.springer.com/article/10.1007/s00894-012-1667-x

           Empirical Formula: C5 H8 N2 O2  =    17 atoms



      MOLECULAR POINT GROUP   :   C1  


          UHF CALCULATION, NO. OF ALPHA ELECTRONS =   25
                           NO. OF BETA  ELECTRONS =   24
  SCF CRITERION =    0.1000E-07

 -------------------------------------------------------------------------------
 PM7 1SCF GRADIENTS DISP RELSCF=0.0001 CHARGE=1
 Title: ASE calculation



     1SCF WAS SPECIFIED, SO BFGS WAS NOT USED                 
     SCF FIELD WAS ACHIEVED                                   


                              PM7 CALCULATION
                                                       MOPAC v23.2 Linux
                                                       Fri Sep 19 21:35:09 2025




          FINAL HEAT OF FORMATION =        194.01677 KCAL/MOL =     811.76617 KJ/MOL

          TOTAL ENERGY            =     -38599.76899 KCAL/MOL = ELECTRONIC ENERGY + CORE-CORE REPULSION
          ENERGY OF ATOMS         =      38795.45340 KCAL/MOL
                              SUM =        195.68440 KCAL/MOL
          DISPERSION ENERGY       =         -1.66763 KCAL/MOL
                              SUM =        194.01677 KCAL/MOL = FINAL HEAT OF FORMATION



          TOTAL ENERGY            =      -1673.84441 EV
          ELECTRONIC ENERGY       =      -7711.25255 EV 
          CORE-CORE REPULSION     =       6037.40815 EV
          COSMO AREA              =        153.32 SQUARE ANGSTROMS
          COSMO VOLUME            =        147.77 CUBIC ANGSTROMS

          GRADIENT NORM           =          1.19054          =       0.28875 PER ATOM
          IONIZATION POTENTIAL    =         14.983747 EV
          ALPHA SOMO LUMO (EV)    =        -14.992 -4.777
          BETA  SOMO LUMO (EV)    =        -14.984 -7.566
          NO. OF ALPHA ELECTRONS  =         25
          NO. OF BETA  ELECTRONS  =         24
          MOLECULAR WEIGHT        =        128.1304         POINT GROUP:  C1  

          MOLECULAR DIMENSIONS (Angstroms)

            Atom       Atom       Distance
            H    14    H    10     7.06701
            H    13    H    16     4.05427
            H    11    H    17     3.88544


          SCF CALCULATIONS        =          1

          WALL-CLOCK TIME         =      0.805 SECONDS
          COMPUTATION TIME        =      0.688 SECONDS

          LARGEST ATOMIC GRADIENTS

          Atom     Label                     Cartesian Gradients           Cartesian Coordinates       |Gradient|
                                           X          Y          Z        X          Y          Z

             6       O                   0.092      0.069      0.379   -2.40188   -0.82846    0.79131      0.396
             3       N                   0.338     -0.185      0.022    0.67862   -0.59461   -1.12214      0.386
            13       H                   0.087     -0.348     -0.122   -1.59020   -2.16605   -0.57392      0.379
             8       O                   0.331      0.086      0.138    0.48050    0.87531    1.35957      0.369
             4       C                   0.125      0.251     -0.219   -0.41106   -0.35286   -0.22378      0.355
            12       H                  -0.199      0.101     -0.274   -2.31277   -0.64843   -1.26498      0.353
            10       H                  -0.084      0.243      0.230    3.67745   -1.05716   -0.65791      0.345
             2       C                  -0.269     -0.049     -0.143    1.74182   -0.72140    0.01187      0.309
            11       H                  -0.246      0.042     -0.060    0.66247   -0.73248   -2.11110      0.256
            14       H                   0.069     -0.245     -0.015   -3.21826   -1.38416    0.85367      0.255



       FINAL  POINT  AND  DERIVATIVES

   PARAMETER     ATOM    TYPE            VALUE        GRADIENT
      1          1  N    CARTESIAN X     2.942632     -0.078290  KCAL/ANGSTROM
      2          1  N    CARTESIAN Y    -0.922622     -0.149426  KCAL/ANGSTROM
      3          1  N    CARTESIAN Z    -0.001756      0.052257  KCAL/ANGSTROM
      4          2  C    CARTESIAN X     1.741825     -0.269226  KCAL/ANGSTROM
      5          2  C    CARTESIAN Y    -0.721400     -0.049263  KCAL/ANGSTROM
      6          2  C    CARTESIAN Z     0.011874     -0.142792  KCAL/ANGSTROM
      7          3  N    CARTESIAN X     0.678623      0.337522  KCAL/ANGSTROM
      8          3  N    CARTESIAN Y    -0.594611     -0.185461  KCAL/ANGSTROM
      9          3  N    CARTESIAN Z    -1.122138      0.022185  KCAL/ANGSTROM
     10          4  C    CARTESIAN X    -0.411063      0.124774  KCAL/ANGSTROM
     11          4  C    CARTESIAN Y    -0.352862      0.250924  KCAL/ANGSTROM
     12          4  C    CARTESIAN Z    -0.223781     -0.218539  KCAL/ANGSTROM
     13          5  C    CARTESIAN X    -1.724749     -0.021430  KCAL/ANGSTROM
     14          5  C    CARTESIAN Y    -1.074996      0.088383  KCAL/ANGSTROM
     15          5  C    CARTESIAN Z    -0.422743      0.073972  KCAL/ANGSTROM
     16          6  O    CARTESIAN X    -2.401876      0.091749  KCAL/ANGSTROM
     17          6  O    CARTESIAN Y    -0.828461      0.068764  KCAL/ANGSTROM
     18          6  O    CARTESIAN Z     0.791308      0.378687  KCAL/ANGSTROM
     19          7  C    CARTESIAN X    -0.472896      0.175843  KCAL/ANGSTROM
     20          7  C    CARTESIAN Y     1.149151      0.045873  KCAL/ANGSTROM
     21          7  C    CARTESIAN Z     0.291915      0.074852  KCAL/ANGSTROM
     22          8  O    CARTESIAN X     0.480500      0.331350  KCAL/ANGSTROM
     23          8  O    CARTESIAN Y     0.875306      0.086458  KCAL/ANGSTROM
     24          8  O    CARTESIAN Z     1.359570      0.137634  KCAL/ANGSTROM
     25          9  C    CARTESIAN X     0.595263     -0.148199  KCAL/ANGSTROM
     26          9  C    CARTESIAN Y    -0.496204      0.037038  KCAL/ANGSTROM
     27          9  C    CARTESIAN Z     1.033559      0.032956  KCAL/ANGSTROM
     28         10  H    CARTESIAN X     3.677453     -0.084114  KCAL/ANGSTROM
     29         10  H    CARTESIAN Y    -1.057157      0.243217  KCAL/ANGSTROM
     30         10  H    CARTESIAN Z    -0.657910      0.229701  KCAL/ANGSTROM
     31         11  H    CARTESIAN X     0.662469     -0.245596  KCAL/ANGSTROM
     32         11  H    CARTESIAN Y    -0.732482      0.042192  KCAL/ANGSTROM
     33         11  H    CARTESIAN Z    -2.111100     -0.060035  KCAL/ANGSTROM
     34         12  H    CARTESIAN X    -2.312768     -0.198960  KCAL/ANGSTROM
     35         12  H    CARTESIAN Y    -0.648435      0.101225  KCAL/ANGSTROM
     36         12  H    CARTESIAN Z    -1.264975     -0.273638  KCAL/ANGSTROM
     37         13  H    CARTESIAN X    -1.590200      0.087258  KCAL/ANGSTROM
     38         13  H    CARTESIAN Y    -2.166052     -0.347928  KCAL/ANGSTROM
     39         13  H    CARTESIAN Z    -0.573915     -0.121671  KCAL/ANGSTROM
     40         14  H    CARTESIAN X    -3.218261      0.068927  KCAL/ANGSTROM
     41         14  H    CARTESIAN Y    -1.384158     -0.245461  KCAL/ANGSTROM
     42         14  H    CARTESIAN Z     0.853670     -0.014626  KCAL/ANGSTROM
     43         15  H    CARTESIAN X    -1.453740      0.036220  KCAL/ANGSTROM
     44         15  H    CARTESIAN Y     1.396319      0.162392  KCAL/ANGSTROM
     45         15  H    CARTESIAN Z     0.741486      0.104800  KCAL/ANGSTROM
     46         16  H    CARTESIAN X    -0.097742     -0.062541  KCAL/ANGSTROM
     47         16  H    CARTESIAN Y     1.926011     -0.067221  KCAL/ANGSTROM
     48         16  H    CARTESIAN Z    -0.379628     -0.225209  KCAL/ANGSTROM
     49         17  H    CARTESIAN X     0.493991     -0.145289  KCAL/ANGSTROM
     50         17  H    CARTESIAN Y    -1.170128     -0.081710  KCAL/ANGSTROM
     51         17  H    CARTESIAN Z     1.884740     -0.050536  KCAL/ANGSTROM




   ATOM   CHEMICAL          X               Y               Z
  NUMBER   SYMBOL      (ANGSTROMS)     (ANGSTROMS)     (ANGSTROMS)

     1       N          2.94263194  *  -0.92262197  *  -0.00175553  *
     2       C          1.74182452  *  -0.72139974  *   0.01187420  *
     3       N          0.67862259  *  -0.59461097  *  -1.12213823  *
     4       C         -0.41106270  *  -0.35286174  *  -0.22378100  *
     5       C         -1.72474871  *  -1.07499647  *  -0.42274319  *
     6       O         -2.40187597  *  -0.82846072  *   0.79130836  *
     7       C         -0.47289600  *   1.14915052  *   0.29191485  *
     8       O          0.48049988  *   0.87530594  *   1.35957014  *
     9       C          0.59526319  *  -0.49620365  *   1.03355927  *
    10       H          3.67745308  *  -1.05715725  *  -0.65790953  *
    11       H          0.66246887  *  -0.73248241  *  -2.11109956  *
    12       H         -2.31276813  *  -0.64843478  *  -1.26497548  *
    13       H         -1.59020004  *  -2.16605198  *  -0.57391538  *
    14       H         -3.21826063  *  -1.38415833  *   0.85367048  *
    15       H         -1.45373965  *   1.39631947  *   0.74148635  *
    16       H         -0.09774184  *   1.92601085  *  -0.37962752  *
    17       H          0.49399131  *  -1.17012832  *   1.88473971  *

                             CARTESIAN COORDINATES

   1    N        2.942631939    -0.922621970    -0.001755533
   2    C        1.741824523    -0.721399743     0.011874199
   3    N        0.678622588    -0.594610968    -1.122138226
   4    C       -0.411062698    -0.352861738    -0.223780999
   5    C       -1.724748715    -1.074996467    -0.422743195
   6    O       -2.401875971    -0.828460716     0.791308357
   7    C       -0.472896003     1.149150517     0.291914846
   8    O        0.480499879     0.875305939     1.359570143
   9    C        0.595263194    -0.496203648     1.033559266
  10    H        3.677453081    -1.057157248    -0.657909534
  11    H        0.662468866    -0.732482411    -2.111099555
  12    H       -2.312768128    -0.648434781    -1.264975475
  13    H       -1.590200037    -2.166051977    -0.573915379
  14    H       -3.218260628    -1.384158334     0.853670484
  15    H       -1.453739646     1.396319471     0.741486348
  16    H       -0.097741837     1.926010848    -0.379627521
  17    H        0.493991311    -1.170128321     1.884739706


           Empirical Formula: C5 H8 N2 O2  =    17 atoms



      MOLECULAR POINT GROUP   :   C1  


          ALPHA EIGENVALUES  
 -43.21106 -41.24509 -35.99077 -33.88054 -31.09173 -30.34390 -28.39501 -26.20053
 -25.10085 -23.83525 -22.75915 -22.27244 -21.19855 -20.72631 -19.87513 -19.77016
 -19.17818 -18.97252 -18.25387 -17.58208 -16.63448 -16.35011 -16.21216 -15.17040
 -14.99236  -4.77670  -4.59416  -3.27642  -3.14435  -2.95232  -2.54870  -1.79953
  -1.54352  -1.31943  -1.24148  -0.99269   0.03138   0.68561   0.72938   0.88376
   0.96945   1.26463   1.78165   1.84713


           BETA EIGENVALUES 
 -41.96600 -40.63642 -35.70595 -33.87821 -30.81649 -30.26998 -28.31788 -26.11462
 -24.83728 -23.53907 -22.70759 -21.78208 -21.15363 -20.65456 -19.78992 -19.51686
 -18.88296 -18.26232 -17.84478 -16.99663 -16.59933 -15.96053 -15.11436 -14.98375
  -7.56603  -4.42739  -4.17842  -3.14036  -3.00287  -2.76600  -2.32066  -1.71638
  -1.47315  -1.27603  -1.19673  -0.96846   0.43621   0.69523   0.73026   0.90481
   0.96935   1.27556   1.78874   1.87234


              NET ATOMIC CHARGES AND DIPOLE CONTRIBUTIONS

  ATOM NO.   TYPE          CHARGE      No. of ELECS.   s-Pop       p-Pop       
    1          N          -0.336810        5.3368     1.62165     3.71516
    2          C           0.319774        3.6802     1.15185     2.52838
    3          N          -0.221020        5.2210     1.62942     3.59160
    4          C          -0.026632        4.0266     1.11687     2.90976
    5          C          -0.014513        4.0145     1.08419     2.93033
    6          O          -0.518207        6.5182     1.85451     4.66370
    7          C          -0.009859        4.0099     1.12507     2.88479
    8          O          -0.277075        6.2771     1.90627     4.37081
    9          C           0.137602        3.8624     1.13914     2.72325
   10          H           0.361957        0.6380     0.63804
   11          H           0.324370        0.6756     0.67563
   12          H           0.160627        0.8394     0.83937
   13          H           0.151099        0.8489     0.84890
   14          H           0.352948        0.6471     0.64705
   15          H           0.209905        0.7901     0.79010
   16          H           0.169573        0.8304     0.83043
   17          H           0.216261        0.7837     0.78374
 DIPOLE           X         Y         Z       TOTAL
 POINT-CHG.     0.639    -2.399    -4.775     5.382
 HYBRID         0.362    -0.163    -1.462     1.514
 SUM            1.001    -2.562    -6.237     6.817


          ATOMIC ORBITAL ELECTRON POPULATIONS

     Atom    s        px        py        pz   
    1  N   1.62165   1.11761   1.10231   1.49524
    2  C   1.15185   0.82635   0.88979   0.81223
    3  N   1.62942   1.24984   1.13011   1.21165
    4  C   1.11687   0.94012   1.06822   0.90142
    5  C   1.08419   0.90999   1.09205   0.92830
    6  O   1.85451   1.52233   1.73220   1.40918
    7  C   1.12507   1.04234   0.91519   0.92726
    8  O   1.90627   1.64457   1.22666   1.49957
    9  C   1.13914   0.83257   0.91233   0.97835
   10  H   0.63804
   11  H   0.67563
   12  H   0.83937
   13  H   0.84890
   14  H   0.64705
   15  H   0.79010
   16  H   0.83043
   17  H   0.78374


                    (SZ)    =    0.500000
                    (S**2)  =    0.776181


          ATOMIC ORBITAL SPIN POPULATIONS

    Atom   Total    s     px     py     pz   
         Atomic
    1  N  0.1172  0.002  0.006  0.134 -0.025
    2  C -0.1252  0.001 -0.012 -0.088 -0.026
    3  N  0.9688  0.044  0.079  0.788  0.059
    4  C -0.0748 -0.010 -0.023 -0.011 -0.031
    5  C  0.0256  0.003  0.014  0.007  0.001
    6  O -0.0013  0.000  0.001 -0.000 -0.002
    7  C  0.1057  0.011  0.003  0.070  0.021
    8  O -0.0108  0.000 -0.001 -0.005 -0.005
    9  C  0.0354  0.006  0.014  0.005  0.011
   10  H -0.0071 -0.007
   11  H -0.0305 -0.031
   12  H -0.0014 -0.001
   13  H -0.0001 -0.000
   14  H  0.0011  0.001
   15  H  0.0013  0.001
   16  H -0.0022 -0.002
   17  H -0.0016 -0.002

 **********************
 *                    *
 * JOB ENDED NORMALLY *
 *                    *
 **********************



 TOTAL JOB TIME:             1.32 SECONDS

 == MOPAC DONE ==
