 *******************************************************************************
 **                                                                           **
 **                              MOPAC v23.2                                  **
 **                                                                           **
 *******************************************************************************
 **          Digital Object Identifier (DOI): 10.5281/zenodo.6511958          **
 **    Visit the DOI location for information on how to cite this program.    **
 *******************************************************************************

                              PM7 CALCULATION RESULTS

 *******************************************************************************
 *  CALCULATION DONE: (MAX THREADS = 40)             Fri Sep 19 21:30:53 2025  *
 *  PM7        - The PM7 Hamiltonian to be used
 *
 *
 *
 *                 CHARGE ON SYSTEM = +1
 *
 *
 *
 *  EPS=37.5   - USE ANDREAS KLAMT'S COSMO IMPLICIT SOLVATION MODEL
 *  1SCF       - DO 1 SCF AND THEN STOP 
 *  T=         - A TIME OF 172800.0 SECONDS REQUESTED
 *  DUMP=N     - RESTART FILE WRITTEN EVERY 7200.0 SECONDS REQUESTED
 *  RELSCF     - DEFAULT SCF CRITERION MULTIPLIED BY 0.0001
 *              (DEFAULT SCF CRITERION = 0.00010)
 *  GRADIENTS  - ALL GRADIENTS TO BE PRINTED
 *  DISP       - PRINT DISPERSION AND HYDROGEN BOND ENERGIES
 *******************************************************************************
PM7 1SCF GRADIENTS EPS=37.5 DISP RELSCF=0.0001 CHARGE=1
 Title: ASE calculation

   ATOM   CHEMICAL          X               Y               Z
  NUMBER   SYMBOL      (ANGSTROMS)     (ANGSTROMS)     (ANGSTROMS)

     1       C         -2.67269680  *   1.40619531  *  -0.19049354  *
     2       C         -1.59604295  *   0.39153795  *  -0.07642628  *
     3       C         -1.97522623  *  -1.11686707  *  -0.01296673  *
     4       C         -0.54830474  *  -1.75661418  *   0.09866674  *
     5       C          0.31328575  *  -0.46729676  *   0.07289267  *
     6       C          1.76947265  *  -0.58314481  *   0.15746254  *
     7       O          2.34697540  *   0.64486805  *   0.11877906  *
     8       C         -0.50633079  *   0.47353170  *   1.06319496  *
     9       C         -0.39103837  *   0.35348224  *  -1.09607291  *
    10       H         -3.27616057  *   1.26435800  *  -1.10210829  *
    11       H         -3.37159048  *   1.36162052  *   0.66092123  *
    12       H         -2.28149686  *   2.43410931  *  -0.22608490  *
    13       H         -2.61260394  *  -1.35259705  *   0.85074137  *
    14       H         -2.51845896  *  -1.45006725  *  -0.90833051  *
    15       H         -0.43174838  *  -2.33625582  *   1.02447618  *
    16       H         -0.33778892  *  -2.43410931  *  -0.74000235  *
    17       H          2.15460440  *  -1.22240448  *   1.04357941  *
    18       H          2.24155820  *  -1.31356328  *  -0.60878995  *
    19       H          3.37159048  *   0.58535789  *   0.17893012  *
    20       H         -0.08266793  *   1.46367580  *   1.22552518  *
    21       H         -0.76730308  *   0.02588984  *   2.02210238  *
    22       H         -0.55169258  *  -0.19847388  *  -2.02210238  *
    23       H          0.05312065  *   1.32219203  *  -1.32095764  *



          CARTESIAN COORDINATES 

    NO.       ATOM           X           Y           Z

     1         C         -2.6727      1.4062     -0.1905
     2         C         -1.5960      0.3915     -0.0764
     3         C         -1.9752     -1.1169     -0.0130
     4         C         -0.5483     -1.7566      0.0987
     5         C          0.3133     -0.4673      0.0729
     6         C          1.7695     -0.5831      0.1575
     7         O          2.3470      0.6449      0.1188
     8         C         -0.5063      0.4735      1.0632
     9         C         -0.3910      0.3535     -1.0961
    10         H         -3.2762      1.2644     -1.1021
    11         H         -3.3716      1.3616      0.6609
    12         H         -2.2815      2.4341     -0.2261
    13         H         -2.6126     -1.3526      0.8507
    14         H         -2.5185     -1.4501     -0.9083
    15         H         -0.4317     -2.3363      1.0245
    16         H         -0.3378     -2.4341     -0.7400
    17         H          2.1546     -1.2224      1.0436
    18         H          2.2416     -1.3136     -0.6088
    19         H          3.3716      0.5854      0.1789
    20         H         -0.0827      1.4637      1.2255
    21         H         -0.7673      0.0259      2.0221
    22         H         -0.5517     -0.1985     -2.0221
    23         H          0.0531      1.3222     -1.3210

 General Reference for PM7:
 "Optimization of Parameters for Semiempirical Methods VI: More Modifications to the 
 NDDO Approximations and Re-optimization of Parameters", J. J. P. Stewart, J. Mol. Mod., 1:32, 19 (2013)
 https://link.springer.com/article/10.1007/s00894-012-1667-x

           Empirical Formula: C8 H14 O  =    23 atoms



      MOLECULAR POINT GROUP   :   Cs  


          UHF CALCULATION, NO. OF ALPHA ELECTRONS =   26
                           NO. OF BETA  ELECTRONS =   25
  SCF CRITERION =    0.1000E-07

 -------------------------------------------------------------------------------
 PM7 1SCF GRADIENTS EPS=37.5 DISP RELSCF=0.0001 CHARGE=1
 Title: ASE calculation



     1SCF WAS SPECIFIED, SO BFGS WAS NOT USED                 
     SCF FIELD WAS ACHIEVED                                   


                              PM7 CALCULATION
                                                       MOPAC v23.2 Linux
                                                       Fri Sep 19 21:30:54 2025




          FINAL HEAT OF FORMATION =        131.97058 KCAL/MOL =     552.16489 KJ/MOL

          TOTAL ENERGY            =     -33648.08316 KCAL/MOL = ELECTRONIC ENERGY + CORE-CORE REPULSION + SOLVATION ENERGY
          ENERGY OF ATOMS         =      33782.22825 KCAL/MOL
                              SUM =        134.14509 KCAL/MOL
          DISPERSION ENERGY       =         -2.17451 KCAL/MOL
                              SUM =        131.97058 KCAL/MOL = FINAL HEAT OF FORMATION

          VAN DER WAALS AREA      =        171.90 SQUARE ANGSTROMS


          TOTAL ENERGY            =      -1459.11899 EV
          ELECTRONIC ENERGY       =      -2507.78416 EV 
          CORE-CORE REPULSION     =       1048.66518 EV

          DIELECTRIC ENERGY       =         -2.92796 EV
          COSMO AREA              =        171.90 SQUARE ANGSTROMS
          COSMO VOLUME            =        178.42 CUBIC ANGSTROMS

          GRADIENT NORM           =         32.84299          =       6.84824 PER ATOM
          IONIZATION POTENTIAL    =         11.144767 EV
          ALPHA SOMO LUMO (EV)    =        -11.149  0.410
          BETA  SOMO LUMO (EV)    =        -11.145 -3.629
          NO. OF ALPHA ELECTRONS  =         26
          NO. OF BETA  ELECTRONS  =         25
          MOLECULAR WEIGHT        =        126.1980         POINT GROUP:  Cs  

          MOLECULAR DIMENSIONS (Angstroms)

            Atom       Atom       Distance
            H    19    H    11     6.80481
            H    12    H    15     4.74386
            H    22    H    21     3.89305


          SCF CALCULATIONS        =          2

          WALL-CLOCK TIME         =      0.922 SECONDS
          COMPUTATION TIME        =      0.600 SECONDS

          LARGEST ATOMIC GRADIENTS

          Atom     Label                     Cartesian Gradients           Cartesian Coordinates       |Gradient|
                                           X          Y          Z        X          Y          Z

             5       C                  18.392    -13.144      1.601    0.31329   -0.46730    0.07289     22.662
             7       O                  11.525      7.466      0.280    2.34698    0.64487    0.11878     13.735
             6       C                  -6.103     -7.353      0.070    1.76947   -0.58314    0.15746      9.556
            19       H                  -7.062      2.408     -0.689    3.37159    0.58536    0.17893      7.493
             2       C                  -6.142      1.422     -0.410   -1.59604    0.39154   -0.07643      6.318
             8       C                  -1.227      5.681     -0.483   -0.50633    0.47353    1.06319      5.832
             9       C                  -1.197      5.629     -0.191   -0.39104    0.35348   -1.09607      5.758
             1       C                   5.144     -2.202      0.398   -2.67270    1.40620   -0.19049      5.610
            18       H                  -3.979     -0.078     -2.243    2.24156   -1.31356   -0.60879      4.568
            17       H                  -4.097      0.412      1.909    2.15460   -1.22240    1.04358      4.538



       FINAL  POINT  AND  DERIVATIVES

   PARAMETER     ATOM    TYPE            VALUE        GRADIENT
      1          1  C    CARTESIAN X    -2.672697      5.144315  KCAL/ANGSTROM
      2          1  C    CARTESIAN Y     1.406195     -2.202423  KCAL/ANGSTROM
      3          1  C    CARTESIAN Z    -0.190494      0.397767  KCAL/ANGSTROM
      4          2  C    CARTESIAN X    -1.596043     -6.142250  KCAL/ANGSTROM
      5          2  C    CARTESIAN Y     0.391538      1.422402  KCAL/ANGSTROM
      6          2  C    CARTESIAN Z    -0.076426     -0.409701  KCAL/ANGSTROM
      7          3  C    CARTESIAN X    -1.975226      3.290757  KCAL/ANGSTROM
      8          3  C    CARTESIAN Y    -1.116867      1.089130  KCAL/ANGSTROM
      9          3  C    CARTESIAN Z    -0.012967      0.135106  KCAL/ANGSTROM
     10          4  C    CARTESIAN X    -0.548305      2.954343  KCAL/ANGSTROM
     11          4  C    CARTESIAN Y    -1.756614      0.447709  KCAL/ANGSTROM
     12          4  C    CARTESIAN Z     0.098667      0.140177  KCAL/ANGSTROM
     13          5  C    CARTESIAN X     0.313286     18.391829  KCAL/ANGSTROM
     14          5  C    CARTESIAN Y    -0.467297    -13.143508  KCAL/ANGSTROM
     15          5  C    CARTESIAN Z     0.072893      1.601233  KCAL/ANGSTROM
     16          6  C    CARTESIAN X     1.769473     -6.103420  KCAL/ANGSTROM
     17          6  C    CARTESIAN Y    -0.583145     -7.352859  KCAL/ANGSTROM
     18          6  C    CARTESIAN Z     0.157463      0.069973  KCAL/ANGSTROM
     19          7  O    CARTESIAN X     2.346975     11.525464  KCAL/ANGSTROM
     20          7  O    CARTESIAN Y     0.644868      7.466497  KCAL/ANGSTROM
     21          7  O    CARTESIAN Z     0.118779      0.280300  KCAL/ANGSTROM
     22          8  C    CARTESIAN X    -0.506331     -1.227423  KCAL/ANGSTROM
     23          8  C    CARTESIAN Y     0.473532      5.681235  KCAL/ANGSTROM
     24          8  C    CARTESIAN Z     1.063195     -0.482574  KCAL/ANGSTROM
     25          9  C    CARTESIAN X    -0.391038     -1.197377  KCAL/ANGSTROM
     26          9  C    CARTESIAN Y     0.353482      5.629145  KCAL/ANGSTROM
     27          9  C    CARTESIAN Z    -1.096073     -0.190843  KCAL/ANGSTROM
     28         10  H    CARTESIAN X    -3.276161     -1.225010  KCAL/ANGSTROM
     29         10  H    CARTESIAN Y     1.264358      0.385732  KCAL/ANGSTROM
     30         10  H    CARTESIAN Z    -1.102108     -0.416991  KCAL/ANGSTROM
     31         11  H    CARTESIAN X    -3.371590     -1.265036  KCAL/ANGSTROM
     32         11  H    CARTESIAN Y     1.361621      0.424760  KCAL/ANGSTROM
     33         11  H    CARTESIAN Z     0.660921      0.233482  KCAL/ANGSTROM
     34         12  H    CARTESIAN X    -2.281497     -1.128811  KCAL/ANGSTROM
     35         12  H    CARTESIAN Y     2.434109      1.138535  KCAL/ANGSTROM
     36         12  H    CARTESIAN Z    -0.226085     -0.127687  KCAL/ANGSTROM
     37         13  H    CARTESIAN X    -2.612604     -1.603625  KCAL/ANGSTROM
     38         13  H    CARTESIAN Y    -1.352597     -0.651094  KCAL/ANGSTROM
     39         13  H    CARTESIAN Z     0.850741      0.336987  KCAL/ANGSTROM
     40         14  H    CARTESIAN X    -2.518459     -1.574924  KCAL/ANGSTROM
     41         14  H    CARTESIAN Y    -1.450067     -0.717163  KCAL/ANGSTROM
     42         14  H    CARTESIAN Z    -0.908331     -0.449794  KCAL/ANGSTROM
     43         15  H    CARTESIAN X    -0.431748     -1.491262  KCAL/ANGSTROM
     44         15  H    CARTESIAN Y    -2.336256     -0.798735  KCAL/ANGSTROM
     45         15  H    CARTESIAN Z     1.024476      0.146536  KCAL/ANGSTROM
     46         16  H    CARTESIAN X    -0.337789     -1.449634  KCAL/ANGSTROM
     47         16  H    CARTESIAN Y    -2.434109     -0.804916  KCAL/ANGSTROM
     48         16  H    CARTESIAN Z    -0.740002     -0.204776  KCAL/ANGSTROM
     49         17  H    CARTESIAN X     2.154604     -4.096537  KCAL/ANGSTROM
     50         17  H    CARTESIAN Y    -1.222404      0.411794  KCAL/ANGSTROM
     51         17  H    CARTESIAN Z     1.043579      1.909149  KCAL/ANGSTROM
     52         18  H    CARTESIAN X     2.241558     -3.978886  KCAL/ANGSTROM
     53         18  H    CARTESIAN Y    -1.313563     -0.078460  KCAL/ANGSTROM
     54         18  H    CARTESIAN Z    -0.608790     -2.242734  KCAL/ANGSTROM
     55         19  H    CARTESIAN X     3.371590     -7.061574  KCAL/ANGSTROM
     56         19  H    CARTESIAN Y     0.585358      2.408222  KCAL/ANGSTROM
     57         19  H    CARTESIAN Z     0.178930     -0.688701  KCAL/ANGSTROM
     58         20  H    CARTESIAN X    -0.082668     -0.561711  KCAL/ANGSTROM
     59         20  H    CARTESIAN Y     1.463676      1.188474  KCAL/ANGSTROM
     60         20  H    CARTESIAN Z     1.225525      0.346326  KCAL/ANGSTROM
     61         21  H    CARTESIAN X    -0.767303     -0.378530  KCAL/ANGSTROM
     62         21  H    CARTESIAN Y     0.025890     -1.498234  KCAL/ANGSTROM
     63         21  H    CARTESIAN Z     2.022102      0.812723  KCAL/ANGSTROM
     64         22  H    CARTESIAN X    -0.551693     -0.283859  KCAL/ANGSTROM
     65         22  H    CARTESIAN Y    -0.198474     -1.572385  KCAL/ANGSTROM
     66         22  H    CARTESIAN Z    -2.022102     -0.652210  KCAL/ANGSTROM
     67         23  H    CARTESIAN X     0.053121     -0.536842  KCAL/ANGSTROM
     68         23  H    CARTESIAN Y     1.322192      1.126138  KCAL/ANGSTROM
     69         23  H    CARTESIAN Z    -1.320958     -0.543753  KCAL/ANGSTROM




   ATOM   CHEMICAL          X               Y               Z
  NUMBER   SYMBOL      (ANGSTROMS)     (ANGSTROMS)     (ANGSTROMS)

     1       C         -2.67269680  *   1.40619531  *  -0.19049354  *
     2       C         -1.59604295  *   0.39153795  *  -0.07642628  *
     3       C         -1.97522623  *  -1.11686707  *  -0.01296673  *
     4       C         -0.54830474  *  -1.75661418  *   0.09866674  *
     5       C          0.31328575  *  -0.46729676  *   0.07289267  *
     6       C          1.76947265  *  -0.58314481  *   0.15746254  *
     7       O          2.34697540  *   0.64486805  *   0.11877906  *
     8       C         -0.50633079  *   0.47353170  *   1.06319496  *
     9       C         -0.39103837  *   0.35348224  *  -1.09607291  *
    10       H         -3.27616057  *   1.26435800  *  -1.10210829  *
    11       H         -3.37159048  *   1.36162052  *   0.66092123  *
    12       H         -2.28149686  *   2.43410931  *  -0.22608490  *
    13       H         -2.61260394  *  -1.35259705  *   0.85074137  *
    14       H         -2.51845896  *  -1.45006725  *  -0.90833051  *
    15       H         -0.43174838  *  -2.33625582  *   1.02447618  *
    16       H         -0.33778892  *  -2.43410931  *  -0.74000235  *
    17       H          2.15460440  *  -1.22240448  *   1.04357941  *
    18       H          2.24155820  *  -1.31356328  *  -0.60878995  *
    19       H          3.37159048  *   0.58535789  *   0.17893012  *
    20       H         -0.08266793  *   1.46367580  *   1.22552518  *
    21       H         -0.76730308  *   0.02588984  *   2.02210238  *
    22       H         -0.55169258  *  -0.19847388  *  -2.02210238  *
    23       H          0.05312065  *   1.32219203  *  -1.32095764  *

                             CARTESIAN COORDINATES

   1    C       -2.672696800     1.406195313    -0.190493543
   2    C       -1.596042955     0.391537951    -0.076426278
   3    C       -1.975226229    -1.116867068    -0.012966733
   4    C       -0.548304738    -1.756614178     0.098666739
   5    C        0.313285753    -0.467296757     0.072892669
   6    C        1.769472653    -0.583144812     0.157462543
   7    O        2.346975397     0.644868051     0.118779056
   8    C       -0.506330785     0.473531703     1.063194959
   9    C       -0.391038371     0.353482244    -1.096072913
  10    H       -3.276160571     1.264357996    -1.102108290
  11    H       -3.371590483     1.361620520     0.660921225
  12    H       -2.281496857     2.434109312    -0.226084904
  13    H       -2.612603941    -1.352597046     0.850741367
  14    H       -2.518458959    -1.450067248    -0.908330507
  15    H       -0.431748380    -2.336255821     1.024476181
  16    H       -0.337788916    -2.434109312    -0.740002346
  17    H        2.154604405    -1.222404483     1.043579410
  18    H        2.241558205    -1.313563275    -0.608789954
  19    H        3.371590483     0.585357893     0.178930124
  20    H       -0.082667925     1.463675799     1.225525182
  21    H       -0.767303076     0.025889842     2.022102384
  22    H       -0.551692578    -0.198473884    -2.022102384
  23    H        0.053120653     1.322192033    -1.320957639


           Empirical Formula: C8 H14 O  =    23 atoms



      MOLECULAR POINT GROUP   :   Cs  


          ALPHA EIGENVALUES  
 -34.31518 -32.54364 -27.35819 -25.80712 -24.89404 -23.21260 -21.82489 -20.14150
 -18.88303 -18.27566 -17.43452 -16.84206 -16.07411 -15.91171 -15.08083 -14.85295
 -13.92740 -13.47290 -13.05677 -12.77633 -12.58943 -12.53884 -11.97380 -11.32945
 -11.31179 -11.14932   0.41034   2.42576   2.74698   2.98303   3.12167   3.32850
   3.43828   3.47401   3.91954   4.08362   4.48811   4.63166   4.81382   5.29779
   5.62650   5.63378   5.70880   5.78502   5.90440   6.17417   6.32832   6.34690
   6.41904   6.80815


           BETA EIGENVALUES 
 -32.69562 -31.71689 -27.03660 -25.66528 -24.74449 -23.18862 -21.70554 -19.72969
 -18.80458 -18.17007 -16.66803 -16.09235 -16.04351 -15.78812 -14.65640 -14.46929
 -13.88728 -13.08228 -12.81983 -12.74405 -12.58425 -11.95411 -11.40965 -11.30798
 -11.14477  -3.62862   0.97389   2.54143   2.79063   3.01265   3.20318   3.35047
   3.45256   3.80736   4.10195   4.31310   4.49274   4.63409   4.82409   5.29824
   5.62663   5.63539   5.71144   5.79015   5.90430   6.17492   6.32930   6.34792
   6.41929   6.80823


              NET ATOMIC CHARGES AND DIPOLE CONTRIBUTIONS

  ATOM NO.   TYPE          CHARGE      No. of ELECS.   s-Pop       p-Pop       
    1          C          -0.470364        4.4704     1.04858     3.42178
    2          C           0.081722        3.9183     1.07078     2.84750
    3          C          -0.290099        4.2901     1.07520     3.21490
    4          C          -0.275035        4.2750     1.07338     3.20166
    5          C          -0.041863        4.0419     1.07297     2.96889
    6          C          -0.128431        4.1284     1.10922     3.01921
    7          O           0.004830        5.9952     1.87012     4.12505
    8          C          -0.297203        4.2972     1.09147     3.20573
    9          C          -0.297787        4.2978     1.09142     3.20637
   10          H           0.165792        0.8342     0.83421
   11          H           0.165897        0.8341     0.83410
   12          H           0.161549        0.8385     0.83845
   13          H           0.150002        0.8500     0.85000
   14          H           0.149617        0.8504     0.85038
   15          H           0.152953        0.8470     0.84705
   16          H           0.153162        0.8468     0.84684
   17          H           0.311895        0.6881     0.68811
   18          H           0.311657        0.6883     0.68834
   19          H           0.383860        0.6161     0.61614
   20          H           0.151233        0.8488     0.84877
   21          H           0.152516        0.8475     0.84748
   22          H           0.152706        0.8473     0.84729
   23          H           0.151392        0.8486     0.84861
 DIPOLE           X         Y         Z       TOTAL
 POINT-CHG.    11.015    -1.951     0.698    11.208
 HYBRID         0.868     0.097     0.038     0.874
 SUM           11.883    -1.853     0.736    12.049


          ATOMIC ORBITAL ELECTRON POPULATIONS

     Atom    s        px        py        pz   
    1  C   1.04858   1.11050   1.11939   1.19190
    2  C   1.07078   0.92906   0.95865   0.95980
    3  C   1.07520   1.02668   1.01636   1.17186
    4  C   1.07338   1.00212   1.02357   1.17597
    5  C   1.07297   0.90181   1.01895   1.04813
    6  C   1.10922   1.02701   0.88618   1.10602
    7  O   1.87012   1.40013   1.33202   1.39291
    8  C   1.09147   1.04717   1.10079   1.05778
    9  C   1.09142   1.04934   1.11609   1.04094
   10  H   0.83421
   11  H   0.83410
   12  H   0.83845
   13  H   0.85000
   14  H   0.85038
   15  H   0.84705
   16  H   0.84684
   17  H   0.68811
   18  H   0.68834
   19  H   0.61614
   20  H   0.84877
   21  H   0.84748
   22  H   0.84729
   23  H   0.84861


                    (SZ)    =    0.500000
                    (S**2)  =    0.756449


          ATOMIC ORBITAL SPIN POPULATIONS

    Atom   Total    s     px     py     pz   
         Atomic
    1  C  0.0001  0.000  0.000  0.000  0.000
    2  C -0.0020 -0.000 -0.001 -0.000 -0.001
    3  C -0.0000 -0.000 -0.000  0.000  0.000
    4  C -0.0021 -0.000 -0.001 -0.001 -0.000
    5  C -0.0073 -0.001 -0.004 -0.002 -0.000
    6  C  0.1098 -0.010 -0.007 -0.032  0.159
    7  O  0.6570  0.019  0.028  0.018  0.592
    8  C  0.0197  0.002  0.007  0.006  0.005
    9  C  0.0195  0.002  0.006  0.005  0.007
   10  H -0.0000 -0.000
   11  H -0.0000 -0.000
   12  H -0.0000 -0.000
   13  H -0.0000 -0.000
   14  H -0.0000 -0.000
   15  H  0.0000  0.000
   16  H  0.0000  0.000
   17  H  0.1181  0.118
   18  H  0.1193  0.119
   19  H -0.0306 -0.031
   20  H -0.0005 -0.000
   21  H -0.0002 -0.000
   22  H -0.0002 -0.000
   23  H -0.0005 -0.000

 **********************
 *                    *
 * JOB ENDED NORMALLY *
 *                    *
 **********************



 TOTAL JOB TIME:             1.25 SECONDS

 == MOPAC DONE ==
