 *******************************************************************************
 **                                                                           **
 **                              MOPAC v23.2                                  **
 **                                                                           **
 *******************************************************************************
 **          Digital Object Identifier (DOI): 10.5281/zenodo.6511958          **
 **    Visit the DOI location for information on how to cite this program.    **
 *******************************************************************************

                              PM7 CALCULATION RESULTS

 *******************************************************************************
 *  CALCULATION DONE: (MAX THREADS = 40)             Fri Sep 19 21:33:07 2025  *
 *  PM7        - The PM7 Hamiltonian to be used
 *  EPS=37.5   - USE ANDREAS KLAMT'S COSMO IMPLICIT SOLVATION MODEL
 *  1SCF       - DO 1 SCF AND THEN STOP 
 *  T=         - A TIME OF 172800.0 SECONDS REQUESTED
 *  DUMP=N     - RESTART FILE WRITTEN EVERY 7200.0 SECONDS REQUESTED
 *  RELSCF     - DEFAULT SCF CRITERION MULTIPLIED BY 0.0001
 *              (DEFAULT SCF CRITERION = 0.00010)
 *  GRADIENTS  - ALL GRADIENTS TO BE PRINTED
 *  DISP       - PRINT DISPERSION AND HYDROGEN BOND ENERGIES
 *******************************************************************************
PM7 1SCF GRADIENTS EPS=37.5 DISP RELSCF=0.0001
 Title: ASE calculation

   ATOM   CHEMICAL          X               Y               Z
  NUMBER   SYMBOL      (ANGSTROMS)     (ANGSTROMS)     (ANGSTROMS)

     1       C         -1.97315332  *  -1.38920692  *   0.23758892  *
     2       C         -0.61680691  *  -0.82971858  *  -0.04320979  *
     3       C         -0.51960660  *   0.32229659  *  -1.03689348  *
     4       C          0.78296136  *   1.08466840  *  -0.65782537  *
     5       O          0.49020224  *   2.25870063  *   0.04842988  *
     6       C          1.56467914  *   0.08789755  *   0.21930970  *
     7       C          1.75661266  *  -1.23889570  *  -0.60581297  *
     8       N          0.51286692  *  -1.82927582  *   0.02523338  *
     9       C          0.46517484  *  -0.68339886  *   1.01597187  *
    10       H         -2.45431017  *  -1.74147284  *  -0.68605456  *
    11       H         -2.63078398  *  -0.64265160  *   0.70072254  *
    12       H         -1.92369557  *  -2.25870063  *   0.91344888  *
    13       H         -0.48780694  *  -0.04229770  *  -2.07558809  *
    14       H         -1.39440623  *   0.99099578  *  -0.97118590  *
    15       H          1.35325473  *   1.45699267  *  -1.53111117  *
    16       H         -0.00491004  *   2.06605292  *   0.87139431  *
    17       H          2.41955741  *   0.49219915  *   0.74975709  *
    18       H          2.63078398  *  -1.83567431  *  -0.30949924  *
    19       H          1.72713574  *  -1.15285477  *  -1.69516325  *
    20       H          0.40618461  *  -0.77582608  *   2.07558809  *



          CARTESIAN COORDINATES 

    NO.       ATOM           X           Y           Z

     1         C         -1.9732     -1.3892      0.2376
     2         C         -0.6168     -0.8297     -0.0432
     3         C         -0.5196      0.3223     -1.0369
     4         C          0.7830      1.0847     -0.6578
     5         O          0.4902      2.2587      0.0484
     6         C          1.5647      0.0879      0.2193
     7         C          1.7566     -1.2389     -0.6058
     8         N          0.5129     -1.8293      0.0252
     9         C          0.4652     -0.6834      1.0160
    10         H         -2.4543     -1.7415     -0.6861
    11         H         -2.6308     -0.6427      0.7007
    12         H         -1.9237     -2.2587      0.9134
    13         H         -0.4878     -0.0423     -2.0756
    14         H         -1.3944      0.9910     -0.9712
    15         H          1.3533      1.4570     -1.5311
    16         H         -0.0049      2.0661      0.8714
    17         H          2.4196      0.4922      0.7498
    18         H          2.6308     -1.8357     -0.3095
    19         H          1.7271     -1.1529     -1.6952
    20         H          0.4062     -0.7758      2.0756

 General Reference for PM7:
 "Optimization of Parameters for Semiempirical Methods VI: More Modifications to the 
 NDDO Approximations and Re-optimization of Parameters", J. J. P. Stewart, J. Mol. Mod., 1:32, 19 (2013)
 https://link.springer.com/article/10.1007/s00894-012-1667-x

           Empirical Formula: C7 H11 N O  =    20 atoms



      MOLECULAR POINT GROUP   :   C1  


      RHF CALCULATION, NO. OF DOUBLY OCCUPIED LEVELS = 25

  SCF CRITERION =    0.1000E-07

 -------------------------------------------------------------------------------
 PM7 1SCF GRADIENTS EPS=37.5 DISP RELSCF=0.0001
 Title: ASE calculation



     1SCF WAS SPECIFIED, SO BFGS WAS NOT USED                 
     SCF FIELD WAS ACHIEVED                                   


                              PM7 CALCULATION
                                                       MOPAC v23.2 Linux
                                                       Fri Sep 19 21:33:08 2025




          FINAL HEAT OF FORMATION =          2.78714 KCAL/MOL =      11.66138 KJ/MOL

          TOTAL ENERGY            =     -34319.30296 KCAL/MOL = ELECTRONIC ENERGY + CORE-CORE REPULSION + SOLVATION ENERGY
          ENERGY OF ATOMS         =      34323.93363 KCAL/MOL
                              SUM =          4.63067 KCAL/MOL
          DISPERSION ENERGY       =         -1.84353 KCAL/MOL
                              SUM =          2.78714 KCAL/MOL = FINAL HEAT OF FORMATION

          VAN DER WAALS AREA      =        157.10 SQUARE ANGSTROMS


          TOTAL ENERGY            =      -1488.22583 EV
          ELECTRONIC ENERGY       =      -2460.58860 EV 
          CORE-CORE REPULSION     =        972.36276 EV

          DIELECTRIC ENERGY       =         -0.50689 EV
          COSMO AREA              =        157.10 SQUARE ANGSTROMS
          COSMO VOLUME            =        159.63 CUBIC ANGSTROMS

          GRADIENT NORM           =         11.57186          =       2.58755 PER ATOM
          IONIZATION POTENTIAL    =         10.179229 EV
          HOMO LUMO ENERGIES (EV) =        -10.179  1.818
          NO. OF FILLED LEVELS    =         25
          MOLECULAR WEIGHT        =        125.1700         POINT GROUP:  C1  

          MOLECULAR DIMENSIONS (Angstroms)

            Atom       Atom       Distance
            H    17    H    10     5.55026
            H    18    H    16     4.83450
            H    20    H    15     4.24589


          SCF CALCULATIONS        =          2

          WALL-CLOCK TIME         =      0.602 SECONDS
          COMPUTATION TIME        =      0.736 SECONDS

          LARGEST ATOMIC GRADIENTS

          Atom     Label                     Cartesian Gradients           Cartesian Coordinates       |Gradient|
                                           X          Y          Z        X          Y          Z

             4       C                  -0.617      3.372      3.234    0.78296    1.08467   -0.65783      4.713
             1       C                  -3.749      2.751      0.719   -1.97315   -1.38921    0.23759      4.705
             2       C                   3.240     -2.952     -1.704   -0.61681   -0.82972   -0.04321      4.703
            16       H                   2.341     -0.586     -3.183   -0.00491    2.06605    0.87139      3.994
             3       C                  -2.309      0.061     -2.253   -0.51961    0.32230   -1.03689      3.227
             8       N                  -1.518      1.635      0.966    0.51287   -1.82928    0.02523      2.431
            18       H                  -1.731     -0.615      0.502    2.63078   -1.83567   -0.30950      1.904
            12       H                   1.522     -0.817     -0.733   -1.92370   -2.25870    0.91345      1.876
            10       H                   1.636     -0.562      0.552   -2.45431   -1.74147   -0.68605      1.816
            13       H                   0.215     -0.393      1.732   -0.48781   -0.04230   -2.07559      1.789



       FINAL  POINT  AND  DERIVATIVES

   PARAMETER     ATOM    TYPE            VALUE        GRADIENT
      1          1  C    CARTESIAN X    -1.973153     -3.748555  KCAL/ANGSTROM
      2          1  C    CARTESIAN Y    -1.389207      2.750579  KCAL/ANGSTROM
      3          1  C    CARTESIAN Z     0.237589      0.718553  KCAL/ANGSTROM
      4          2  C    CARTESIAN X    -0.616807      3.240088  KCAL/ANGSTROM
      5          2  C    CARTESIAN Y    -0.829719     -2.951722  KCAL/ANGSTROM
      6          2  C    CARTESIAN Z    -0.043210     -1.704186  KCAL/ANGSTROM
      7          3  C    CARTESIAN X    -0.519607     -2.308591  KCAL/ANGSTROM
      8          3  C    CARTESIAN Y     0.322297      0.061424  KCAL/ANGSTROM
      9          3  C    CARTESIAN Z    -1.036893     -2.253301  KCAL/ANGSTROM
     10          4  C    CARTESIAN X     0.782961     -0.617063  KCAL/ANGSTROM
     11          4  C    CARTESIAN Y     1.084668      3.371586  KCAL/ANGSTROM
     12          4  C    CARTESIAN Z    -0.657825      3.234304  KCAL/ANGSTROM
     13          5  O    CARTESIAN X     0.490202     -1.082082  KCAL/ANGSTROM
     14          5  O    CARTESIAN Y     2.258701     -1.178838  KCAL/ANGSTROM
     15          5  O    CARTESIAN Z     0.048430      0.259084  KCAL/ANGSTROM
     16          6  C    CARTESIAN X     1.564679      1.138828  KCAL/ANGSTROM
     17          6  C    CARTESIAN Y     0.087898     -0.231101  KCAL/ANGSTROM
     18          6  C    CARTESIAN Z     0.219310      0.176609  KCAL/ANGSTROM
     19          7  C    CARTESIAN X     1.756613     -0.304521  KCAL/ANGSTROM
     20          7  C    CARTESIAN Y    -1.238896      0.249662  KCAL/ANGSTROM
     21          7  C    CARTESIAN Z    -0.605813     -1.719863  KCAL/ANGSTROM
     22          8  N    CARTESIAN X     0.512867     -1.518496  KCAL/ANGSTROM
     23          8  N    CARTESIAN Y    -1.829276      1.634537  KCAL/ANGSTROM
     24          8  N    CARTESIAN Z     0.025233      0.965842  KCAL/ANGSTROM
     25          9  C    CARTESIAN X     0.465175      0.270520  KCAL/ANGSTROM
     26          9  C    CARTESIAN Y    -0.683399      0.308018  KCAL/ANGSTROM
     27          9  C    CARTESIAN Z     1.015972      1.731371  KCAL/ANGSTROM
     28         10  H    CARTESIAN X    -2.454310      1.635846  KCAL/ANGSTROM
     29         10  H    CARTESIAN Y    -1.741473     -0.562330  KCAL/ANGSTROM
     30         10  H    CARTESIAN Z    -0.686055      0.551854  KCAL/ANGSTROM
     31         11  H    CARTESIAN X    -2.630784      0.906546  KCAL/ANGSTROM
     32         11  H    CARTESIAN Y    -0.642652     -0.594671  KCAL/ANGSTROM
     33         11  H    CARTESIAN Z     0.700723     -0.418881  KCAL/ANGSTROM
     34         12  H    CARTESIAN X    -1.923696      1.521956  KCAL/ANGSTROM
     35         12  H    CARTESIAN Y    -2.258701     -0.816664  KCAL/ANGSTROM
     36         12  H    CARTESIAN Z     0.913449     -0.733380  KCAL/ANGSTROM
     37         13  H    CARTESIAN X    -0.487807      0.215015  KCAL/ANGSTROM
     38         13  H    CARTESIAN Y    -0.042298     -0.393435  KCAL/ANGSTROM
     39         13  H    CARTESIAN Z    -2.075588      1.731750  KCAL/ANGSTROM
     40         14  H    CARTESIAN X    -1.394406      1.271081  KCAL/ANGSTROM
     41         14  H    CARTESIAN Y     0.990996     -0.050769  KCAL/ANGSTROM
     42         14  H    CARTESIAN Z    -0.971186     -0.086555  KCAL/ANGSTROM
     43         15  H    CARTESIAN X     1.353255     -0.614391  KCAL/ANGSTROM
     44         15  H    CARTESIAN Y     1.456993      0.586295  KCAL/ANGSTROM
     45         15  H    CARTESIAN Z    -1.531111      1.172101  KCAL/ANGSTROM
     46         16  H    CARTESIAN X    -0.004910      2.340939  KCAL/ANGSTROM
     47         16  H    CARTESIAN Y     2.066053     -0.585812  KCAL/ANGSTROM
     48         16  H    CARTESIAN Z     0.871394     -3.182964  KCAL/ANGSTROM
     49         17  H    CARTESIAN X     2.419557     -0.863176  KCAL/ANGSTROM
     50         17  H    CARTESIAN Y     0.492199     -0.122667  KCAL/ANGSTROM
     51         17  H    CARTESIAN Z     0.749757     -0.673896  KCAL/ANGSTROM
     52         18  H    CARTESIAN X     2.630784     -1.730528  KCAL/ANGSTROM
     53         18  H    CARTESIAN Y    -1.835674     -0.614584  KCAL/ANGSTROM
     54         18  H    CARTESIAN Z    -0.309499      0.501571  KCAL/ANGSTROM
     55         19  H    CARTESIAN X     1.727136     -0.196814  KCAL/ANGSTROM
     56         19  H    CARTESIAN Y    -1.152855     -0.423237  KCAL/ANGSTROM
     57         19  H    CARTESIAN Z    -1.695163      1.334268  KCAL/ANGSTROM
     58         20  H    CARTESIAN X     0.406185      0.443397  KCAL/ANGSTROM
     59         20  H    CARTESIAN Y    -0.775826     -0.436269  KCAL/ANGSTROM
     60         20  H    CARTESIAN Z     2.075588     -1.604286  KCAL/ANGSTROM




   ATOM   CHEMICAL          X               Y               Z
  NUMBER   SYMBOL      (ANGSTROMS)     (ANGSTROMS)     (ANGSTROMS)

     1       C         -1.97315332  *  -1.38920692  *   0.23758892  *
     2       C         -0.61680691  *  -0.82971858  *  -0.04320979  *
     3       C         -0.51960660  *   0.32229659  *  -1.03689348  *
     4       C          0.78296136  *   1.08466840  *  -0.65782537  *
     5       O          0.49020224  *   2.25870063  *   0.04842988  *
     6       C          1.56467914  *   0.08789755  *   0.21930970  *
     7       C          1.75661266  *  -1.23889570  *  -0.60581297  *
     8       N          0.51286692  *  -1.82927582  *   0.02523338  *
     9       C          0.46517484  *  -0.68339886  *   1.01597187  *
    10       H         -2.45431017  *  -1.74147284  *  -0.68605456  *
    11       H         -2.63078398  *  -0.64265160  *   0.70072254  *
    12       H         -1.92369557  *  -2.25870063  *   0.91344888  *
    13       H         -0.48780694  *  -0.04229770  *  -2.07558809  *
    14       H         -1.39440623  *   0.99099578  *  -0.97118590  *
    15       H          1.35325473  *   1.45699267  *  -1.53111117  *
    16       H         -0.00491004  *   2.06605292  *   0.87139431  *
    17       H          2.41955741  *   0.49219915  *   0.74975709  *
    18       H          2.63078398  *  -1.83567431  *  -0.30949924  *
    19       H          1.72713574  *  -1.15285477  *  -1.69516325  *
    20       H          0.40618461  *  -0.77582608  *   2.07558809  *

                             CARTESIAN COORDINATES

   1    C       -1.973153321    -1.389206919     0.237588917
   2    C       -0.616806908    -0.829718578    -0.043209789
   3    C       -0.519606602     0.322296588    -1.036893481
   4    C        0.782961365     1.084668398    -0.657825366
   5    O        0.490202236     2.258700635     0.048429879
   6    C        1.564679140     0.087897554     0.219309702
   7    C        1.756612659    -1.238895705    -0.605812972
   8    N        0.512866921    -1.829275824     0.025233379
   9    C        0.465174843    -0.683398860     1.015971865
  10    H       -2.454310169    -1.741472837    -0.686054559
  11    H       -2.630783976    -0.642651598     0.700722536
  12    H       -1.923695569    -2.258700635     0.913448877
  13    H       -0.487806944    -0.042297705    -2.075588089
  14    H       -1.394406235     0.990995778    -0.971185895
  15    H        1.353254728     1.456992671    -1.531111169
  16    H       -0.004910041     2.066052916     0.871394311
  17    H        2.419557407     0.492199148     0.749757088
  18    H        2.630783976    -1.835674305    -0.309499237
  19    H        1.727135736    -1.152854766    -1.695163251
  20    H        0.406184607    -0.775826077     2.075588089


           Empirical Formula: C7 H11 N O  =    20 atoms



      MOLECULAR POINT GROUP   :   C1  


                  EIGENVALUES  
 -37.46342 -30.16312 -27.51670 -27.22910 -24.05007 -23.73653 -21.92478 -19.39268
 -18.84539 -17.51809 -16.95101 -16.32096 -15.67119 -14.96870 -14.34562 -13.79480
 -13.72804 -13.54708 -13.08714 -12.63971 -12.40664 -11.58599 -11.32306 -11.12478
 -10.17923   1.81822   1.98793   2.38044   2.83501   3.14785   3.32786   3.53154
   3.71807   4.00909   4.23033   4.48308   5.17469   5.44677   5.57338   5.60159
   5.66572   5.78082   5.88461   5.91908   6.03373   6.29669   6.76898


              NET ATOMIC CHARGES AND DIPOLE CONTRIBUTIONS

  ATOM NO.   TYPE          CHARGE      No. of ELECS.   s-Pop       p-Pop       
    1          C          -0.459021        4.4590     1.05061     3.40842
    2          C           0.144836        3.8552     1.06519     2.78998
    3          C          -0.371754        4.3718     1.07862     3.29313
    4          C           0.171660        3.8283     1.09662     2.73172
    5          O          -0.616623        6.6166     1.84082     4.77580
    6          C          -0.216287        4.2163     1.09960     3.11669
    7          C          -0.137189        4.1372     1.08989     3.04730
    8          N          -0.475629        5.4756     1.79958     3.67605
    9          C          -0.117986        4.1180     1.09975     3.01824
   10          H           0.171102        0.8289     0.82890
   11          H           0.172272        0.8277     0.82773
   12          H           0.172150        0.8279     0.82785
   13          H           0.176660        0.8233     0.82334
   14          H           0.181555        0.8184     0.81844
   15          H           0.159147        0.8409     0.84085
   16          H           0.358577        0.6414     0.64142
   17          H           0.174415        0.8256     0.82558
   18          H           0.166646        0.8334     0.83335
   19          H           0.160569        0.8394     0.83943
   20          H           0.184900        0.8151     0.81510
 DIPOLE           X         Y         Z       TOTAL
 POINT-CHG.    -0.738     0.441    -0.440     0.966
 HYBRID        -0.077     0.299     0.275     0.414
 SUM           -0.816     0.740    -0.165     1.114


          ATOMIC ORBITAL ELECTRON POPULATIONS

     Atom    s        px        py        pz   
    1  C   1.05061   1.04097   1.17236   1.19509
    2  C   1.06519   0.88888   0.92163   0.97947
    3  C   1.07862   1.10732   1.06592   1.11989
    4  C   1.09662   0.95413   0.81902   0.95857
    5  O   1.84082   1.82580   1.43120   1.51880
    6  C   1.09960   1.06813   1.01190   1.03666
    7  C   1.08989   0.96832   0.97992   1.09905
    8  N   1.79958   1.13324   1.30981   1.23300
    9  C   1.09975   1.03697   0.94553   1.03573
   10  H   0.82890
   11  H   0.82773
   12  H   0.82785
   13  H   0.82334
   14  H   0.81844
   15  H   0.84085
   16  H   0.64142
   17  H   0.82558
   18  H   0.83335
   19  H   0.83943
   20  H   0.81510

 **********************
 *                    *
 * JOB ENDED NORMALLY *
 *                    *
 **********************



 TOTAL JOB TIME:             0.88 SECONDS

 == MOPAC DONE ==
