 *******************************************************************************
 **                                                                           **
 **                              MOPAC v23.2                                  **
 **                                                                           **
 *******************************************************************************
 **          Digital Object Identifier (DOI): 10.5281/zenodo.6511958          **
 **    Visit the DOI location for information on how to cite this program.    **
 *******************************************************************************

                              PM7 CALCULATION RESULTS

 *******************************************************************************
 *  CALCULATION DONE: (MAX THREADS = 40)             Fri Sep 19 22:00:25 2025  *
 *  PM7        - The PM7 Hamiltonian to be used
 *
 *
 *
 *                 CHARGE ON SYSTEM = +1
 *
 *
 *
 *  1SCF       - DO 1 SCF AND THEN STOP 
 *  T=         - A TIME OF 172800.0 SECONDS REQUESTED
 *  DUMP=N     - RESTART FILE WRITTEN EVERY 7200.0 SECONDS REQUESTED
 *  RELSCF     - DEFAULT SCF CRITERION MULTIPLIED BY 0.0001
 *              (DEFAULT SCF CRITERION = 0.00010)
 *  GRADIENTS  - ALL GRADIENTS TO BE PRINTED
 *  DISP       - PRINT DISPERSION AND HYDROGEN BOND ENERGIES
 *******************************************************************************
PM7 1SCF GRADIENTS DISP RELSCF=0.0001 CHARGE=1
 Title: ASE calculation

   ATOM   CHEMICAL          X               Y               Z
  NUMBER   SYMBOL      (ANGSTROMS)     (ANGSTROMS)     (ANGSTROMS)

     1       C         -2.65079840  *   1.34742857  *   0.61097239  *
     2       C         -2.01827916  *  -0.01742132  *   0.35203869  *
     3       C         -0.53560878  *   0.13344303  *  -0.02716186  *
     4       C          0.07465309  *  -1.22949696  *  -0.36539455  *
     5       C          1.52955020  *  -1.13910611  *  -0.83567452  *
     6       C          2.50611988  *  -0.79223134  *   0.21837053  *
     7       O          2.19366698  *  -0.81963012  *   1.49436051  *
     8       C          2.75793005  *   1.25581946  *   0.13441335  *
     9       O          3.92613396  *   1.34275460  *   0.73133173  *
    10       H         -2.19731933  *   1.85918654  *   1.46621521  *
    11       H         -2.56654689  *   2.01103719  *  -0.25827323  *
    12       H         -3.72485228  *   1.24870061  *   0.82928767  *
    13       H         -2.57075826  *  -0.53396892  *  -0.45966592  *
    14       H         -2.12807633  *  -0.66171247  *   1.24561967  *
    15       H          0.00091103  *   0.62882584  *   0.79933881  *
    16       H         -0.45826026  *   0.81350687  *  -0.89989052  *
    17       H         -0.03197978  *  -1.93564196  *   0.48318742  *
    18       H         -0.53513635  *  -1.70196305  *  -1.17412162  *
    19       H          1.59778065  *  -0.46604004  *  -1.72403580  *
    20       H          1.82639415  *  -2.13529882  *  -1.27620570  *
    21       H          3.59180119  *  -0.96600094  *   0.08899714  *
    22       H          1.20155700  *  -0.93713891  *   1.69883408  *
    23       H          1.84549684  *   1.56415287  *   0.63239387  *
    24       H          2.86829535  *   1.33919742  *  -0.94907787  *
    25       H          3.87430109  *   1.49825804  *   1.73206564  *



          CARTESIAN COORDINATES 

    NO.       ATOM           X           Y           Z

     1         C         -2.6508      1.3474      0.6110
     2         C         -2.0183     -0.0174      0.3520
     3         C         -0.5356      0.1334     -0.0272
     4         C          0.0747     -1.2295     -0.3654
     5         C          1.5296     -1.1391     -0.8357
     6         C          2.5061     -0.7922      0.2184
     7         O          2.1937     -0.8196      1.4944
     8         C          2.7579      1.2558      0.1344
     9         O          3.9261      1.3428      0.7313
    10         H         -2.1973      1.8592      1.4662
    11         H         -2.5665      2.0110     -0.2583
    12         H         -3.7249      1.2487      0.8293
    13         H         -2.5708     -0.5340     -0.4597
    14         H         -2.1281     -0.6617      1.2456
    15         H          0.0009      0.6288      0.7993
    16         H         -0.4583      0.8135     -0.8999
    17         H         -0.0320     -1.9356      0.4832
    18         H         -0.5351     -1.7020     -1.1741
    19         H          1.5978     -0.4660     -1.7240
    20         H          1.8264     -2.1353     -1.2762
    21         H          3.5918     -0.9660      0.0890
    22         H          1.2016     -0.9371      1.6988
    23         H          1.8455      1.5642      0.6324
    24         H          2.8683      1.3392     -0.9491
    25         H          3.8743      1.4983      1.7321

 General Reference for PM7:
 "Optimization of Parameters for Semiempirical Methods VI: More Modifications to the 
 NDDO Approximations and Re-optimization of Parameters", J. J. P. Stewart, J. Mol. Mod., 1:32, 19 (2013)
 https://link.springer.com/article/10.1007/s00894-012-1667-x

           Empirical Formula: C7 H16 O2  =    25 atoms



      MOLECULAR POINT GROUP   :   C1  


          UHF CALCULATION, NO. OF ALPHA ELECTRONS =   28
                           NO. OF BETA  ELECTRONS =   27
  SCF CRITERION =    0.1000E-07

 -------------------------------------------------------------------------------
 PM7 1SCF GRADIENTS DISP RELSCF=0.0001 CHARGE=1
 Title: ASE calculation



     1SCF WAS SPECIFIED, SO BFGS WAS NOT USED                 
     SCF FIELD WAS ACHIEVED                                   


                              PM7 CALCULATION
                                                       MOPAC v23.2 Linux
                                                       Fri Sep 19 22:00:26 2025




          FINAL HEAT OF FORMATION =         81.98227 KCAL/MOL =     343.01380 KJ/MOL

          TOTAL ENERGY            =     -38242.20413 KCAL/MOL = ELECTRONIC ENERGY + CORE-CORE REPULSION
          ENERGY OF ATOMS         =      38326.81232 KCAL/MOL
                              SUM =         84.60819 KCAL/MOL
          DISPERSION ENERGY       =         -2.62593 KCAL/MOL
                              SUM =         81.98227 KCAL/MOL = FINAL HEAT OF FORMATION



          TOTAL ENERGY            =      -1658.33893 EV
          ELECTRONIC ENERGY       =      -8501.85975 EV 
          CORE-CORE REPULSION     =       6843.52083 EV
          COSMO AREA              =        189.07 SQUARE ANGSTROMS
          COSMO VOLUME            =        191.25 CUBIC ANGSTROMS

          GRADIENT NORM           =          1.06598          =       0.21320 PER ATOM
          IONIZATION POTENTIAL    =         14.299120 EV
          ALPHA SOMO LUMO (EV)    =        -14.299 -5.313
          BETA  SOMO LUMO (EV)    =        -14.656 -6.597
          NO. OF ALPHA ELECTRONS  =         28
          NO. OF BETA  ELECTRONS  =         27
          MOLECULAR WEIGHT        =        132.2022         POINT GROUP:  C1  

          MOLECULAR DIMENSIONS (Angstroms)

            Atom       Atom       Distance
            H    21    H    12     7.68026
            H    25    H    18     5.39852
            H    24    H    22     3.62914


          SCF CALCULATIONS        =          1

          WALL-CLOCK TIME         =      0.453 SECONDS
          COMPUTATION TIME        =      0.363 SECONDS

          LARGEST ATOMIC GRADIENTS

          Atom     Label                     Cartesian Gradients           Cartesian Coordinates       |Gradient|
                                           X          Y          Z        X          Y          Z

             9       O                   0.334      0.193     -0.126    3.92613    1.34275    0.73133      0.406
            23       H                  -0.200     -0.019      0.352    1.84550    1.56415    0.63239      0.405
            18       H                  -0.246     -0.006     -0.130   -0.53514   -1.70196   -1.17412      0.278
            13       H                  -0.261      0.006     -0.016   -2.57076   -0.53397   -0.45967      0.261
            14       H                  -0.029     -0.095      0.241   -2.12808   -0.66171    1.24562      0.260
            19       H                   0.071     -0.195     -0.156    1.59778   -0.46604   -1.72404      0.260
            21       H                  -0.152      0.184     -0.083    3.59180   -0.96600    0.08900      0.253
            10       H                  -0.203      0.088     -0.071   -2.19732    1.85919    1.46622      0.232
            12       H                   0.041      0.087     -0.211   -3.72485    1.24870    0.82929      0.231
             5       C                   0.195      0.057     -0.048    1.52955   -1.13911   -0.83567      0.209



       FINAL  POINT  AND  DERIVATIVES

   PARAMETER     ATOM    TYPE            VALUE        GRADIENT
      1          1  C    CARTESIAN X    -2.650798      0.007153  KCAL/ANGSTROM
      2          1  C    CARTESIAN Y     1.347429      0.002136  KCAL/ANGSTROM
      3          1  C    CARTESIAN Z     0.610972     -0.114165  KCAL/ANGSTROM
      4          2  C    CARTESIAN X    -2.018279     -0.111441  KCAL/ANGSTROM
      5          2  C    CARTESIAN Y    -0.017421     -0.124656  KCAL/ANGSTROM
      6          2  C    CARTESIAN Z     0.352039      0.096840  KCAL/ANGSTROM
      7          3  C    CARTESIAN X    -0.535609     -0.040203  KCAL/ANGSTROM
      8          3  C    CARTESIAN Y     0.133443     -0.068643  KCAL/ANGSTROM
      9          3  C    CARTESIAN Z    -0.027162      0.096209  KCAL/ANGSTROM
     10          4  C    CARTESIAN X     0.074653      0.117178  KCAL/ANGSTROM
     11          4  C    CARTESIAN Y    -1.229497      0.044865  KCAL/ANGSTROM
     12          4  C    CARTESIAN Z    -0.365395     -0.067665  KCAL/ANGSTROM
     13          5  C    CARTESIAN X     1.529550      0.195423  KCAL/ANGSTROM
     14          5  C    CARTESIAN Y    -1.139106      0.057413  KCAL/ANGSTROM
     15          5  C    CARTESIAN Z    -0.835675     -0.048070  KCAL/ANGSTROM
     16          6  C    CARTESIAN X     2.506120      0.099053  KCAL/ANGSTROM
     17          6  C    CARTESIAN Y    -0.792231      0.096149  KCAL/ANGSTROM
     18          6  C    CARTESIAN Z     0.218371     -0.026202  KCAL/ANGSTROM
     19          7  O    CARTESIAN X     2.193667      0.118592  KCAL/ANGSTROM
     20          7  O    CARTESIAN Y    -0.819630     -0.058630  KCAL/ANGSTROM
     21          7  O    CARTESIAN Z     1.494361      0.072423  KCAL/ANGSTROM
     22          8  C    CARTESIAN X     2.757930      0.135492  KCAL/ANGSTROM
     23          8  C    CARTESIAN Y     1.255819      0.030831  KCAL/ANGSTROM
     24          8  C    CARTESIAN Z     0.134413      0.034378  KCAL/ANGSTROM
     25          9  O    CARTESIAN X     3.926134      0.334481  KCAL/ANGSTROM
     26          9  O    CARTESIAN Y     1.342755      0.192508  KCAL/ANGSTROM
     27          9  O    CARTESIAN Z     0.731332     -0.125814  KCAL/ANGSTROM
     28         10  H    CARTESIAN X    -2.197319     -0.202527  KCAL/ANGSTROM
     29         10  H    CARTESIAN Y     1.859187      0.088030  KCAL/ANGSTROM
     30         10  H    CARTESIAN Z     1.466215     -0.071227  KCAL/ANGSTROM
     31         11  H    CARTESIAN X    -2.566547     -0.033710  KCAL/ANGSTROM
     32         11  H    CARTESIAN Y     2.011037      0.188019  KCAL/ANGSTROM
     33         11  H    CARTESIAN Z    -0.258273     -0.005232  KCAL/ANGSTROM
     34         12  H    CARTESIAN X    -3.724852      0.040513  KCAL/ANGSTROM
     35         12  H    CARTESIAN Y     1.248701      0.086543  KCAL/ANGSTROM
     36         12  H    CARTESIAN Z     0.829288     -0.210549  KCAL/ANGSTROM
     37         13  H    CARTESIAN X    -2.570758     -0.260525  KCAL/ANGSTROM
     38         13  H    CARTESIAN Y    -0.533969      0.006412  KCAL/ANGSTROM
     39         13  H    CARTESIAN Z    -0.459666     -0.016454  KCAL/ANGSTROM
     40         14  H    CARTESIAN X    -2.128076     -0.028552  KCAL/ANGSTROM
     41         14  H    CARTESIAN Y    -0.661712     -0.094919  KCAL/ANGSTROM
     42         14  H    CARTESIAN Z     1.245620      0.240586  KCAL/ANGSTROM
     43         15  H    CARTESIAN X     0.000911      0.064935  KCAL/ANGSTROM
     44         15  H    CARTESIAN Y     0.628826     -0.085059  KCAL/ANGSTROM
     45         15  H    CARTESIAN Z     0.799339     -0.014711  KCAL/ANGSTROM
     46         16  H    CARTESIAN X    -0.458260     -0.029458  KCAL/ANGSTROM
     47         16  H    CARTESIAN Y     0.813507     -0.073345  KCAL/ANGSTROM
     48         16  H    CARTESIAN Z    -0.899891      0.141064  KCAL/ANGSTROM
     49         17  H    CARTESIAN X    -0.031980      0.066181  KCAL/ANGSTROM
     50         17  H    CARTESIAN Y    -1.935642     -0.036127  KCAL/ANGSTROM
     51         17  H    CARTESIAN Z     0.483187      0.103790  KCAL/ANGSTROM
     52         18  H    CARTESIAN X    -0.535136     -0.245757  KCAL/ANGSTROM
     53         18  H    CARTESIAN Y    -1.701963     -0.005910  KCAL/ANGSTROM
     54         18  H    CARTESIAN Z    -1.174122     -0.129879  KCAL/ANGSTROM
     55         19  H    CARTESIAN X     1.597781      0.070886  KCAL/ANGSTROM
     56         19  H    CARTESIAN Y    -0.466040     -0.194724  KCAL/ANGSTROM
     57         19  H    CARTESIAN Z    -1.724036     -0.156409  KCAL/ANGSTROM
     58         20  H    CARTESIAN X     1.826394     -0.015908  KCAL/ANGSTROM
     59         20  H    CARTESIAN Y    -2.135299     -0.023761  KCAL/ANGSTROM
     60         20  H    CARTESIAN Z    -1.276206      0.058866  KCAL/ANGSTROM
     61         21  H    CARTESIAN X     3.591801     -0.152042  KCAL/ANGSTROM
     62         21  H    CARTESIAN Y    -0.966001      0.184087  KCAL/ANGSTROM
     63         21  H    CARTESIAN Z     0.088997     -0.083219  KCAL/ANGSTROM
     64         22  H    CARTESIAN X     1.201557     -0.083949  KCAL/ANGSTROM
     65         22  H    CARTESIAN Y    -0.937139     -0.104414  KCAL/ANGSTROM
     66         22  H    CARTESIAN Z     1.698834     -0.093622  KCAL/ANGSTROM
     67         23  H    CARTESIAN X     1.845497     -0.199742  KCAL/ANGSTROM
     68         23  H    CARTESIAN Y     1.564153     -0.018727  KCAL/ANGSTROM
     69         23  H    CARTESIAN Z     0.632394      0.352144  KCAL/ANGSTROM
     70         24  H    CARTESIAN X     2.868295      0.034792  KCAL/ANGSTROM
     71         24  H    CARTESIAN Y     1.339197      0.017157  KCAL/ANGSTROM
     72         24  H    CARTESIAN Z    -0.949078     -0.097964  KCAL/ANGSTROM
     73         25  H    CARTESIAN X     3.874301      0.119130  KCAL/ANGSTROM
     74         25  H    CARTESIAN Y     1.498258     -0.105236  KCAL/ANGSTROM
     75         25  H    CARTESIAN Z     1.732066      0.064877  KCAL/ANGSTROM




   ATOM   CHEMICAL          X               Y               Z
  NUMBER   SYMBOL      (ANGSTROMS)     (ANGSTROMS)     (ANGSTROMS)

     1       C         -2.65079840  *   1.34742857  *   0.61097239  *
     2       C         -2.01827916  *  -0.01742132  *   0.35203869  *
     3       C         -0.53560878  *   0.13344303  *  -0.02716186  *
     4       C          0.07465309  *  -1.22949696  *  -0.36539455  *
     5       C          1.52955020  *  -1.13910611  *  -0.83567452  *
     6       C          2.50611988  *  -0.79223134  *   0.21837053  *
     7       O          2.19366698  *  -0.81963012  *   1.49436051  *
     8       C          2.75793005  *   1.25581946  *   0.13441335  *
     9       O          3.92613396  *   1.34275460  *   0.73133173  *
    10       H         -2.19731933  *   1.85918654  *   1.46621521  *
    11       H         -2.56654689  *   2.01103719  *  -0.25827323  *
    12       H         -3.72485228  *   1.24870061  *   0.82928767  *
    13       H         -2.57075826  *  -0.53396892  *  -0.45966592  *
    14       H         -2.12807633  *  -0.66171247  *   1.24561967  *
    15       H          0.00091103  *   0.62882584  *   0.79933881  *
    16       H         -0.45826026  *   0.81350687  *  -0.89989052  *
    17       H         -0.03197978  *  -1.93564196  *   0.48318742  *
    18       H         -0.53513635  *  -1.70196305  *  -1.17412162  *
    19       H          1.59778065  *  -0.46604004  *  -1.72403580  *
    20       H          1.82639415  *  -2.13529882  *  -1.27620570  *
    21       H          3.59180119  *  -0.96600094  *   0.08899714  *
    22       H          1.20155700  *  -0.93713891  *   1.69883408  *
    23       H          1.84549684  *   1.56415287  *   0.63239387  *
    24       H          2.86829535  *   1.33919742  *  -0.94907787  *
    25       H          3.87430109  *   1.49825804  *   1.73206564  *

                             CARTESIAN COORDINATES

   1    C       -2.650798400     1.347428570     0.610972390
   2    C       -2.018279158    -0.017421318     0.352038686
   3    C       -0.535608779     0.133443030    -0.027161860
   4    C        0.074653087    -1.229496960    -0.365394552
   5    C        1.529550200    -1.139106110    -0.835674525
   6    C        2.506119877    -0.792231339     0.218370528
   7    O        2.193666979    -0.819630123     1.494360510
   8    C        2.757930049     1.255819464     0.134413346
   9    O        3.926133957     1.342754600     0.731331730
  10    H       -2.197319334     1.859186544     1.466215210
  11    H       -2.566546891     2.011037190    -0.258273234
  12    H       -3.724852284     1.248700611     0.829287666
  13    H       -2.570758255    -0.533968918    -0.459665920
  14    H       -2.128076333    -0.661712467     1.245619673
  15    H        0.000911030     0.628825842     0.799338813
  16    H       -0.458260258     0.813506872    -0.899890516
  17    H       -0.031979782    -1.935641955     0.483187415
  18    H       -0.535136346    -1.701963047    -1.174121624
  19    H        1.597780652    -0.466040038    -1.724035797
  20    H        1.826394154    -2.135298825    -1.276205704
  21    H        3.591801186    -0.966000943     0.088997141
  22    H        1.201557000    -0.937138912     1.698834082
  23    H        1.845496837     1.564152874     0.632393872
  24    H        2.868295348     1.339197416    -0.949077869
  25    H        3.874301095     1.498258039     1.732065642


           Empirical Formula: C7 H16 O2  =    25 atoms



      MOLECULAR POINT GROUP   :   C1  


          ALPHA EIGENVALUES  
 -37.34924 -36.65426 -33.40854 -31.54483 -29.60372 -28.44576 -26.61530 -24.66719
 -24.00175 -23.43418 -22.78399 -21.60179 -21.11165 -20.95809 -19.80522 -19.21137
 -18.83491 -18.42670 -18.16218 -17.99343 -17.47425 -17.21054 -16.60084 -15.81564
 -15.51448 -15.02791 -14.65714 -14.29912  -5.31270  -3.07453  -2.85819  -1.60947
  -0.93232  -0.31634  -0.26961  -0.07573   0.01002   0.19058   0.43706   0.60138
   0.77926   1.14733   1.40661   1.50433   1.75866   2.31964   2.53615   2.66950
   3.07268   3.15375   3.44442   4.23052


           BETA EIGENVALUES 
 -36.78863 -35.89355 -33.28203 -31.44962 -29.39723 -28.24947 -26.51971 -24.62585
 -23.89089 -23.36775 -22.67104 -21.46857 -20.89200 -20.41849 -19.72470 -18.90301
 -18.39626 -18.24231 -17.92589 -17.66920 -17.37956 -17.13980 -16.56313 -15.80956
 -15.49593 -15.02080 -14.65643  -6.59743  -4.02388  -2.83611  -2.54807  -1.52891
  -0.90512  -0.20872  -0.19202  -0.04377   0.07581   0.26883   0.47885   0.72513
   0.79215   1.15323   1.42178   1.50497   1.75929   2.32012   2.53619   2.66967
   3.07269   3.15376   3.44442   4.23052


              NET ATOMIC CHARGES AND DIPOLE CONTRIBUTIONS

  ATOM NO.   TYPE          CHARGE      No. of ELECS.   s-Pop       p-Pop       
    1          C          -0.439642        4.4396     1.05170     3.38795
    2          C          -0.249848        4.2498     1.05643     3.19341
    3          C          -0.289029        4.2890     1.06174     3.22729
    4          C          -0.284330        4.2843     1.05948     3.22485
    5          C          -0.391153        4.3912     1.06788     3.32327
    6          C           0.262450        3.7376     1.17872     2.55883
    7          O          -0.376111        6.3761     1.83375     4.54236
    8          C          -0.009419        4.0094     1.17648     2.83294
    9          O          -0.298697        6.2987     1.83643     4.46227
   10          H           0.143909        0.8561     0.85609
   11          H           0.150992        0.8490     0.84901
   12          H           0.168285        0.8317     0.83172
   13          H           0.153204        0.8468     0.84680
   14          H           0.141582        0.8584     0.85842
   15          H           0.112080        0.8879     0.88792
   16          H           0.153408        0.8466     0.84659
   17          H           0.149713        0.8503     0.85029
   18          H           0.186549        0.8135     0.81345
   19          H           0.203080        0.7969     0.79692
   20          H           0.217784        0.7822     0.78222
   21          H           0.203897        0.7961     0.79610
   22          H           0.379058        0.6209     0.62094
   23          H           0.162268        0.8377     0.83773
   24          H           0.190670        0.8093     0.80933
   25          H           0.359298        0.6407     0.64070
 DIPOLE           X         Y         Z       TOTAL
 POINT-CHG.     4.204    -0.241    -0.655     4.262
 HYBRID         0.199     0.111     0.731     0.765
 SUM            4.403    -0.130     0.076     4.405


          ATOMIC ORBITAL ELECTRON POPULATIONS

     Atom    s        px        py        pz   
    1  C   1.05170   1.16482   1.04856   1.17456
    2  C   1.05643   0.97015   1.06419   1.15907
    3  C   1.06174   1.06400   1.01871   1.14458
    4  C   1.05948   0.96949   1.07773   1.17762
    5  C   1.06788   1.04143   1.20427   1.07757
    6  C   1.17872   1.05470   0.70186   0.80227
    7  O   1.83375   1.46269   1.74547   1.33420
    8  C   1.17648   0.90537   0.85966   1.06791
    9  O   1.83643   1.35575   1.71731   1.38921
   10  H   0.85609
   11  H   0.84901
   12  H   0.83172
   13  H   0.84680
   14  H   0.85842
   15  H   0.88792
   16  H   0.84659
   17  H   0.85029
   18  H   0.81345
   19  H   0.79692
   20  H   0.78222
   21  H   0.79610
   22  H   0.62094
   23  H   0.83773
   24  H   0.80933
   25  H   0.64070


                    (SZ)    =    0.500000
                    (S**2)  =    0.758404


          ATOMIC ORBITAL SPIN POPULATIONS

    Atom   Total    s     px     py     pz   
         Atomic
    1  C  0.0000  0.000  0.000  0.000  0.000
    2  C -0.0000 -0.000 -0.000 -0.000 -0.000
    3  C  0.0003  0.000  0.000  0.000  0.000
    4  C -0.0005 -0.000 -0.000 -0.000 -0.000
    5  C  0.0050 -0.001 -0.001  0.010 -0.003
    6  C  0.2133  0.001  0.003  0.211 -0.002
    7  O  0.1659  0.007  0.009  0.145  0.005
    8  C  0.3751  0.010  0.003  0.352  0.011
    9  O  0.2251  0.009 -0.001  0.204  0.013
   10  H -0.0000 -0.000
   11  H -0.0000 -0.000
   12  H  0.0000  0.000
   13  H -0.0000 -0.000
   14  H  0.0000  0.000
   15  H  0.0001  0.000
   16  H -0.0000 -0.000
   17  H -0.0000 -0.000
   18  H  0.0001  0.000
   19  H  0.0062  0.006
   20  H  0.0153  0.015
   21  H  0.0109  0.011
   22  H -0.0076 -0.008
   23  H -0.0014 -0.001
   24  H  0.0032  0.003
   25  H -0.0108 -0.011

 **********************
 *                    *
 * JOB ENDED NORMALLY *
 *                    *
 **********************



 TOTAL JOB TIME:             0.61 SECONDS

 == MOPAC DONE ==
