 *******************************************************************************
 **                                                                           **
 **                              MOPAC v23.2                                  **
 **                                                                           **
 *******************************************************************************
 **          Digital Object Identifier (DOI): 10.5281/zenodo.6511958          **
 **    Visit the DOI location for information on how to cite this program.    **
 *******************************************************************************

                              PM7 CALCULATION RESULTS

 *******************************************************************************
 *  CALCULATION DONE: (MAX THREADS = 40)             Fri Sep 19 21:39:12 2025  *
 *  PM7        - The PM7 Hamiltonian to be used
 *
 *
 *
 *                 CHARGE ON SYSTEM = +1
 *
 *
 *
 *  EPS=37.5   - USE ANDREAS KLAMT'S COSMO IMPLICIT SOLVATION MODEL
 *  1SCF       - DO 1 SCF AND THEN STOP 
 *  T=         - A TIME OF 172800.0 SECONDS REQUESTED
 *  DUMP=N     - RESTART FILE WRITTEN EVERY 7200.0 SECONDS REQUESTED
 *  RELSCF     - DEFAULT SCF CRITERION MULTIPLIED BY 0.0001
 *              (DEFAULT SCF CRITERION = 0.00010)
 *  GRADIENTS  - ALL GRADIENTS TO BE PRINTED
 *  DISP       - PRINT DISPERSION AND HYDROGEN BOND ENERGIES
 *******************************************************************************
PM7 1SCF GRADIENTS EPS=37.5 DISP RELSCF=0.0001 CHARGE=1
 Title: ASE calculation

   ATOM   CHEMICAL          X               Y               Z
  NUMBER   SYMBOL      (ANGSTROMS)     (ANGSTROMS)     (ANGSTROMS)

     1       C         -2.11730354  *   0.64883194  *   0.54874804  *
     2       C         -1.18348913  *   0.12895682  *  -0.55253430  *
     3       C         -0.69159184  *  -1.29972002  *  -0.21836735  *
     4       C          0.72082047  *  -1.52925045  *  -0.14445607  *
     5       C          1.73131637  *  -0.50560941  *  -0.18433926  *
     6       C          1.20956663  *   0.94295159  *  -0.06623593  *
     7       C          2.20028630  *   1.85465857  *  -0.61175552  *
     8       N          2.98190075  *   2.58352589  *  -1.04810893  *
     9       C         -0.09485275  *   1.10176648  *  -0.74071205  *
    10       H         -2.98190075  *  -0.00988223  *   0.70346323  *
    11       H         -2.53440143  *   1.63545086  *   0.28334998  *
    12       H         -1.60697094  *   0.77655210  *   1.51011355  *
    13       H         -1.78206244  *   0.06628578  *  -1.51011355  *
    14       H         -1.19331985  *  -2.03878880  *  -0.91753205  *
    15       H         -1.18826084  *  -1.65342864  *   0.74693088  *
    16       H          1.06896390  *  -2.58352589  *  -0.05615328  *
    17       H          2.33459269  *  -0.61423038  *  -1.15048940  *
    18       H          2.56572392  *  -0.67995474  *   0.55940219  *
    19       H          1.05930518  *   1.19022447  *   1.03791242  *
    20       H         -0.29229560  *   1.99949419  *  -1.31051138  *



          CARTESIAN COORDINATES 

    NO.       ATOM           X           Y           Z

     1         C         -2.1173      0.6488      0.5487
     2         C         -1.1835      0.1290     -0.5525
     3         C         -0.6916     -1.2997     -0.2184
     4         C          0.7208     -1.5293     -0.1445
     5         C          1.7313     -0.5056     -0.1843
     6         C          1.2096      0.9430     -0.0662
     7         C          2.2003      1.8547     -0.6118
     8         N          2.9819      2.5835     -1.0481
     9         C         -0.0949      1.1018     -0.7407
    10         H         -2.9819     -0.0099      0.7035
    11         H         -2.5344      1.6355      0.2833
    12         H         -1.6070      0.7766      1.5101
    13         H         -1.7821      0.0663     -1.5101
    14         H         -1.1933     -2.0388     -0.9175
    15         H         -1.1883     -1.6534      0.7469
    16         H          1.0690     -2.5835     -0.0562
    17         H          2.3346     -0.6142     -1.1505
    18         H          2.5657     -0.6800      0.5594
    19         H          1.0593      1.1902      1.0379
    20         H         -0.2923      1.9995     -1.3105

 General Reference for PM7:
 "Optimization of Parameters for Semiempirical Methods VI: More Modifications to the 
 NDDO Approximations and Re-optimization of Parameters", J. J. P. Stewart, J. Mol. Mod., 1:32, 19 (2013)
 https://link.springer.com/article/10.1007/s00894-012-1667-x

           Empirical Formula: C8 H11 N  =    20 atoms



      MOLECULAR POINT GROUP   :   C1  


          UHF CALCULATION, NO. OF ALPHA ELECTRONS =   24
                           NO. OF BETA  ELECTRONS =   23
  SCF CRITERION =    0.1000E-07

 -------------------------------------------------------------------------------
 PM7 1SCF GRADIENTS EPS=37.5 DISP RELSCF=0.0001 CHARGE=1
 Title: ASE calculation



     1SCF WAS SPECIFIED, SO BFGS WAS NOT USED                 
     SCF FIELD WAS ACHIEVED                                   


                              PM7 CALCULATION
                                                       MOPAC v23.2 Linux
                                                       Fri Sep 19 21:39:13 2025




          FINAL HEAT OF FORMATION =        175.86474 KCAL/MOL =     735.81806 KJ/MOL

          TOTAL ENERGY            =     -30216.18072 KCAL/MOL = ELECTRONIC ENERGY + CORE-CORE REPULSION + SOLVATION ENERGY
          ENERGY OF ATOMS         =      30394.11925 KCAL/MOL
                              SUM =        177.93854 KCAL/MOL
          DISPERSION ENERGY       =         -2.07380 KCAL/MOL
                              SUM =        175.86474 KCAL/MOL = FINAL HEAT OF FORMATION

          VAN DER WAALS AREA      =        170.49 SQUARE ANGSTROMS


          TOTAL ENERGY            =      -1310.29761 EV
          ELECTRONIC ENERGY       =      -1996.47761 EV 
          CORE-CORE REPULSION     =        686.18000 EV

          DIELECTRIC ENERGY       =         -3.16889 EV
          COSMO AREA              =        170.49 SQUARE ANGSTROMS
          COSMO VOLUME            =        170.34 CUBIC ANGSTROMS

          GRADIENT NORM           =         23.23657          =       5.19585 PER ATOM
          IONIZATION POTENTIAL    =          9.676001 EV
          ALPHA SOMO LUMO (EV)    =         -9.676 -2.003
          BETA  SOMO LUMO (EV)    =        -12.060 -2.002
          NO. OF ALPHA ELECTRONS  =         24
          NO. OF BETA  ELECTRONS  =         23
          MOLECULAR WEIGHT        =        121.1816         POINT GROUP:  C1  

          MOLECULAR DIMENSIONS (Angstroms)

            Atom       Atom       Distance
            H    10    N     8     6.73504
            H    16    H    11     5.30679
            H    13    H    19     3.25224


          SCF CALCULATIONS        =          2

          WALL-CLOCK TIME         =      1.617 SECONDS
          COMPUTATION TIME        =      0.976 SECONDS

          LARGEST ATOMIC GRADIENTS

          Atom     Label                     Cartesian Gradients           Cartesian Coordinates       |Gradient|
                                           X          Y          Z        X          Y          Z

             7       C                   7.427      5.922     -3.494    2.20029    1.85466   -0.61176     10.121
             5       C                  -0.236     -9.779      2.491    1.73132   -0.50561   -0.18434     10.094
             8       N                  -6.358     -6.174      3.111    2.98190    2.58353   -1.04811      9.392
             3       C                   2.008     -8.685      1.185   -0.69159   -1.29972   -0.21837      8.992
             1       C                   3.832     -5.719      0.245   -2.11730    0.64883    0.54875      6.889
             6       C                  -0.563      3.421      2.361    1.20957    0.94295   -0.06624      4.195
             9       C                   0.315     -4.067      0.494   -0.09485    1.10177   -0.74071      4.109
            17       H                   0.706      3.724     -0.792    2.33459   -0.61423   -1.15049      3.872
             2       C                  -1.121      3.571     -0.207   -1.18349    0.12896   -0.55253      3.748
            15       H                  -1.900      2.433      0.099   -1.18826   -1.65343    0.74693      3.089



       FINAL  POINT  AND  DERIVATIVES

   PARAMETER     ATOM    TYPE            VALUE        GRADIENT
      1          1  C    CARTESIAN X    -2.117304      3.831672  KCAL/ANGSTROM
      2          1  C    CARTESIAN Y     0.648832     -5.719490  KCAL/ANGSTROM
      3          1  C    CARTESIAN Z     0.548748      0.245267  KCAL/ANGSTROM
      4          2  C    CARTESIAN X    -1.183489     -1.120903  KCAL/ANGSTROM
      5          2  C    CARTESIAN Y     0.128957      3.570743  KCAL/ANGSTROM
      6          2  C    CARTESIAN Z    -0.552534     -0.207292  KCAL/ANGSTROM
      7          3  C    CARTESIAN X    -0.691592      2.007714  KCAL/ANGSTROM
      8          3  C    CARTESIAN Y    -1.299720     -8.684729  KCAL/ANGSTROM
      9          3  C    CARTESIAN Z    -0.218367      1.185102  KCAL/ANGSTROM
     10          4  C    CARTESIAN X     0.720820      1.471245  KCAL/ANGSTROM
     11          4  C    CARTESIAN Y    -1.529250      2.406792  KCAL/ANGSTROM
     12          4  C    CARTESIAN Z    -0.144456     -1.132190  KCAL/ANGSTROM
     13          5  C    CARTESIAN X     1.731316     -0.236014  KCAL/ANGSTROM
     14          5  C    CARTESIAN Y    -0.505609     -9.778748  KCAL/ANGSTROM
     15          5  C    CARTESIAN Z    -0.184339      2.490849  KCAL/ANGSTROM
     16          6  C    CARTESIAN X     1.209567     -0.562862  KCAL/ANGSTROM
     17          6  C    CARTESIAN Y     0.942952      3.421421  KCAL/ANGSTROM
     18          6  C    CARTESIAN Z    -0.066236      2.361435  KCAL/ANGSTROM
     19          7  C    CARTESIAN X     2.200286      7.426510  KCAL/ANGSTROM
     20          7  C    CARTESIAN Y     1.854659      5.921868  KCAL/ANGSTROM
     21          7  C    CARTESIAN Z    -0.611756     -3.493992  KCAL/ANGSTROM
     22          8  N    CARTESIAN X     2.981901     -6.357765  KCAL/ANGSTROM
     23          8  N    CARTESIAN Y     2.583526     -6.174041  KCAL/ANGSTROM
     24          8  N    CARTESIAN Z    -1.048109      3.110854  KCAL/ANGSTROM
     25          9  C    CARTESIAN X    -0.094853      0.315497  KCAL/ANGSTROM
     26          9  C    CARTESIAN Y     1.101766     -4.066534  KCAL/ANGSTROM
     27          9  C    CARTESIAN Z    -0.740712      0.493619  KCAL/ANGSTROM
     28         10  H    CARTESIAN X    -2.981901     -1.938287  KCAL/ANGSTROM
     29         10  H    CARTESIAN Y    -0.009882      1.464588  KCAL/ANGSTROM
     30         10  H    CARTESIAN Z     0.703463     -0.003848  KCAL/ANGSTROM
     31         11  H    CARTESIAN X    -2.534401     -1.376920  KCAL/ANGSTROM
     32         11  H    CARTESIAN Y     1.635451      1.371508  KCAL/ANGSTROM
     33         11  H    CARTESIAN Z     0.283350      0.065659  KCAL/ANGSTROM
     34         12  H    CARTESIAN X    -1.606971     -0.856604  KCAL/ANGSTROM
     35         12  H    CARTESIAN Y     0.776552      1.915862  KCAL/ANGSTROM
     36         12  H    CARTESIAN Z     1.510114      0.109703  KCAL/ANGSTROM
     37         13  H    CARTESIAN X    -1.782062     -1.065104  KCAL/ANGSTROM
     38         13  H    CARTESIAN Y     0.066286      0.774727  KCAL/ANGSTROM
     39         13  H    CARTESIAN Z    -1.510114     -0.525809  KCAL/ANGSTROM
     40         14  H    CARTESIAN X    -1.193320     -1.220795  KCAL/ANGSTROM
     41         14  H    CARTESIAN Y    -2.038789      1.480777  KCAL/ANGSTROM
     42         14  H    CARTESIAN Z    -0.917532     -0.766107  KCAL/ANGSTROM
     43         15  H    CARTESIAN X    -1.188261     -1.900421  KCAL/ANGSTROM
     44         15  H    CARTESIAN Y    -1.653429      2.433186  KCAL/ANGSTROM
     45         15  H    CARTESIAN Z     0.746931      0.099186  KCAL/ANGSTROM
     46         16  H    CARTESIAN X     1.068964     -0.155385  KCAL/ANGSTROM
     47         16  H    CARTESIAN Y    -2.583526      0.745434  KCAL/ANGSTROM
     48         16  H    CARTESIAN Z    -0.056153     -0.159583  KCAL/ANGSTROM
     49         17  H    CARTESIAN X     2.334593      0.705526  KCAL/ANGSTROM
     50         17  H    CARTESIAN Y    -0.614230      3.724026  KCAL/ANGSTROM
     51         17  H    CARTESIAN Z    -1.150489     -0.792079  KCAL/ANGSTROM
     52         18  H    CARTESIAN X     2.565724      0.943140  KCAL/ANGSTROM
     53         18  H    CARTESIAN Y    -0.679955      2.456952  KCAL/ANGSTROM
     54         18  H    CARTESIAN Z     0.559402     -0.671862  KCAL/ANGSTROM
     55         19  H    CARTESIAN X     1.059305      0.160192  KCAL/ANGSTROM
     56         19  H    CARTESIAN Y     1.190224      0.797979  KCAL/ANGSTROM
     57         19  H    CARTESIAN Z     1.037912     -1.947009  KCAL/ANGSTROM
     58         20  H    CARTESIAN X    -0.292296     -0.070439  KCAL/ANGSTROM
     59         20  H    CARTESIAN Y     1.999494      1.937674  KCAL/ANGSTROM
     60         20  H    CARTESIAN Z    -1.310511     -0.461908  KCAL/ANGSTROM




   ATOM   CHEMICAL          X               Y               Z
  NUMBER   SYMBOL      (ANGSTROMS)     (ANGSTROMS)     (ANGSTROMS)

     1       C         -2.11730354  *   0.64883194  *   0.54874804  *
     2       C         -1.18348913  *   0.12895682  *  -0.55253430  *
     3       C         -0.69159184  *  -1.29972002  *  -0.21836735  *
     4       C          0.72082047  *  -1.52925045  *  -0.14445607  *
     5       C          1.73131637  *  -0.50560941  *  -0.18433926  *
     6       C          1.20956663  *   0.94295159  *  -0.06623593  *
     7       C          2.20028630  *   1.85465857  *  -0.61175552  *
     8       N          2.98190075  *   2.58352589  *  -1.04810893  *
     9       C         -0.09485275  *   1.10176648  *  -0.74071205  *
    10       H         -2.98190075  *  -0.00988223  *   0.70346323  *
    11       H         -2.53440143  *   1.63545086  *   0.28334998  *
    12       H         -1.60697094  *   0.77655210  *   1.51011355  *
    13       H         -1.78206244  *   0.06628578  *  -1.51011355  *
    14       H         -1.19331985  *  -2.03878880  *  -0.91753205  *
    15       H         -1.18826084  *  -1.65342864  *   0.74693088  *
    16       H          1.06896390  *  -2.58352589  *  -0.05615328  *
    17       H          2.33459269  *  -0.61423038  *  -1.15048940  *
    18       H          2.56572392  *  -0.67995474  *   0.55940219  *
    19       H          1.05930518  *   1.19022447  *   1.03791242  *
    20       H         -0.29229560  *   1.99949419  *  -1.31051138  *

                             CARTESIAN COORDINATES

   1    C       -2.117303542     0.648831944     0.548748037
   2    C       -1.183489128     0.128956824    -0.552534299
   3    C       -0.691591839    -1.299720017    -0.218367346
   4    C        0.720820466    -1.529250452    -0.144456068
   5    C        1.731316372    -0.505609409    -0.184339262
   6    C        1.209566634     0.942951588    -0.066235934
   7    C        2.200286302     1.854658568    -0.611755519
   8    N        2.981900753     2.583525891    -1.048108930
   9    C       -0.094852751     1.101766485    -0.740712052
  10    H       -2.981900753    -0.009882235     0.703463225
  11    H       -2.534401432     1.635450859     0.283349980
  12    H       -1.606970940     0.776552098     1.510113548
  13    H       -1.782062438     0.066285781    -1.510113548
  14    H       -1.193319846    -2.038788799    -0.917532048
  15    H       -1.188260844    -1.653428641     0.746930875
  16    H        1.068963903    -2.583525891    -0.056153282
  17    H        2.334592693    -0.614230380    -1.150489396
  18    H        2.565723921    -0.679954738     0.559402192
  19    H        1.059305183     1.190224471     1.037912421
  20    H       -0.292295599     1.999494190    -1.310511384


           Empirical Formula: C8 H11 N  =    20 atoms



      MOLECULAR POINT GROUP   :   C1  


          ALPHA EIGENVALUES  
 -35.81764 -31.77015 -28.52144 -27.87342 -24.44603 -22.96230 -21.51653 -19.44946
 -18.12288 -17.50973 -16.61644 -16.30757 -15.57626 -15.21924 -14.49703 -14.29816
 -14.29126 -13.83230 -13.54646 -13.28449 -12.73580 -12.38743 -12.11677  -9.67600
  -2.00259   0.49397   0.62123   1.99091   2.39113   2.71321   2.84187   2.90040
   3.40551   3.61964   3.96692   4.03134   4.24982   4.40928   4.58748   4.97490
   5.17436   5.22901   5.41514   5.51119   5.60480   5.71166   6.69895


           BETA EIGENVALUES 
 -35.82737 -31.71000 -28.48219 -27.78761 -24.40393 -22.80128 -21.44388 -19.39145
 -17.98735 -17.41619 -16.57055 -16.25154 -15.50093 -15.17249 -14.46859 -14.28515
 -14.16651 -13.80441 -13.37688 -13.21117 -12.61510 -12.30579 -12.05979  -2.00200
  -0.15478   0.51424   0.64222   2.00717   2.46527   2.72852   2.86186   2.93527
   3.59539   3.76855   3.99257   4.19778   4.27910   4.48380   4.65767   4.98087
   5.18397   5.24630   5.44081   5.53494   5.68041   5.84421   6.70606


              NET ATOMIC CHARGES AND DIPOLE CONTRIBUTIONS

  ATOM NO.   TYPE          CHARGE      No. of ELECS.   s-Pop       p-Pop       
    1          C          -0.452545        4.4525     1.05702     3.39553
    2          C          -0.072015        4.0720     1.05155     3.02046
    3          C          -0.422147        4.4221     1.07093     3.35121
    4          C           0.434858        3.5651     1.18787     2.37727
    5          C          -0.400287        4.4003     1.06794     3.33234
    6          C          -0.097688        4.0977     1.04258     3.05511
    7          C           0.191949        3.8081     1.12370     2.68435
    8          N          -0.344608        5.3446     1.82840     3.51621
    9          C          -0.200092        4.2001     1.11596     3.08413
   10          H           0.161869        0.8381     0.83813
   11          H           0.166364        0.8336     0.83364
   12          H           0.159029        0.8410     0.84097
   13          H           0.179754        0.8202     0.82025
   14          H           0.261238        0.7388     0.73876
   15          H           0.278583        0.7214     0.72142
   16          H           0.207294        0.7927     0.79271
   17          H           0.279523        0.7205     0.72048
   18          H           0.262840        0.7372     0.73716
   19          H           0.232311        0.7677     0.76769
   20          H           0.173771        0.8262     0.82623
 DIPOLE           X         Y         Z       TOTAL
 POINT-CHG.    -2.932   -11.186     2.572    11.847
 HYBRID        -0.018    -0.332     0.231     0.405
 SUM           -2.950   -11.518     2.803    12.216


          ATOMIC ORBITAL ELECTRON POPULATIONS

     Atom    s        px        py        pz   
    1  C   1.05702   1.11787   1.17813   1.09953
    2  C   1.05155   1.01495   0.91858   1.08693
    3  C   1.07093   1.02191   1.11885   1.21045
    4  C   1.18787   0.97551   1.07455   0.32721
    5  C   1.06794   1.10033   0.99867   1.23334
    6  C   1.04258   0.97326   0.94121   1.14064
    7  C   1.12370   0.90015   0.89929   0.88492
    8  N   1.82840   1.18184   1.17462   1.15974
    9  C   1.11596   0.95780   1.08328   1.04306
   10  H   0.83813
   11  H   0.83364
   12  H   0.84097
   13  H   0.82025
   14  H   0.73876
   15  H   0.72142
   16  H   0.79271
   17  H   0.72048
   18  H   0.73716
   19  H   0.76769
   20  H   0.82623


                    (SZ)    =    0.500000
                    (S**2)  =    0.753889


          ATOMIC ORBITAL SPIN POPULATIONS

    Atom   Total    s     px     py     pz   
         Atomic
    1  C  0.0458  0.009  0.016  0.002  0.019
    2  C -0.0499 -0.006 -0.023 -0.014 -0.007
    3  C  0.0075  0.001  0.001  0.005  0.000
    4  C -0.0000 -0.000 -0.001 -0.001  0.001
    5  C  0.0230  0.004  0.003  0.015  0.001
    6  C -0.0453 -0.006 -0.021 -0.008 -0.011
    7  C  0.0093  0.002  0.003  0.002  0.002
    8  N -0.0062 -0.000 -0.002 -0.001 -0.003
    9  C  1.0056  0.027  0.127  0.228  0.623
   10  H  0.0004  0.000
   11  H -0.0012 -0.001
   12  H -0.0015 -0.001
   13  H  0.0134  0.013
   14  H -0.0007 -0.001
   15  H -0.0005 -0.001
   16  H  0.0005  0.000
   17  H -0.0010 -0.001
   18  H -0.0004 -0.000
   19  H  0.0297  0.030
   20  H -0.0284 -0.028

 **********************
 *                    *
 * JOB ENDED NORMALLY *
 *                    *
 **********************



 TOTAL JOB TIME:             2.04 SECONDS

 == MOPAC DONE ==
