 *******************************************************************************
 **                                                                           **
 **                              MOPAC v23.2                                  **
 **                                                                           **
 *******************************************************************************
 **          Digital Object Identifier (DOI): 10.5281/zenodo.6511958          **
 **    Visit the DOI location for information on how to cite this program.    **
 *******************************************************************************

                              PM7 CALCULATION RESULTS

 *******************************************************************************
 *  CALCULATION DONE: (MAX THREADS = 40)             Fri Sep 19 21:36:36 2025  *
 *  PM7        - The PM7 Hamiltonian to be used
 *
 *
 *
 *                 CHARGE ON SYSTEM = +1
 *
 *
 *
 *  1SCF       - DO 1 SCF AND THEN STOP 
 *  T=         - A TIME OF 172800.0 SECONDS REQUESTED
 *  DUMP=N     - RESTART FILE WRITTEN EVERY 7200.0 SECONDS REQUESTED
 *  RELSCF     - DEFAULT SCF CRITERION MULTIPLIED BY 0.0001
 *              (DEFAULT SCF CRITERION = 0.00010)
 *  GRADIENTS  - ALL GRADIENTS TO BE PRINTED
 *  DISP       - PRINT DISPERSION AND HYDROGEN BOND ENERGIES
 *******************************************************************************
PM7 1SCF GRADIENTS DISP RELSCF=0.0001 CHARGE=1
 Title: ASE calculation

   ATOM   CHEMICAL          X               Y               Z
  NUMBER   SYMBOL      (ANGSTROMS)     (ANGSTROMS)     (ANGSTROMS)

     1       C          1.91281948  *   1.02739009  *  -0.70778916  *
     2       C          1.14130709  *   0.17267429  *   0.24487710  *
     3       C         -0.32001889  *   0.66895704  *   0.72143783  *
     4       C         -0.60079936  *  -0.88870831  *   1.09860270  *
     5       C         -1.96553617  *  -1.34843749  *   1.21153248  *
     6       C         -0.77765679  *   0.22403012  *  -0.63870808  *
     7       C         -1.68035863  *   0.64561963  *  -1.64934264  *
     8       C          0.13200306  *  -0.93728552  *  -0.35336360  *
     9       H          1.34161428  *   1.43066293  *  -1.54976018  *
    10       H          2.36736188  *   1.89571164  *  -0.19162546  *
    11       H          2.76681557  *   0.47318771  *  -1.14420416  *
    12       H          1.77470407  *  -0.20140649  *   1.07008064  *
    13       H         -0.55430729  *   1.52989935  *   1.30838070  *
    14       H          0.03645107  *  -1.26498226  *   1.92870689  *
    15       H         -2.69115163  *  -0.81434942  *   1.79394935  *
    16       H         -2.27472547  *  -2.29232411  *   0.80609005  *
    17       H         -2.11726340  *  -0.18573734  *  -2.25457378  *
    18       H         -2.52831507  *   1.27224327  *  -1.27955277  *
    19       H         -1.18957844  *   1.30051092  *  -2.42200494  *
    20       H          0.38398722  *  -1.80478087  *  -0.92299003  *



          CARTESIAN COORDINATES 

    NO.       ATOM           X           Y           Z

     1         C          1.9128      1.0274     -0.7078
     2         C          1.1413      0.1727      0.2449
     3         C         -0.3200      0.6690      0.7214
     4         C         -0.6008     -0.8887      1.0986
     5         C         -1.9655     -1.3484      1.2115
     6         C         -0.7777      0.2240     -0.6387
     7         C         -1.6804      0.6456     -1.6493
     8         C          0.1320     -0.9373     -0.3534
     9         H          1.3416      1.4307     -1.5498
    10         H          2.3674      1.8957     -0.1916
    11         H          2.7668      0.4732     -1.1442
    12         H          1.7747     -0.2014      1.0701
    13         H         -0.5543      1.5299      1.3084
    14         H          0.0365     -1.2650      1.9287
    15         H         -2.6912     -0.8143      1.7939
    16         H         -2.2747     -2.2923      0.8061
    17         H         -2.1173     -0.1857     -2.2546
    18         H         -2.5283      1.2722     -1.2796
    19         H         -1.1896      1.3005     -2.4220
    20         H          0.3840     -1.8048     -0.9230

 General Reference for PM7:
 "Optimization of Parameters for Semiempirical Methods VI: More Modifications to the 
 NDDO Approximations and Re-optimization of Parameters", J. J. P. Stewart, J. Mol. Mod., 1:32, 19 (2013)
 https://link.springer.com/article/10.1007/s00894-012-1667-x

           Empirical Formula: C8 H12  =    20 atoms



      MOLECULAR POINT GROUP   :   Cs  


          UHF CALCULATION, NO. OF ALPHA ELECTRONS =   22
                           NO. OF BETA  ELECTRONS =   21
  SCF CRITERION =    0.1000E-07

 -------------------------------------------------------------------------------
 PM7 1SCF GRADIENTS DISP RELSCF=0.0001 CHARGE=1
 Title: ASE calculation



     1SCF WAS SPECIFIED, SO BFGS WAS NOT USED                 
     SCF FIELD WAS ACHIEVED                                   


                              PM7 CALCULATION
                                                       MOPAC v23.2 Linux
                                                       Fri Sep 19 21:36:38 2025




          FINAL HEAT OF FORMATION =        283.32009 KCAL/MOL =    1185.41125 KJ/MOL

          TOTAL ENERGY            =     -26113.76534 KCAL/MOL = ELECTRONIC ENERGY + CORE-CORE REPULSION
          ENERGY OF ATOMS         =      26398.86351 KCAL/MOL
                              SUM =        285.09817 KCAL/MOL
          DISPERSION ENERGY       =         -1.77808 KCAL/MOL
                              SUM =        283.32009 KCAL/MOL = FINAL HEAT OF FORMATION



          TOTAL ENERGY            =      -1132.40004 EV
          ELECTRONIC ENERGY       =      -5897.67465 EV 
          CORE-CORE REPULSION     =       4765.27460 EV
          COSMO AREA              =        160.53 SQUARE ANGSTROMS
          COSMO VOLUME            =        159.07 CUBIC ANGSTROMS

          GRADIENT NORM           =          1.09993          =       0.24595 PER ATOM
          IONIZATION POTENTIAL    =         13.959025 EV
          ALPHA SOMO LUMO (EV)    =        -13.959 -6.289
          BETA  SOMO LUMO (EV)    =        -16.120 -6.280
          NO. OF ALPHA ELECTRONS  =         22
          NO. OF BETA  ELECTRONS  =         21
          MOLECULAR WEIGHT        =        108.1828         POINT GROUP:  Cs  

          MOLECULAR DIMENSIONS (Angstroms)

            Atom       Atom       Distance
            H    16    H    10     6.33120
            H    14    H    19     4.98118
            H    20    H    13     3.93679


          SCF CALCULATIONS        =          1

          WALL-CLOCK TIME         =      2.437 SECONDS
          COMPUTATION TIME        =      0.394 SECONDS

          LARGEST ATOMIC GRADIENTS

          Atom     Label                     Cartesian Gradients           Cartesian Coordinates       |Gradient|
                                           X          Y          Z        X          Y          Z

            17       H                  -0.042     -0.355      0.086   -2.11726   -0.18574   -2.25457      0.368
            18       H                  -0.149      0.019      0.335   -2.52832    1.27224   -1.27955      0.367
             4       C                  -0.320     -0.138      0.067   -0.60080   -0.88871    1.09860      0.355
            14       H                  -0.045      0.175     -0.282    0.03645   -1.26498    1.92871      0.335
            11       H                   0.301      0.094      0.111    2.76682    0.47319   -1.14420      0.334
            10       H                   0.328     -0.012      0.037    2.36736    1.89571   -0.19163      0.331
            16       H                   0.153      0.224     -0.082   -2.27473   -2.29232    0.80609      0.284
            15       H                   0.200      0.054     -0.182   -2.69115   -0.81435    1.79395      0.276
             7       C                  -0.180     -0.126      0.112   -1.68036    0.64562   -1.64934      0.246
             5       C                  -0.228     -0.021     -0.063   -1.96554   -1.34844    1.21153      0.238



       FINAL  POINT  AND  DERIVATIVES

   PARAMETER     ATOM    TYPE            VALUE        GRADIENT
      1          1  C    CARTESIAN X     1.912819      0.034845  KCAL/ANGSTROM
      2          1  C    CARTESIAN Y     1.027390     -0.004308  KCAL/ANGSTROM
      3          1  C    CARTESIAN Z    -0.707789      0.021898  KCAL/ANGSTROM
      4          2  C    CARTESIAN X     1.141307      0.054829  KCAL/ANGSTROM
      5          2  C    CARTESIAN Y     0.172674     -0.116511  KCAL/ANGSTROM
      6          2  C    CARTESIAN Z     0.244877      0.192649  KCAL/ANGSTROM
      7          3  C    CARTESIAN X    -0.320019     -0.000908  KCAL/ANGSTROM
      8          3  C    CARTESIAN Y     0.668957      0.086819  KCAL/ANGSTROM
      9          3  C    CARTESIAN Z     0.721438     -0.033858  KCAL/ANGSTROM
     10          4  C    CARTESIAN X    -0.600799     -0.320237  KCAL/ANGSTROM
     11          4  C    CARTESIAN Y    -0.888708     -0.137759  KCAL/ANGSTROM
     12          4  C    CARTESIAN Z     1.098603      0.067093  KCAL/ANGSTROM
     13          5  C    CARTESIAN X    -1.965536     -0.228243  KCAL/ANGSTROM
     14          5  C    CARTESIAN Y    -1.348437     -0.021115  KCAL/ANGSTROM
     15          5  C    CARTESIAN Z     1.211532     -0.063075  KCAL/ANGSTROM
     16          6  C    CARTESIAN X    -0.777657     -0.011482  KCAL/ANGSTROM
     17          6  C    CARTESIAN Y     0.224030     -0.001223  KCAL/ANGSTROM
     18          6  C    CARTESIAN Z    -0.638708      0.000218  KCAL/ANGSTROM
     19          7  C    CARTESIAN X    -1.680359     -0.179942  KCAL/ANGSTROM
     20          7  C    CARTESIAN Y     0.645620     -0.125555  KCAL/ANGSTROM
     21          7  C    CARTESIAN Z    -1.649343      0.112151  KCAL/ANGSTROM
     22          8  C    CARTESIAN X     0.132003      0.025065  KCAL/ANGSTROM
     23          8  C    CARTESIAN Y    -0.937286      0.002535  KCAL/ANGSTROM
     24          8  C    CARTESIAN Z    -0.353364     -0.087714  KCAL/ANGSTROM
     25          9  H    CARTESIAN X     1.341614     -0.088911  KCAL/ANGSTROM
     26          9  H    CARTESIAN Y     1.430663      0.042999  KCAL/ANGSTROM
     27          9  H    CARTESIAN Z    -1.549760     -0.105911  KCAL/ANGSTROM
     28         10  H    CARTESIAN X     2.367362      0.328207  KCAL/ANGSTROM
     29         10  H    CARTESIAN Y     1.895712     -0.012146  KCAL/ANGSTROM
     30         10  H    CARTESIAN Z    -0.191625      0.037168  KCAL/ANGSTROM
     31         11  H    CARTESIAN X     2.766816      0.300615  KCAL/ANGSTROM
     32         11  H    CARTESIAN Y     0.473188      0.094061  KCAL/ANGSTROM
     33         11  H    CARTESIAN Z    -1.144204      0.111000  KCAL/ANGSTROM
     34         12  H    CARTESIAN X     1.774704     -0.145536  KCAL/ANGSTROM
     35         12  H    CARTESIAN Y    -0.201406     -0.009109  KCAL/ANGSTROM
     36         12  H    CARTESIAN Z     1.070081     -0.049565  KCAL/ANGSTROM
     37         13  H    CARTESIAN X    -0.554307      0.036715  KCAL/ANGSTROM
     38         13  H    CARTESIAN Y     1.529899      0.184342  KCAL/ANGSTROM
     39         13  H    CARTESIAN Z     1.308381      0.086740  KCAL/ANGSTROM
     40         14  H    CARTESIAN X     0.036451     -0.045370  KCAL/ANGSTROM
     41         14  H    CARTESIAN Y    -1.264982      0.174772  KCAL/ANGSTROM
     42         14  H    CARTESIAN Z     1.928707     -0.282223  KCAL/ANGSTROM
     43         15  H    CARTESIAN X    -2.691152      0.200343  KCAL/ANGSTROM
     44         15  H    CARTESIAN Y    -0.814349      0.054146  KCAL/ANGSTROM
     45         15  H    CARTESIAN Z     1.793949     -0.182403  KCAL/ANGSTROM
     46         16  H    CARTESIAN X    -2.274725      0.153158  KCAL/ANGSTROM
     47         16  H    CARTESIAN Y    -2.292324      0.223955  KCAL/ANGSTROM
     48         16  H    CARTESIAN Z     0.806090     -0.082331  KCAL/ANGSTROM
     49         17  H    CARTESIAN X    -2.117263     -0.042192  KCAL/ANGSTROM
     50         17  H    CARTESIAN Y    -0.185737     -0.355329  KCAL/ANGSTROM
     51         17  H    CARTESIAN Z    -2.254574      0.085691  KCAL/ANGSTROM
     52         18  H    CARTESIAN X    -2.528315     -0.149131  KCAL/ANGSTROM
     53         18  H    CARTESIAN Y     1.272243      0.019098  KCAL/ANGSTROM
     54         18  H    CARTESIAN Z    -1.279553      0.335128  KCAL/ANGSTROM
     55         19  H    CARTESIAN X    -1.189578     -0.042303  KCAL/ANGSTROM
     56         19  H    CARTESIAN Y     1.300511      0.018113  KCAL/ANGSTROM
     57         19  H    CARTESIAN Z    -2.422005     -0.044847  KCAL/ANGSTROM
     58         20  H    CARTESIAN X     0.383987      0.120471  KCAL/ANGSTROM
     59         20  H    CARTESIAN Y    -1.804781     -0.117789  KCAL/ANGSTROM
     60         20  H    CARTESIAN Z    -0.922990     -0.117812  KCAL/ANGSTROM




   ATOM   CHEMICAL          X               Y               Z
  NUMBER   SYMBOL      (ANGSTROMS)     (ANGSTROMS)     (ANGSTROMS)

     1       C          1.91281948  *   1.02739009  *  -0.70778916  *
     2       C          1.14130709  *   0.17267429  *   0.24487710  *
     3       C         -0.32001889  *   0.66895704  *   0.72143783  *
     4       C         -0.60079936  *  -0.88870831  *   1.09860270  *
     5       C         -1.96553617  *  -1.34843749  *   1.21153248  *
     6       C         -0.77765679  *   0.22403012  *  -0.63870808  *
     7       C         -1.68035863  *   0.64561963  *  -1.64934264  *
     8       C          0.13200306  *  -0.93728552  *  -0.35336360  *
     9       H          1.34161428  *   1.43066293  *  -1.54976018  *
    10       H          2.36736188  *   1.89571164  *  -0.19162546  *
    11       H          2.76681557  *   0.47318771  *  -1.14420416  *
    12       H          1.77470407  *  -0.20140649  *   1.07008064  *
    13       H         -0.55430729  *   1.52989935  *   1.30838070  *
    14       H          0.03645107  *  -1.26498226  *   1.92870689  *
    15       H         -2.69115163  *  -0.81434942  *   1.79394935  *
    16       H         -2.27472547  *  -2.29232411  *   0.80609005  *
    17       H         -2.11726340  *  -0.18573734  *  -2.25457378  *
    18       H         -2.52831507  *   1.27224327  *  -1.27955277  *
    19       H         -1.18957844  *   1.30051092  *  -2.42200494  *
    20       H          0.38398722  *  -1.80478087  *  -0.92299003  *

                             CARTESIAN COORDINATES

   1    C        1.912819477     1.027390086    -0.707789159
   2    C        1.141307087     0.172674285     0.244877098
   3    C       -0.320018887     0.668957040     0.721437828
   4    C       -0.600799355    -0.888708311     1.098602701
   5    C       -1.965536173    -1.348437486     1.211532478
   6    C       -0.777656786     0.224030119    -0.638708078
   7    C       -1.680358629     0.645619627    -1.649342636
   8    C        0.132003057    -0.937285521    -0.353363605
   9    H        1.341614280     1.430662930    -1.549760179
  10    H        2.367361884     1.895711645    -0.191625464
  11    H        2.766815567     0.473187707    -1.144204160
  12    H        1.774704070    -0.201406486     1.070080644
  13    H       -0.554307287     1.529899352     1.308380704
  14    H        0.036451074    -1.264982259     1.928706894
  15    H       -2.691151625    -0.814349420     1.793949347
  16    H       -2.274725467    -2.292324107     0.806090051
  17    H       -2.117263401    -0.185737342    -2.254573782
  18    H       -2.528315069     1.272243266    -1.279552769
  19    H       -1.189578437     1.300510918    -2.422004937
  20    H        0.383987219    -1.804780871    -0.922990028


           Empirical Formula: C8 H12  =    20 atoms



      MOLECULAR POINT GROUP   :   Cs  


          ALPHA EIGENVALUES  
 -38.74739 -32.15844 -31.12998 -28.96471 -27.10187 -26.04485 -23.96528 -22.43249
 -21.77850 -20.82398 -20.45364 -19.64093 -19.58923 -19.00467 -18.61776 -18.00566
 -17.53164 -17.09491 -16.59810 -16.47046 -16.14917 -13.95902  -6.28933  -2.95848
  -2.73124  -2.72929  -2.35200  -2.27938  -1.75864  -0.80847  -0.39749  -0.18745
  -0.16364   0.15138   0.84822   1.03857   1.13389   1.21705   1.23539   1.46504
   1.50398   1.88928   2.17347   2.68574


           BETA EIGENVALUES 
 -38.72878 -32.15168 -31.04437 -28.77050 -27.09321 -25.99139 -23.79558 -22.41172
 -21.75653 -20.71581 -20.44700 -19.53348 -19.43752 -18.97703 -18.56709 -17.83876
 -17.52576 -17.00995 -16.56972 -16.40975 -16.12027  -6.28031  -4.12157  -2.95006
  -2.72321  -2.69452  -2.27511  -2.25352  -1.72317  -0.76731  -0.35414  -0.18367
   0.10439   0.15189   0.90649   1.07470   1.13892   1.21979   1.23616   1.46615
   1.50392   2.05975   2.43029   2.68576


              NET ATOMIC CHARGES AND DIPOLE CONTRIBUTIONS

  ATOM NO.   TYPE          CHARGE      No. of ELECS.   s-Pop       p-Pop       
    1          C          -0.486535        4.4865     1.05159     3.43495
    2          C          -0.030794        4.0308     1.09601     2.93478
    3          C          -0.233849        4.2338     1.13240     3.10145
    4          C          -0.068290        4.0683     1.08973     2.97856
    5          C          -0.323900        4.3239     1.12926     3.19464
    6          C           0.452121        3.5479     1.20220     2.34568
    7          C          -0.548429        4.5484     1.05334     3.49509
    8          C          -0.233917        4.2339     1.13240     3.10152
    9          H           0.153476        0.8465     0.84652
   10          H           0.196649        0.8034     0.80335
   11          H           0.196618        0.8034     0.80338
   12          H           0.192187        0.8078     0.80781
   13          H           0.208934        0.7911     0.79107
   14          H           0.218396        0.7816     0.78160
   15          H           0.180311        0.8197     0.81969
   16          H           0.180301        0.8197     0.81970
   17          H           0.237602        0.7624     0.76240
   18          H           0.237632        0.7624     0.76237
   19          H           0.262576        0.7374     0.73742
   20          H           0.208912        0.7911     0.79109
 DIPOLE           X         Y         Z       TOTAL
 POINT-CHG.    -0.924     0.916    -1.759     2.188
 HYBRID        -0.280     0.150    -0.343     0.468
 SUM           -1.204     1.067    -2.102     2.647


          ATOMIC ORBITAL ELECTRON POPULATIONS

     Atom    s        px        py        pz   
    1  C   1.05159   1.16044   1.15409   1.12042
    2  C   1.09601   0.91528   0.96141   1.05809
    3  C   1.13240   1.03435   1.07782   0.98928
    4  C   1.08973   1.05556   0.93697   0.98603
    5  C   1.12926   1.00186   1.12507   1.06771
    6  C   1.20220   0.64336   0.84699   0.85533
    7  C   1.05334   1.14446   1.22762   1.12301
    8  C   1.13240   1.00730   1.05224   1.04198
    9  H   0.84652
   10  H   0.80335
   11  H   0.80338
   12  H   0.80781
   13  H   0.79107
   14  H   0.78160
   15  H   0.81969
   16  H   0.81970
   17  H   0.76240
   18  H   0.76237
   19  H   0.73742
   20  H   0.79109


                    (SZ)    =    0.500000
                    (S**2)  =    0.753387


          ATOMIC ORBITAL SPIN POPULATIONS

    Atom   Total    s     px     py     pz   
         Atomic
    1  C  0.0003  0.000  0.000  0.000  0.000
    2  C -0.0035 -0.001 -0.002 -0.001 -0.000
    3  C  0.0219  0.003  0.002  0.012  0.005
    4  C -0.0565 -0.007 -0.020 -0.013 -0.015
    5  C  1.0378  0.026  0.099  0.243  0.670
    6  C  0.0039 -0.001  0.004  0.001 -0.000
    7  C  0.0005  0.000  0.000 -0.000 -0.000
    8  C  0.0220  0.003  0.004  0.002  0.013
    9  H -0.0000 -0.000
   10  H -0.0001 -0.000
   11  H -0.0001 -0.000
   12  H  0.0003  0.000
   13  H -0.0004 -0.000
   14  H  0.0311  0.031
   15  H -0.0285 -0.029
   16  H -0.0285 -0.029
   17  H  0.0001  0.000
   18  H  0.0001  0.000
   19  H  0.0001  0.000
   20  H -0.0004 -0.000

 **********************
 *                    *
 * JOB ENDED NORMALLY *
 *                    *
 **********************



 TOTAL JOB TIME:             2.88 SECONDS

 == MOPAC DONE ==
