 *******************************************************************************
 **                                                                           **
 **                              MOPAC v23.2                                  **
 **                                                                           **
 *******************************************************************************
 **          Digital Object Identifier (DOI): 10.5281/zenodo.6511958          **
 **    Visit the DOI location for information on how to cite this program.    **
 *******************************************************************************

                              PM7 CALCULATION RESULTS

 *******************************************************************************
 *  CALCULATION DONE: (MAX THREADS = 40)             Fri Sep 19 21:39:27 2025  *
 *  PM7        - The PM7 Hamiltonian to be used
 *  EPS=37.5   - USE ANDREAS KLAMT'S COSMO IMPLICIT SOLVATION MODEL
 *  1SCF       - DO 1 SCF AND THEN STOP 
 *  T=         - A TIME OF 172800.0 SECONDS REQUESTED
 *  DUMP=N     - RESTART FILE WRITTEN EVERY 7200.0 SECONDS REQUESTED
 *  RELSCF     - DEFAULT SCF CRITERION MULTIPLIED BY 0.0001
 *              (DEFAULT SCF CRITERION = 0.00010)
 *  GRADIENTS  - ALL GRADIENTS TO BE PRINTED
 *  DISP       - PRINT DISPERSION AND HYDROGEN BOND ENERGIES
 *******************************************************************************
PM7 1SCF GRADIENTS EPS=37.5 DISP RELSCF=0.0001
 Title: ASE calculation

   ATOM   CHEMICAL          X               Y               Z
  NUMBER   SYMBOL      (ANGSTROMS)     (ANGSTROMS)     (ANGSTROMS)

     1       N         -1.04149124  *  -0.84304921  *   1.45772953  *
     2       C         -0.72277081  *  -0.30038437  *   0.22086564  *
     3       N         -1.46834094  *  -0.51809751  *  -0.93559273  *
     4       N         -0.97301003  *   0.22746062  *  -1.97125285  *
     5       C          0.10635723  *   0.88594297  *  -1.50370872  *
     6       C          0.31232063  *   0.59127564  *  -0.12040606  *
     7       C          1.35088767  *   1.08046044  *   0.80079891  *
     8       O          1.89986415  *  -0.00033384  *   1.54621496  *
     9       H         -1.51139516  *  -1.72881751  *   1.47339694  *
    10       H         -0.28325886  *  -0.77383094  *   2.13190691  *
    11       H         -2.33362013  *  -0.99983608  *  -1.05717285  *
    12       H          0.69068532  *   1.53459647  *  -2.13190691  *
    13       H          0.93698012  *   1.72881751  *   1.60340757  *
    14       H          2.16952678  *   1.61789893  *   0.28697827  *
    15       H          2.33362013  *  -0.63879334  *   0.94713133  *



          CARTESIAN COORDINATES 

    NO.       ATOM           X           Y           Z

     1         N         -1.0415     -0.8430      1.4577
     2         C         -0.7228     -0.3004      0.2209
     3         N         -1.4683     -0.5181     -0.9356
     4         N         -0.9730      0.2275     -1.9713
     5         C          0.1064      0.8859     -1.5037
     6         C          0.3123      0.5913     -0.1204
     7         C          1.3509      1.0805      0.8008
     8         O          1.8999     -0.0003      1.5462
     9         H         -1.5114     -1.7288      1.4734
    10         H         -0.2833     -0.7738      2.1319
    11         H         -2.3336     -0.9998     -1.0572
    12         H          0.6907      1.5346     -2.1319
    13         H          0.9370      1.7288      1.6034
    14         H          2.1695      1.6179      0.2870
    15         H          2.3336     -0.6388      0.9471

 General Reference for PM7:
 "Optimization of Parameters for Semiempirical Methods VI: More Modifications to the 
 NDDO Approximations and Re-optimization of Parameters", J. J. P. Stewart, J. Mol. Mod., 1:32, 19 (2013)
 https://link.springer.com/article/10.1007/s00894-012-1667-x

           Empirical Formula: C4 H7 N3 O  =    15 atoms



      MOLECULAR POINT GROUP   :   C1  


      RHF CALCULATION, NO. OF DOUBLY OCCUPIED LEVELS = 22

  SCF CRITERION =    0.1000E-07

 -------------------------------------------------------------------------------
 PM7 1SCF GRADIENTS EPS=37.5 DISP RELSCF=0.0001
 Title: ASE calculation



     1SCF WAS SPECIFIED, SO BFGS WAS NOT USED                 
     SCF FIELD WAS ACHIEVED                                   


                              PM7 CALCULATION
                                                       MOPAC v23.2 Linux
                                                       Fri Sep 19 21:39:27 2025




          FINAL HEAT OF FORMATION =        -17.83579 KCAL/MOL =     -74.62496 KJ/MOL

          TOTAL ENERGY            =     -33198.91995 KCAL/MOL = ELECTRONIC ENERGY + CORE-CORE REPULSION + SOLVATION ENERGY
          ENERGY OF ATOMS         =      33183.33343 KCAL/MOL
                              SUM =        -15.58651 KCAL/MOL
          DISPERSION ENERGY       =         -1.51996 KCAL/MOL
          H-BOND ENERGY           =         -0.72932 KCAL/MOL
                              SUM =        -17.83579 KCAL/MOL = FINAL HEAT OF FORMATION

          VAN DER WAALS AREA      =        141.42 SQUARE ANGSTROMS


          TOTAL ENERGY            =      -1439.64143 EV
          ELECTRONIC ENERGY       =      -1898.65587 EV 
          CORE-CORE REPULSION     =        459.01444 EV

          DIELECTRIC ENERGY       =         -0.73880 EV
          COSMO AREA              =        141.42 SQUARE ANGSTROMS
          COSMO VOLUME            =        133.21 CUBIC ANGSTROMS

          GRADIENT NORM           =         23.92569          =       6.17759 PER ATOM
          IONIZATION POTENTIAL    =          9.045925 EV
          HOMO LUMO ENERGIES (EV) =         -9.046  0.393
          NO. OF FILLED LEVELS    =         22
          MOLECULAR WEIGHT        =        113.1188         POINT GROUP:  C1  

          MOLECULAR DIMENSIONS (Angstroms)

            Atom       Atom       Distance
            H    14    H    11     5.37937
            H    12    H    10     4.86775
            H    15    H    13     2.81188


          SCF CALCULATIONS        =          2

          WALL-CLOCK TIME         =      0.789 SECONDS
          COMPUTATION TIME        =      0.630 SECONDS

          LARGEST ATOMIC GRADIENTS

          Atom     Label                     Cartesian Gradients           Cartesian Coordinates       |Gradient|
                                           X          Y          Z        X          Y          Z

             1       N                   0.757    -11.362      5.765   -1.04149   -0.84305    1.45773     12.763
             5       C                  -5.295     -1.767     -6.952    0.10636    0.88594   -1.50371      8.916
             2       C                   4.626      7.142     -1.440   -0.72277   -0.30038    0.22087      8.631
             6       C                  -2.000     -4.957      5.919    0.31232    0.59128   -0.12041      7.976
            11       H                   5.899      5.201     -0.504   -2.33362   -0.99984   -1.05717      7.881
             9       H                   2.123      5.892      0.133   -1.51140   -1.72882    1.47340      6.264
             3       N                  -3.748     -1.631     -3.423   -1.46834   -0.51810   -0.93559      5.332
            15       H                  -1.353      3.811      1.741    2.33362   -0.63879    0.94713      4.403
             8       O                   0.071     -3.470     -0.675    1.89986   -0.00033    1.54621      3.536
            10       H                  -2.015      2.641     -1.098   -0.28326   -0.77383    2.13191      3.499



       FINAL  POINT  AND  DERIVATIVES

   PARAMETER     ATOM    TYPE            VALUE        GRADIENT
      1          1  N    CARTESIAN X    -1.041491      0.757362  KCAL/ANGSTROM
      2          1  N    CARTESIAN Y    -0.843049    -11.361650  KCAL/ANGSTROM
      3          1  N    CARTESIAN Z     1.457730      5.764583  KCAL/ANGSTROM
      4          2  C    CARTESIAN X    -0.722771      4.626401  KCAL/ANGSTROM
      5          2  C    CARTESIAN Y    -0.300384      7.142203  KCAL/ANGSTROM
      6          2  C    CARTESIAN Z     0.220866     -1.439693  KCAL/ANGSTROM
      7          3  N    CARTESIAN X    -1.468341     -3.748309  KCAL/ANGSTROM
      8          3  N    CARTESIAN Y    -0.518098     -1.630627  KCAL/ANGSTROM
      9          3  N    CARTESIAN Z    -0.935593     -3.423413  KCAL/ANGSTROM
     10          4  N    CARTESIAN X    -0.973010      2.460942  KCAL/ANGSTROM
     11          4  N    CARTESIAN Y     0.227461      1.231792  KCAL/ANGSTROM
     12          4  N    CARTESIAN Z    -1.971253      0.051395  KCAL/ANGSTROM
     13          5  C    CARTESIAN X     0.106357     -5.295383  KCAL/ANGSTROM
     14          5  C    CARTESIAN Y     0.885943     -1.766984  KCAL/ANGSTROM
     15          5  C    CARTESIAN Z    -1.503709     -6.952084  KCAL/ANGSTROM
     16          6  C    CARTESIAN X     0.312321     -2.000272  KCAL/ANGSTROM
     17          6  C    CARTESIAN Y     0.591276     -4.957164  KCAL/ANGSTROM
     18          6  C    CARTESIAN Z    -0.120406      5.919106  KCAL/ANGSTROM
     19          7  C    CARTESIAN X     1.350888      1.097214  KCAL/ANGSTROM
     20          7  C    CARTESIAN Y     1.080460     -0.503635  KCAL/ANGSTROM
     21          7  C    CARTESIAN Z     0.800799     -0.996344  KCAL/ANGSTROM
     22          8  O    CARTESIAN X     1.899864      0.070923  KCAL/ANGSTROM
     23          8  O    CARTESIAN Y    -0.000334     -3.470295  KCAL/ANGSTROM
     24          8  O    CARTESIAN Z     1.546215     -0.675316  KCAL/ANGSTROM
     25          9  H    CARTESIAN X    -1.511395      2.122667  KCAL/ANGSTROM
     26          9  H    CARTESIAN Y    -1.728818      5.892132  KCAL/ANGSTROM
     27          9  H    CARTESIAN Z     1.473397      0.132631  KCAL/ANGSTROM
     28         10  H    CARTESIAN X    -0.283259     -2.014729  KCAL/ANGSTROM
     29         10  H    CARTESIAN Y    -0.773831      2.641406  KCAL/ANGSTROM
     30         10  H    CARTESIAN Z     2.131907     -1.098096  KCAL/ANGSTROM
     31         11  H    CARTESIAN X    -2.333620      5.898935  KCAL/ANGSTROM
     32         11  H    CARTESIAN Y    -0.999836      5.201454  KCAL/ANGSTROM
     33         11  H    CARTESIAN Z    -1.057173     -0.504413  KCAL/ANGSTROM
     34         12  H    CARTESIAN X     0.690685     -1.875983  KCAL/ANGSTROM
     35         12  H    CARTESIAN Y     1.534596     -1.321468  KCAL/ANGSTROM
     36         12  H    CARTESIAN Z    -2.131907      0.680350  KCAL/ANGSTROM
     37         13  H    CARTESIAN X     0.936980      0.137463  KCAL/ANGSTROM
     38         13  H    CARTESIAN Y     1.728818     -1.005362  KCAL/ANGSTROM
     39         13  H    CARTESIAN Z     1.603408      0.127284  KCAL/ANGSTROM
     40         14  H    CARTESIAN X     2.169527     -0.884382  KCAL/ANGSTROM
     41         14  H    CARTESIAN Y     1.617899      0.096801  KCAL/ANGSTROM
     42         14  H    CARTESIAN Z     0.286978      0.673179  KCAL/ANGSTROM
     43         15  H    CARTESIAN X     2.333620     -1.352819  KCAL/ANGSTROM
     44         15  H    CARTESIAN Y    -0.638793      3.811421  KCAL/ANGSTROM
     45         15  H    CARTESIAN Z     0.947131      1.740794  KCAL/ANGSTROM




   ATOM   CHEMICAL          X               Y               Z
  NUMBER   SYMBOL      (ANGSTROMS)     (ANGSTROMS)     (ANGSTROMS)

     1       N         -1.04149124  *  -0.84304921  *   1.45772953  *
     2       C         -0.72277081  *  -0.30038437  *   0.22086564  *
     3       N         -1.46834094  *  -0.51809751  *  -0.93559273  *
     4       N         -0.97301003  *   0.22746062  *  -1.97125285  *
     5       C          0.10635723  *   0.88594297  *  -1.50370872  *
     6       C          0.31232063  *   0.59127564  *  -0.12040606  *
     7       C          1.35088767  *   1.08046044  *   0.80079891  *
     8       O          1.89986415  *  -0.00033384  *   1.54621496  *
     9       H         -1.51139516  *  -1.72881751  *   1.47339694  *
    10       H         -0.28325886  *  -0.77383094  *   2.13190691  *
    11       H         -2.33362013  *  -0.99983608  *  -1.05717285  *
    12       H          0.69068532  *   1.53459647  *  -2.13190691  *
    13       H          0.93698012  *   1.72881751  *   1.60340757  *
    14       H          2.16952678  *   1.61789893  *   0.28697827  *
    15       H          2.33362013  *  -0.63879334  *   0.94713133  *

                             CARTESIAN COORDINATES

   1    N       -1.041491238    -0.843049206     1.457729526
   2    C       -0.722770812    -0.300384366     0.220865639
   3    N       -1.468340941    -0.518097514    -0.935592729
   4    N       -0.973010026     0.227460616    -1.971252848
   5    C        0.106357232     0.885942972    -1.503708724
   6    C        0.312320632     0.591275643    -0.120406058
   7    C        1.350887666     1.080460441     0.800798906
   8    O        1.899864146    -0.000333841     1.546214960
   9    H       -1.511395164    -1.728817507     1.473396935
  10    H       -0.283258862    -0.773830936     2.131906911
  11    H       -2.333620128    -0.999836076    -1.057172849
  12    H        0.690685316     1.534596467    -2.131906911
  13    H        0.936980115     1.728817507     1.603407570
  14    H        2.169526785     1.617898926     0.286978272
  15    H        2.333620128    -0.638793343     0.947131327


           Empirical Formula: C4 H7 N3 O  =    15 atoms



      MOLECULAR POINT GROUP   :   C1  


                  EIGENVALUES  
 -40.25953 -36.66484 -30.75082 -29.55357 -27.15878 -24.11885 -21.70496 -20.20428
 -18.87136 -17.57736 -16.31203 -16.18826 -15.89086 -14.95516 -14.75984 -13.97898
 -12.82287 -12.24428 -11.77230 -11.21018 -10.15876  -9.04593   0.39283   0.78589
   1.39876   2.65775   2.87047   3.35246   3.71603   4.59188   4.84783   5.14752
   5.40021   5.73398   5.75219   5.81815   6.17809   6.31924   6.81190


              NET ATOMIC CHARGES AND DIPOLE CONTRIBUTIONS

  ATOM NO.   TYPE          CHARGE      No. of ELECS.   s-Pop       p-Pop       
    1          N          -0.609316        5.6093     1.57593     4.03339
    2          C           0.301225        3.6988     1.05894     2.63983
    3          N          -0.264302        5.2643     1.52755     3.73676
    4          N          -0.360555        5.3606     1.79188     3.56868
    5          C          -0.010984        4.0110     1.09961     2.91138
    6          C          -0.343388        4.3434     1.05596     3.28743
    7          C           0.055754        3.9442     1.07043     2.87381
    8          O          -0.624133        6.6241     1.84731     4.77682
    9          H           0.320225        0.6798     0.67978
   10          H           0.329059        0.6709     0.67094
   11          H           0.367670        0.6323     0.63233
   12          H           0.193809        0.8062     0.80619
   13          H           0.151659        0.8483     0.84834
   14          H           0.138784        0.8612     0.86122
   15          H           0.354494        0.6455     0.64551
 DIPOLE           X         Y         Z       TOTAL
 POINT-CHG.    -0.451    -1.404     1.268     1.945
 HYBRID         0.234    -1.280     0.467     1.382
 SUM           -0.218    -2.684     1.735     3.204


          ATOMIC ORBITAL ELECTRON POPULATIONS

     Atom    s        px        py        pz   
    1  N   1.57593   1.45287   1.41801   1.16250
    2  C   1.05894   0.90629   0.95591   0.77763
    3  N   1.52755   1.28239   1.38303   1.07134
    4  N   1.79188   1.22311   1.18349   1.16208
    5  C   1.09961   0.94306   0.99043   0.97789
    6  C   1.05596   1.09016   1.18737   1.00990
    7  C   1.07043   0.99999   0.87398   0.99985
    8  O   1.84731   1.81171   1.48293   1.48218
    9  H   0.67978
   10  H   0.67094
   11  H   0.63233
   12  H   0.80619
   13  H   0.84834
   14  H   0.86122
   15  H   0.64551

 **********************
 *                    *
 * JOB ENDED NORMALLY *
 *                    *
 **********************



 TOTAL JOB TIME:             1.37 SECONDS

 == MOPAC DONE ==
