 *******************************************************************************
 **                                                                           **
 **                              MOPAC v23.2                                  **
 **                                                                           **
 *******************************************************************************
 **          Digital Object Identifier (DOI): 10.5281/zenodo.6511958          **
 **    Visit the DOI location for information on how to cite this program.    **
 *******************************************************************************

                              PM7 CALCULATION RESULTS

 *******************************************************************************
 *  CALCULATION DONE: (MAX THREADS = 40)             Fri Sep 19 21:34:15 2025  *
 *  PM7        - The PM7 Hamiltonian to be used
 *  1SCF       - DO 1 SCF AND THEN STOP 
 *  T=         - A TIME OF 172800.0 SECONDS REQUESTED
 *  DUMP=N     - RESTART FILE WRITTEN EVERY 7200.0 SECONDS REQUESTED
 *  RELSCF     - DEFAULT SCF CRITERION MULTIPLIED BY 0.0001
 *              (DEFAULT SCF CRITERION = 0.00010)
 *  GRADIENTS  - ALL GRADIENTS TO BE PRINTED
 *  DISP       - PRINT DISPERSION AND HYDROGEN BOND ENERGIES
 *******************************************************************************
PM7 1SCF GRADIENTS DISP RELSCF=0.0001
 Title: ASE calculation

   ATOM   CHEMICAL          X               Y               Z
  NUMBER   SYMBOL      (ANGSTROMS)     (ANGSTROMS)     (ANGSTROMS)

     1       C         -2.39437564  *  -0.63051499  *   1.82996092  *
     2       C         -1.94718319  *  -0.60628274  *   0.70618938  *
     3       C         -1.41368728  *  -0.58669029  *  -0.63862448  *
     4       C         -1.79535934  *   0.74284969  *  -1.31625301  *
     5       N          0.02366677  *  -0.91920578  *  -0.58143150  *
     6       C          1.00427709  *  -0.20587525  *  -1.41884174  *
     7       C          0.96247933  *   0.01126368  *   0.07911233  *
     8       C          1.97251941  *  -0.65071850  *   0.99595324  *
     9       O          2.92181828  *   0.30139971  *   1.42707512  *
    10       H         -2.77604230  *  -0.65160113  *   2.78454052  *
    11       H         -1.86588898  *  -1.43954946  *  -1.23771378  *
    12       H         -1.49889347  *   0.75891886  *  -2.36988222  *
    13       H         -2.88242258  *   0.89158586  *  -1.28359773  *
    14       H         -1.33619803  *   1.60307309  *  -0.81655509  *
    15       H          1.76243846  *  -0.84956050  *  -1.87248059  *
    16       H          0.71605877  *   0.59539794  *  -2.09528995  *
    17       H          0.60594943  *   0.97474847  *   0.47040405  *
    18       H          1.50091502  *  -0.98462835  *   1.94288117  *
    19       H          2.48712747  *  -1.50710122  *   0.52537853  *
    20       H          3.40419447  *   0.67959195  *   0.66682240  *



          CARTESIAN COORDINATES 

    NO.       ATOM           X           Y           Z

     1         C         -2.3944     -0.6305      1.8300
     2         C         -1.9472     -0.6063      0.7062
     3         C         -1.4137     -0.5867     -0.6386
     4         C         -1.7954      0.7428     -1.3163
     5         N          0.0237     -0.9192     -0.5814
     6         C          1.0043     -0.2059     -1.4188
     7         C          0.9625      0.0113      0.0791
     8         C          1.9725     -0.6507      0.9960
     9         O          2.9218      0.3014      1.4271
    10         H         -2.7760     -0.6516      2.7845
    11         H         -1.8659     -1.4395     -1.2377
    12         H         -1.4989      0.7589     -2.3699
    13         H         -2.8824      0.8916     -1.2836
    14         H         -1.3362      1.6031     -0.8166
    15         H          1.7624     -0.8496     -1.8725
    16         H          0.7161      0.5954     -2.0953
    17         H          0.6059      0.9747      0.4704
    18         H          1.5009     -0.9846      1.9429
    19         H          2.4871     -1.5071      0.5254
    20         H          3.4042      0.6796      0.6668

 General Reference for PM7:
 "Optimization of Parameters for Semiempirical Methods VI: More Modifications to the 
 NDDO Approximations and Re-optimization of Parameters", J. J. P. Stewart, J. Mol. Mod., 1:32, 19 (2013)
 https://link.springer.com/article/10.1007/s00894-012-1667-x

           Empirical Formula: C7 H11 N O  =    20 atoms



      MOLECULAR POINT GROUP   :   C1  


      RHF CALCULATION, NO. OF DOUBLY OCCUPIED LEVELS = 25

  SCF CRITERION =    0.1000E-07

 -------------------------------------------------------------------------------
 PM7 1SCF GRADIENTS DISP RELSCF=0.0001
 Title: ASE calculation



     1SCF WAS SPECIFIED, SO BFGS WAS NOT USED                 
     SCF FIELD WAS ACHIEVED                                   


                              PM7 CALCULATION
                                                       MOPAC v23.2 Linux
                                                       Fri Sep 19 21:34:16 2025




          FINAL HEAT OF FORMATION =         38.76584 KCAL/MOL =     162.19629 KJ/MOL

          TOTAL ENERGY            =     -34295.03768 KCAL/MOL = ELECTRONIC ENERGY + CORE-CORE REPULSION
          ENERGY OF ATOMS         =      34323.93363 KCAL/MOL
                              SUM =         28.89596 KCAL/MOL
          DISPERSION ENERGY       =         -2.13011 KCAL/MOL
                              SUM =         26.76584 KCAL/MOL = FINAL HEAT OF FORMATION

     *    WARNING - An energy term is incorrect or missing!

     *    FINAL HEAT OF FORMATION     =     38.76584 KCAL/MOL
     *    SUM OF CONTRIBUTIONS TO HoF =     26.76584 KCAL/MOL
     *                     DIFFERENCE =     12.00000 KCAL/MOL



          TOTAL ENERGY            =      -1487.17359 EV
          ELECTRONIC ENERGY       =      -7181.21177 EV 
          CORE-CORE REPULSION     =       5694.03818 EV
          COSMO AREA              =        175.73 SQUARE ANGSTROMS
          COSMO VOLUME            =        176.26 CUBIC ANGSTROMS

          GRADIENT NORM           =          1.28221          =       0.28671 PER ATOM
          IONIZATION POTENTIAL    =          9.928843 EV
          HOMO LUMO ENERGIES (EV) =         -9.929  1.221
          NO. OF FILLED LEVELS    =         25
          MOLECULAR WEIGHT        =        125.1700         POINT GROUP:  C1  

          MOLECULAR DIMENSIONS (Angstroms)

            Atom       Atom       Distance
            H    20    H    10     6.66724
            H    18    H    12     5.43225
            H    14    H    11     2.91460


          SCF CALCULATIONS        =          1

          WALL-CLOCK TIME         =      0.961 SECONDS
          COMPUTATION TIME        =      0.509 SECONDS

          LARGEST ATOMIC GRADIENTS

          Atom     Label                     Cartesian Gradients           Cartesian Coordinates       |Gradient|
                                           X          Y          Z        X          Y          Z

             5       N                  -0.048     -0.438     -0.071    0.02367   -0.91921   -0.58143      0.446
            16       H                   0.216      0.092      0.378    0.71606    0.59540   -2.09529      0.445
            20       H                  -0.166      0.097      0.346    3.40419    0.67959    0.66682      0.396
             9       O                   0.133      0.039     -0.367    2.92182    0.30140    1.42708      0.392
            12       H                  -0.168      0.261      0.154   -1.49889    0.75892   -2.36988      0.346
            17       H                  -0.173      0.286      0.004    0.60595    0.97475    0.47040      0.334
            13       H                   0.113     -0.293     -0.094   -2.88242    0.89159   -1.28360      0.328
             6       C                  -0.005     -0.251     -0.211    1.00428   -0.20588   -1.41884      0.327
             1       C                   0.131     -0.097     -0.265   -2.39438   -0.63051    1.82996      0.312
            11       H                  -0.135      0.174      0.214   -1.86589   -1.43955   -1.23771      0.307



       FINAL  POINT  AND  DERIVATIVES

   PARAMETER     ATOM    TYPE            VALUE        GRADIENT
      1          1  C    CARTESIAN X    -2.394376      0.131464  KCAL/ANGSTROM
      2          1  C    CARTESIAN Y    -0.630515     -0.096988  KCAL/ANGSTROM
      3          1  C    CARTESIAN Z     1.829961     -0.265489  KCAL/ANGSTROM
      4          2  C    CARTESIAN X    -1.947183      0.098600  KCAL/ANGSTROM
      5          2  C    CARTESIAN Y    -0.606283      0.215569  KCAL/ANGSTROM
      6          2  C    CARTESIAN Z     0.706189      0.043415  KCAL/ANGSTROM
      7          3  C    CARTESIAN X    -1.413687      0.024610  KCAL/ANGSTROM
      8          3  C    CARTESIAN Y    -0.586690     -0.013660  KCAL/ANGSTROM
      9          3  C    CARTESIAN Z    -0.638624      0.106318  KCAL/ANGSTROM
     10          4  C    CARTESIAN X    -1.795359     -0.031153  KCAL/ANGSTROM
     11          4  C    CARTESIAN Y     0.742850     -0.139562  KCAL/ANGSTROM
     12          4  C    CARTESIAN Z    -1.316253     -0.140910  KCAL/ANGSTROM
     13          5  N    CARTESIAN X     0.023667     -0.047691  KCAL/ANGSTROM
     14          5  N    CARTESIAN Y    -0.919206     -0.437935  KCAL/ANGSTROM
     15          5  N    CARTESIAN Z    -0.581431     -0.070811  KCAL/ANGSTROM
     16          6  C    CARTESIAN X     1.004277     -0.004553  KCAL/ANGSTROM
     17          6  C    CARTESIAN Y    -0.205875     -0.250529  KCAL/ANGSTROM
     18          6  C    CARTESIAN Z    -1.418842     -0.210633  KCAL/ANGSTROM
     19          7  C    CARTESIAN X     0.962479      0.189839  KCAL/ANGSTROM
     20          7  C    CARTESIAN Y     0.011264      0.104298  KCAL/ANGSTROM
     21          7  C    CARTESIAN Z     0.079112      0.054028  KCAL/ANGSTROM
     22          8  C    CARTESIAN X     1.972519      0.031327  KCAL/ANGSTROM
     23          8  C    CARTESIAN Y    -0.650718     -0.014195  KCAL/ANGSTROM
     24          8  C    CARTESIAN Z     0.995953     -0.082644  KCAL/ANGSTROM
     25          9  O    CARTESIAN X     2.921818      0.132772  KCAL/ANGSTROM
     26          9  O    CARTESIAN Y     0.301400      0.038620  KCAL/ANGSTROM
     27          9  O    CARTESIAN Z     1.427075     -0.366728  KCAL/ANGSTROM
     28         10  H    CARTESIAN X    -2.776042      0.017607  KCAL/ANGSTROM
     29         10  H    CARTESIAN Y    -0.651601     -0.050638  KCAL/ANGSTROM
     30         10  H    CARTESIAN Z     2.784541     -0.101860  KCAL/ANGSTROM
     31         11  H    CARTESIAN X    -1.865889     -0.134534  KCAL/ANGSTROM
     32         11  H    CARTESIAN Y    -1.439549      0.174051  KCAL/ANGSTROM
     33         11  H    CARTESIAN Z    -1.237714      0.213608  KCAL/ANGSTROM
     34         12  H    CARTESIAN X    -1.498893     -0.167826  KCAL/ANGSTROM
     35         12  H    CARTESIAN Y     0.758919      0.260597  KCAL/ANGSTROM
     36         12  H    CARTESIAN Z    -2.369882      0.154094  KCAL/ANGSTROM
     37         13  H    CARTESIAN X    -2.882423      0.112512  KCAL/ANGSTROM
     38         13  H    CARTESIAN Y     0.891586     -0.293256  KCAL/ANGSTROM
     39         13  H    CARTESIAN Z    -1.283598     -0.094138  KCAL/ANGSTROM
     40         14  H    CARTESIAN X    -1.336198      0.065150  KCAL/ANGSTROM
     41         14  H    CARTESIAN Y     1.603073      0.134196  KCAL/ANGSTROM
     42         14  H    CARTESIAN Z    -0.816555     -0.039389  KCAL/ANGSTROM
     43         15  H    CARTESIAN X     1.762438     -0.182743  KCAL/ANGSTROM
     44         15  H    CARTESIAN Y    -0.849561      0.021044  KCAL/ANGSTROM
     45         15  H    CARTESIAN Z    -1.872481     -0.042947  KCAL/ANGSTROM
     46         16  H    CARTESIAN X     0.716059      0.215962  KCAL/ANGSTROM
     47         16  H    CARTESIAN Y     0.595398      0.091769  KCAL/ANGSTROM
     48         16  H    CARTESIAN Z    -2.095290      0.378132  KCAL/ANGSTROM
     49         17  H    CARTESIAN X     0.605949     -0.172884  KCAL/ANGSTROM
     50         17  H    CARTESIAN Y     0.974748      0.285760  KCAL/ANGSTROM
     51         17  H    CARTESIAN Z     0.470404      0.003756  KCAL/ANGSTROM
     52         18  H    CARTESIAN X     1.500915      0.000497  KCAL/ANGSTROM
     53         18  H    CARTESIAN Y    -0.984628      0.048239  KCAL/ANGSTROM
     54         18  H    CARTESIAN Z     1.942881      0.113506  KCAL/ANGSTROM
     55         19  H    CARTESIAN X     2.487127     -0.112612  KCAL/ANGSTROM
     56         19  H    CARTESIAN Y    -1.507101     -0.174097  KCAL/ANGSTROM
     57         19  H    CARTESIAN Z     0.525379      0.002589  KCAL/ANGSTROM
     58         20  H    CARTESIAN X     3.404194     -0.166346  KCAL/ANGSTROM
     59         20  H    CARTESIAN Y     0.679592      0.096715  KCAL/ANGSTROM
     60         20  H    CARTESIAN Z     0.666822      0.346098  KCAL/ANGSTROM




   ATOM   CHEMICAL          X               Y               Z
  NUMBER   SYMBOL      (ANGSTROMS)     (ANGSTROMS)     (ANGSTROMS)

     1       C         -2.39437564  *  -0.63051499  *   1.82996092  *
     2       C         -1.94718319  *  -0.60628274  *   0.70618938  *
     3       C         -1.41368728  *  -0.58669029  *  -0.63862448  *
     4       C         -1.79535934  *   0.74284969  *  -1.31625301  *
     5       N          0.02366677  *  -0.91920578  *  -0.58143150  *
     6       C          1.00427709  *  -0.20587525  *  -1.41884174  *
     7       C          0.96247933  *   0.01126368  *   0.07911233  *
     8       C          1.97251941  *  -0.65071850  *   0.99595324  *
     9       O          2.92181828  *   0.30139971  *   1.42707512  *
    10       H         -2.77604230  *  -0.65160113  *   2.78454052  *
    11       H         -1.86588898  *  -1.43954946  *  -1.23771378  *
    12       H         -1.49889347  *   0.75891886  *  -2.36988222  *
    13       H         -2.88242258  *   0.89158586  *  -1.28359773  *
    14       H         -1.33619803  *   1.60307309  *  -0.81655509  *
    15       H          1.76243846  *  -0.84956050  *  -1.87248059  *
    16       H          0.71605877  *   0.59539794  *  -2.09528995  *
    17       H          0.60594943  *   0.97474847  *   0.47040405  *
    18       H          1.50091502  *  -0.98462835  *   1.94288117  *
    19       H          2.48712747  *  -1.50710122  *   0.52537853  *
    20       H          3.40419447  *   0.67959195  *   0.66682240  *

                             CARTESIAN COORDINATES

   1    C       -2.394375641    -0.630514986     1.829960915
   2    C       -1.947183194    -0.606282738     0.706189378
   3    C       -1.413687284    -0.586690292    -0.638624482
   4    C       -1.795359341     0.742849692    -1.316253008
   5    N        0.023666770    -0.919205776    -0.581431498
   6    C        1.004277090    -0.205875255    -1.418841735
   7    C        0.962479334     0.011263681     0.079112332
   8    C        1.972519409    -0.650718499     0.995953243
   9    O        2.921818277     0.301399709     1.427075115
  10    H       -2.776042299    -0.651601128     2.784540522
  11    H       -1.865888983    -1.439549458    -1.237713775
  12    H       -1.498893474     0.758918858    -2.369882217
  13    H       -2.882422580     0.891585859    -1.283597735
  14    H       -1.336198034     1.603073086    -0.816555090
  15    H        1.762438464    -0.849560501    -1.872480591
  16    H        0.716058772     0.595397944    -2.095289952
  17    H        0.605949431     0.974748466     0.470404047
  18    H        1.500915022    -0.984628346     1.942881173
  19    H        2.487127467    -1.507101217     0.525378526
  20    H        3.404194466     0.679591949     0.666822403


           Empirical Formula: C7 H11 N O  =    20 atoms



      MOLECULAR POINT GROUP   :   C1  


                  EIGENVALUES  
 -36.55587 -29.58583 -28.23179 -25.86348 -25.12545 -23.91299 -21.13739 -20.56429
 -18.59874 -17.82863 -16.72057 -16.23270 -15.77922 -15.02762 -14.61413 -13.90805
 -13.49298 -13.32221 -12.73031 -12.12687 -11.86383 -11.18658 -11.01556 -10.71046
  -9.92884   1.22145   1.48454   2.06201   2.43891   3.10802   3.48824   3.72189
   3.97499   4.34035   4.55535   5.13960   5.25997   5.39681   5.40841   5.53359
   5.58496   5.75683   5.88632   6.12324   6.24097   6.48401   6.91080


              NET ATOMIC CHARGES AND DIPOLE CONTRIBUTIONS

  ATOM NO.   TYPE          CHARGE      No. of ELECS.   s-Pop       p-Pop       
    1          C          -0.193192        4.1932     1.13626     3.05693
    2          C          -0.094283        4.0943     1.11266     2.98162
    3          C           0.088451        3.9115     1.04921     2.86234
    4          C          -0.481909        4.4819     1.06059     3.42132
    5          N          -0.373562        5.3736     1.74720     3.62636
    6          C          -0.223602        4.2236     1.07081     3.15280
    7          C          -0.112779        4.1128     1.07634     3.03644
    8          C           0.009791        3.9902     1.08262     2.90759
    9          O          -0.539371        6.5394     1.84947     4.68991
   10          H           0.188956        0.8110     0.81104
   11          H           0.173486        0.8265     0.82651
   12          H           0.154205        0.8458     0.84580
   13          H           0.163383        0.8366     0.83662
   14          H           0.156447        0.8436     0.84355
   15          H           0.169567        0.8304     0.83043
   16          H           0.151422        0.8486     0.84858
   17          H           0.165337        0.8347     0.83466
   18          H           0.156669        0.8433     0.84333
   19          H           0.130419        0.8696     0.86958
   20          H           0.310565        0.6894     0.68944
 DIPOLE           X         Y         Z       TOTAL
 POINT-CHG.    -0.708     0.463    -2.138     2.300
 HYBRID        -0.117     0.953    -0.294     1.004
 SUM           -0.826     1.416    -2.433     2.934


          ATOMIC ORBITAL ELECTRON POPULATIONS

     Atom    s        px        py        pz   
    1  C   1.13626   1.00550   1.02340   1.02804
    2  C   1.11266   1.00080   0.99333   0.98749
    3  C   1.04921   0.86330   1.02697   0.97206
    4  C   1.06059   1.18485   1.08296   1.15351
    5  N   1.74720   1.04695   1.39275   1.18666
    6  C   1.07081   1.05864   1.10018   0.99397
    7  C   1.07634   1.02518   1.04636   0.96490
    8  C   1.08262   0.91081   0.92702   1.06976
    9  O   1.84947   1.60221   1.64554   1.44216
   10  H   0.81104
   11  H   0.82651
   12  H   0.84580
   13  H   0.83662
   14  H   0.84355
   15  H   0.83043
   16  H   0.84858
   17  H   0.83466
   18  H   0.84333
   19  H   0.86958
   20  H   0.68944

 **********************
 *                    *
 * JOB ENDED NORMALLY *
 *                    *
 **********************



 TOTAL JOB TIME:             1.41 SECONDS

 == MOPAC DONE ==
