 *******************************************************************************
 **                                                                           **
 **                              MOPAC v23.2                                  **
 **                                                                           **
 *******************************************************************************
 **          Digital Object Identifier (DOI): 10.5281/zenodo.6511958          **
 **    Visit the DOI location for information on how to cite this program.    **
 *******************************************************************************

                              PM7 CALCULATION RESULTS

 *******************************************************************************
 *  CALCULATION DONE: (MAX THREADS = 40)             Fri Sep 19 21:32:41 2025  *
 *  PM7        - The PM7 Hamiltonian to be used
 *
 *
 *
 *                 CHARGE ON SYSTEM = +1
 *
 *
 *
 *  EPS=37.5   - USE ANDREAS KLAMT'S COSMO IMPLICIT SOLVATION MODEL
 *  1SCF       - DO 1 SCF AND THEN STOP 
 *  T=         - A TIME OF 172800.0 SECONDS REQUESTED
 *  DUMP=N     - RESTART FILE WRITTEN EVERY 7200.0 SECONDS REQUESTED
 *  RELSCF     - DEFAULT SCF CRITERION MULTIPLIED BY 0.0001
 *              (DEFAULT SCF CRITERION = 0.00010)
 *  GRADIENTS  - ALL GRADIENTS TO BE PRINTED
 *  DISP       - PRINT DISPERSION AND HYDROGEN BOND ENERGIES
 *******************************************************************************
PM7 1SCF GRADIENTS EPS=37.5 DISP RELSCF=0.0001 CHARGE=1
 Title: ASE calculation

   ATOM   CHEMICAL          X               Y               Z
  NUMBER   SYMBOL      (ANGSTROMS)     (ANGSTROMS)     (ANGSTROMS)

     1       C         -2.50725649  *  -0.10501448  *   1.20860489  *
     2       C         -1.79551527  *   0.35672911  *  -0.04648176  *
     3       C         -2.72147086  *   0.94965778  *  -1.08505972  *
     4       C         -0.84844200  *  -0.75459439  *  -0.61986622  *
     5       C          0.48900412  *  -0.36589569  *  -0.12823950  *
     6       N          1.58198580  *  -0.99651089  *  -0.48271580  *
     7       O          2.65997865  *  -1.10543673  *   0.24152766  *
     8       C          0.36965355  *   0.94136850  *   0.61684712  *
     9       O         -0.90088033  *   1.44194441  *   0.29770575  *
    10       H         -1.84160808  *  -0.57525937  *   1.93891464  *
    11       H         -3.31867247  *  -0.81415217  *   0.98842594  *
    12       H         -2.97700477  *   0.75163991  *   1.72597089  *
    13       H         -3.43558433  *   0.21001229  *  -1.47227779  *
    14       H         -2.18000086  *   1.38110042  *  -1.93891464  *
    15       H         -3.31788987  *   1.77777879  *  -0.66048349  *
    16       H         -1.16699968  *  -1.77777879  *  -0.31579142  *
    17       H         -0.90176784  *  -0.79581958  *  -1.73726318  *
    18       H          3.43558433  *  -1.27046262  *  -0.45372233  *
    19       H          0.45025982  *   0.77236906  *   1.72114172  *
    20       H          1.08588585  *   1.74317222  *   0.32668527  *



          CARTESIAN COORDINATES 

    NO.       ATOM           X           Y           Z

     1         C         -2.5073     -0.1050      1.2086
     2         C         -1.7955      0.3567     -0.0465
     3         C         -2.7215      0.9497     -1.0851
     4         C         -0.8484     -0.7546     -0.6199
     5         C          0.4890     -0.3659     -0.1282
     6         N          1.5820     -0.9965     -0.4827
     7         O          2.6600     -1.1054      0.2415
     8         C          0.3697      0.9414      0.6168
     9         O         -0.9009      1.4419      0.2977
    10         H         -1.8416     -0.5753      1.9389
    11         H         -3.3187     -0.8142      0.9884
    12         H         -2.9770      0.7516      1.7260
    13         H         -3.4356      0.2100     -1.4723
    14         H         -2.1800      1.3811     -1.9389
    15         H         -3.3179      1.7778     -0.6605
    16         H         -1.1670     -1.7778     -0.3158
    17         H         -0.9018     -0.7958     -1.7373
    18         H          3.4356     -1.2705     -0.4537
    19         H          0.4503      0.7724      1.7211
    20         H          1.0859      1.7432      0.3267

 General Reference for PM7:
 "Optimization of Parameters for Semiempirical Methods VI: More Modifications to the 
 NDDO Approximations and Re-optimization of Parameters", J. J. P. Stewart, J. Mol. Mod., 1:32, 19 (2013)
 https://link.springer.com/article/10.1007/s00894-012-1667-x

           Empirical Formula: C6 H11 N O2  =    20 atoms



      MOLECULAR POINT GROUP   :   C1  


          UHF CALCULATION, NO. OF ALPHA ELECTRONS =   26
                           NO. OF BETA  ELECTRONS =   25
  SCF CRITERION =    0.1000E-07

 -------------------------------------------------------------------------------
 PM7 1SCF GRADIENTS EPS=37.5 DISP RELSCF=0.0001 CHARGE=1
 Title: ASE calculation



     1SCF WAS SPECIFIED, SO BFGS WAS NOT USED                 
     SCF FIELD WAS ACHIEVED                                   


                              PM7 CALCULATION
                                                       MOPAC v23.2 Linux
                                                       Fri Sep 19 21:32:42 2025




          FINAL HEAT OF FORMATION =         89.46250 KCAL/MOL =     374.31108 KJ/MOL

          TOTAL ENERGY            =     -38162.30048 KCAL/MOL = ELECTRONIC ENERGY + CORE-CORE REPULSION + SOLVATION ENERGY
          ENERGY OF ATOMS         =      38253.74801 KCAL/MOL
                              SUM =         91.44753 KCAL/MOL
          DISPERSION ENERGY       =         -1.98503 KCAL/MOL
                              SUM =         89.46250 KCAL/MOL = FINAL HEAT OF FORMATION

          VAN DER WAALS AREA      =        167.37 SQUARE ANGSTROMS


          TOTAL ENERGY            =      -1654.87398 EV
          ELECTRONIC ENERGY       =      -2437.17899 EV 
          CORE-CORE REPULSION     =        782.30501 EV

          DIELECTRIC ENERGY       =         -2.59371 EV
          COSMO AREA              =        167.37 SQUARE ANGSTROMS
          COSMO VOLUME            =        165.26 CUBIC ANGSTROMS

          GRADIENT NORM           =         24.36274          =       5.44767 PER ATOM
          IONIZATION POTENTIAL    =         10.968794 EV
          ALPHA SOMO LUMO (EV)    =        -10.969 -1.718
          BETA  SOMO LUMO (EV)    =        -11.013 -3.214
          NO. OF ALPHA ELECTRONS  =         26
          NO. OF BETA  ELECTRONS  =         25
          MOLECULAR WEIGHT        =        129.1584         POINT GROUP:  C1  

          MOLECULAR DIMENSIONS (Angstroms)

            Atom       Atom       Distance
            H    18    H    15     7.41242
            H    11    H    20     4.20920
            H    19    H    17     3.73750


          SCF CALCULATIONS        =          2

          WALL-CLOCK TIME         =      1.211 SECONDS
          COMPUTATION TIME        =      0.695 SECONDS

          LARGEST ATOMIC GRADIENTS

          Atom     Label                     Cartesian Gradients           Cartesian Coordinates       |Gradient|
                                           X          Y          Z        X          Y          Z

             7       O                  12.327     -2.541      3.106    2.65998   -1.10544    0.24153     12.964
             2       C                  -5.392      4.695      3.655   -1.79552    0.35673   -0.04648      8.030
             6       N                  -3.138      1.904     -6.672    1.58199   -0.99651   -0.48272      7.615
             1       C                   5.235     -4.537     -2.443   -2.50726   -0.10501    1.20860      7.346
             4       C                   5.458     -4.826     -0.532   -0.84844   -0.75459   -0.61987      7.305
             3       C                   4.164     -4.757     -0.095   -2.72147    0.94966   -1.08506      6.322
             8       C                  -5.433      2.981     -0.619    0.36965    0.94137    0.61685      6.228
             9       O                   5.856     -0.591     -1.391   -0.90088    1.44194    0.29771      6.048
             5       C                  -5.135     -2.129     -0.080    0.48900   -0.36590   -0.12824      5.560
            18       H                  -3.776     -0.323      1.951    3.43558   -1.27046   -0.45372      4.262



       FINAL  POINT  AND  DERIVATIVES

   PARAMETER     ATOM    TYPE            VALUE        GRADIENT
      1          1  C    CARTESIAN X    -2.507256      5.235239  KCAL/ANGSTROM
      2          1  C    CARTESIAN Y    -0.105014     -4.536999  KCAL/ANGSTROM
      3          1  C    CARTESIAN Z     1.208605     -2.442904  KCAL/ANGSTROM
      4          2  C    CARTESIAN X    -1.795515     -5.392099  KCAL/ANGSTROM
      5          2  C    CARTESIAN Y     0.356729      4.694698  KCAL/ANGSTROM
      6          2  C    CARTESIAN Z    -0.046482      3.655203  KCAL/ANGSTROM
      7          3  C    CARTESIAN X    -2.721471      4.163722  KCAL/ANGSTROM
      8          3  C    CARTESIAN Y     0.949658     -4.756911  KCAL/ANGSTROM
      9          3  C    CARTESIAN Z    -1.085060     -0.095181  KCAL/ANGSTROM
     10          4  C    CARTESIAN X    -0.848442      5.457737  KCAL/ANGSTROM
     11          4  C    CARTESIAN Y    -0.754594     -4.826008  KCAL/ANGSTROM
     12          4  C    CARTESIAN Z    -0.619866     -0.532406  KCAL/ANGSTROM
     13          5  C    CARTESIAN X     0.489004     -5.135236  KCAL/ANGSTROM
     14          5  C    CARTESIAN Y    -0.365896     -2.129312  KCAL/ANGSTROM
     15          5  C    CARTESIAN Z    -0.128240     -0.080343  KCAL/ANGSTROM
     16          6  N    CARTESIAN X     1.581986     -3.138110  KCAL/ANGSTROM
     17          6  N    CARTESIAN Y    -0.996511      1.904089  KCAL/ANGSTROM
     18          6  N    CARTESIAN Z    -0.482716     -6.672438  KCAL/ANGSTROM
     19          7  O    CARTESIAN X     2.659979     12.327128  KCAL/ANGSTROM
     20          7  O    CARTESIAN Y    -1.105437     -2.540955  KCAL/ANGSTROM
     21          7  O    CARTESIAN Z     0.241528      3.105899  KCAL/ANGSTROM
     22          8  C    CARTESIAN X     0.369654     -5.432608  KCAL/ANGSTROM
     23          8  C    CARTESIAN Y     0.941368      2.981120  KCAL/ANGSTROM
     24          8  C    CARTESIAN Z     0.616847     -0.619304  KCAL/ANGSTROM
     25          9  O    CARTESIAN X    -0.900880      5.856090  KCAL/ANGSTROM
     26          9  O    CARTESIAN Y     1.441944     -0.590733  KCAL/ANGSTROM
     27          9  O    CARTESIAN Z     0.297706     -1.390873  KCAL/ANGSTROM
     28         10  H    CARTESIAN X    -1.841608     -1.720998  KCAL/ANGSTROM
     29         10  H    CARTESIAN Y    -0.575259      1.081487  KCAL/ANGSTROM
     30         10  H    CARTESIAN Z     1.938915      0.606789  KCAL/ANGSTROM
     31         11  H    CARTESIAN X    -3.318672     -1.692627  KCAL/ANGSTROM
     32         11  H    CARTESIAN Y    -0.814152      0.596885  KCAL/ANGSTROM
     33         11  H    CARTESIAN Z     0.988426      0.796272  KCAL/ANGSTROM
     34         12  H    CARTESIAN X    -2.977005     -0.850027  KCAL/ANGSTROM
     35         12  H    CARTESIAN Y     0.751640      1.318402  KCAL/ANGSTROM
     36         12  H    CARTESIAN Z     1.725971      0.643189  KCAL/ANGSTROM
     37         13  H    CARTESIAN X    -3.435584     -1.196099  KCAL/ANGSTROM
     38         13  H    CARTESIAN Y     0.210012      0.863502  KCAL/ANGSTROM
     39         13  H    CARTESIAN Z    -1.472278      0.107180  KCAL/ANGSTROM
     40         14  H    CARTESIAN X    -2.180001     -0.986605  KCAL/ANGSTROM
     41         14  H    CARTESIAN Y     1.381100      2.016767  KCAL/ANGSTROM
     42         14  H    CARTESIAN Z    -1.938915     -0.083564  KCAL/ANGSTROM
     43         15  H    CARTESIAN X    -3.317890     -0.697441  KCAL/ANGSTROM
     44         15  H    CARTESIAN Y     1.777779      1.680527  KCAL/ANGSTROM
     45         15  H    CARTESIAN Z    -0.660483      0.173356  KCAL/ANGSTROM
     46         16  H    CARTESIAN X    -1.167000     -1.033087  KCAL/ANGSTROM
     47         16  H    CARTESIAN Y    -1.777779      0.038414  KCAL/ANGSTROM
     48         16  H    CARTESIAN Z    -0.315791     -0.326791  KCAL/ANGSTROM
     49         17  H    CARTESIAN X    -0.901768     -0.761687  KCAL/ANGSTROM
     50         17  H    CARTESIAN Y    -0.795820      0.420623  KCAL/ANGSTROM
     51         17  H    CARTESIAN Z    -1.737263     -0.211597  KCAL/ANGSTROM
     52         18  H    CARTESIAN X     3.435584     -3.775622  KCAL/ANGSTROM
     53         18  H    CARTESIAN Y    -1.270463     -0.323060  KCAL/ANGSTROM
     54         18  H    CARTESIAN Z    -0.453722      1.950631  KCAL/ANGSTROM
     55         19  H    CARTESIAN X     0.450260     -0.463995  KCAL/ANGSTROM
     56         19  H    CARTESIAN Y     0.772369     -0.224669  KCAL/ANGSTROM
     57         19  H    CARTESIAN Z     1.721142      1.029435  KCAL/ANGSTROM
     58         20  H    CARTESIAN X     1.085886     -0.763677  KCAL/ANGSTROM
     59         20  H    CARTESIAN Y     1.743172      2.332128  KCAL/ANGSTROM
     60         20  H    CARTESIAN Z     0.326685      0.387447  KCAL/ANGSTROM




   ATOM   CHEMICAL          X               Y               Z
  NUMBER   SYMBOL      (ANGSTROMS)     (ANGSTROMS)     (ANGSTROMS)

     1       C         -2.50725649  *  -0.10501448  *   1.20860489  *
     2       C         -1.79551527  *   0.35672911  *  -0.04648176  *
     3       C         -2.72147086  *   0.94965778  *  -1.08505972  *
     4       C         -0.84844200  *  -0.75459439  *  -0.61986622  *
     5       C          0.48900412  *  -0.36589569  *  -0.12823950  *
     6       N          1.58198580  *  -0.99651089  *  -0.48271580  *
     7       O          2.65997865  *  -1.10543673  *   0.24152766  *
     8       C          0.36965355  *   0.94136850  *   0.61684712  *
     9       O         -0.90088033  *   1.44194441  *   0.29770575  *
    10       H         -1.84160808  *  -0.57525937  *   1.93891464  *
    11       H         -3.31867247  *  -0.81415217  *   0.98842594  *
    12       H         -2.97700477  *   0.75163991  *   1.72597089  *
    13       H         -3.43558433  *   0.21001229  *  -1.47227779  *
    14       H         -2.18000086  *   1.38110042  *  -1.93891464  *
    15       H         -3.31788987  *   1.77777879  *  -0.66048349  *
    16       H         -1.16699968  *  -1.77777879  *  -0.31579142  *
    17       H         -0.90176784  *  -0.79581958  *  -1.73726318  *
    18       H          3.43558433  *  -1.27046262  *  -0.45372233  *
    19       H          0.45025982  *   0.77236906  *   1.72114172  *
    20       H          1.08588585  *   1.74317222  *   0.32668527  *

                             CARTESIAN COORDINATES

   1    C       -2.507256493    -0.105014478     1.208604892
   2    C       -1.795515271     0.356729114    -0.046481758
   3    C       -2.721470861     0.949657785    -1.085059721
   4    C       -0.848441995    -0.754594388    -0.619866225
   5    C        0.489004116    -0.365895692    -0.128239505
   6    N        1.581985795    -0.996510889    -0.482715797
   7    O        2.659978647    -1.105436730     0.241527663
   8    C        0.369653550     0.941368498     0.616847123
   9    O       -0.900880334     1.441944409     0.297705745
  10    H       -1.841608083    -0.575259368     1.938914643
  11    H       -3.318672468    -0.814152174     0.988425944
  12    H       -2.977004767     0.751639906     1.725970892
  13    H       -3.435584332     0.210012286    -1.472277786
  14    H       -2.180000862     1.381100421    -1.938914643
  15    H       -3.317889871     1.777778787    -0.660483495
  16    H       -1.166999681    -1.777778787    -0.315791422
  17    H       -0.901767836    -0.795819581    -1.737263184
  18    H        3.435584332    -1.270462616    -0.453722329
  19    H        0.450259815     0.772369062     1.721141716
  20    H        1.085885847     1.743172222     0.326685266


           Empirical Formula: C6 H11 N O2  =    20 atoms



      MOLECULAR POINT GROUP   :   C1  


          ALPHA EIGENVALUES  
 -37.64539 -32.86232 -31.46848 -28.48592 -26.91956 -24.79866 -24.33951 -21.73666
 -20.66276 -19.11421 -18.34539 -17.76076 -16.82345 -16.46732 -15.72549 -15.33110
 -14.85729 -14.34475 -13.94383 -13.48958 -13.23714 -12.96094 -12.55794 -12.42932
 -11.80334 -10.96879  -1.71792  -0.37845   1.15722   1.92328   2.13876   2.76234
   3.05591   3.44778   3.57483   3.74944   3.92170   4.49371   4.61322   4.97215
   5.35175   5.41945   5.46131   5.49478   5.53513   6.57971   6.69713


           BETA EIGENVALUES 
 -36.61241 -32.28637 -30.62558 -28.47263 -26.63146 -24.77023 -24.29849 -21.31437
 -20.59069 -18.73158 -18.14803 -17.31687 -16.75080 -15.76337 -15.63188 -15.07879
 -14.76584 -14.06172 -13.74301 -13.42596 -13.03306 -12.90128 -12.41611 -12.19373
 -11.01272  -3.21357  -1.03156   0.19332   1.20431   2.16680   2.20076   2.88797
   3.23805   3.47321   3.57809   3.90049   4.09605   4.53307   4.64170   4.98640
   5.35788   5.41947   5.46272   5.49534   5.53795   6.57976   6.69714


              NET ATOMIC CHARGES AND DIPOLE CONTRIBUTIONS

  ATOM NO.   TYPE          CHARGE      No. of ELECS.   s-Pop       p-Pop       
    1          C          -0.514466        4.5145     1.06175     3.45271
    2          C           0.337878        3.6621     1.08677     2.57536
    3          C          -0.494842        4.4948     1.05942     3.43542
    4          C          -0.400177        4.4002     1.08439     3.31579
    5          C           0.339974        3.6600     1.14612     2.51391
    6          N          -0.155792        5.1558     1.72091     3.43489
    7          O           0.064437        5.9356     1.91074     4.02483
    8          C          -0.082487        4.0825     1.10295     2.97954
    9          O          -0.436847        6.4368     1.88207     4.55478
   10          H           0.167025        0.8330     0.83297
   11          H           0.178868        0.8211     0.82113
   12          H           0.180079        0.8199     0.81992
   13          H           0.179439        0.8206     0.82056
   14          H           0.171709        0.8283     0.82829
   15          H           0.179864        0.8201     0.82014
   16          H           0.229919        0.7701     0.77008
   17          H           0.238785        0.7612     0.76121
   18          H           0.393385        0.6066     0.60661
   19          H           0.208743        0.7913     0.79126
   20          H           0.214506        0.7855     0.78549
 DIPOLE           X         Y         Z       TOTAL
 POINT-CHG.     6.566    -4.112    -0.661     7.775
 HYBRID         0.704     0.011     0.226     0.740
 SUM            7.270    -4.101    -0.435     8.359


          ATOMIC ORBITAL ELECTRON POPULATIONS

     Atom    s        px        py        pz   
    1  C   1.06175   1.16735   1.19433   1.09104
    2  C   1.08677   0.85278   0.79261   0.92997
    3  C   1.05942   1.13553   1.17743   1.12246
    4  C   1.08439   0.96359   1.15968   1.19252
    5  C   1.14612   0.88392   0.92563   0.70436
    6  N   1.72091   1.01129   1.15258   1.27101
    7  O   1.91074   1.16698   1.59602   1.26183
    8  C   1.10295   0.90258   0.97958   1.09738
    9  O   1.88207   1.26750   1.38843   1.89885
   10  H   0.83297
   11  H   0.82113
   12  H   0.81992
   13  H   0.82056
   14  H   0.82829
   15  H   0.82014
   16  H   0.77008
   17  H   0.76121
   18  H   0.60661
   19  H   0.79126
   20  H   0.78549


                    (SZ)    =    0.500000
                    (S**2)  =    0.758640


          ATOMIC ORBITAL SPIN POPULATIONS

    Atom   Total    s     px     py     pz   
         Atomic
    1  C -0.0001 -0.000 -0.000 -0.000 -0.000
    2  C -0.0010 -0.000 -0.000 -0.001 -0.000
    3  C -0.0001 -0.000 -0.000 -0.000 -0.000
    4  C  0.0102  0.001  0.001  0.000  0.008
    5  C  0.0740 -0.004  0.003 -0.032  0.107
    6  N  0.4626  0.043  0.031  0.372  0.017
    7  O  0.4032  0.008  0.058  0.318  0.019
    8  C  0.0404  0.003  0.004  0.007  0.027
    9  O  0.0054  0.000  0.001  0.000  0.004
   10  H  0.0000  0.000
   11  H -0.0000 -0.000
   12  H -0.0000 -0.000
   13  H  0.0000  0.000
   14  H -0.0000 -0.000
   15  H -0.0000 -0.000
   16  H  0.0020  0.002
   17  H  0.0079  0.008
   18  H -0.0187 -0.019
   19  H  0.0138  0.014
   20  H  0.0007  0.001

 **********************
 *                    *
 * JOB ENDED NORMALLY *
 *                    *
 **********************



 TOTAL JOB TIME:             1.60 SECONDS

 == MOPAC DONE ==
