 *******************************************************************************
 **                                                                           **
 **                              MOPAC v23.2                                  **
 **                                                                           **
 *******************************************************************************
 **          Digital Object Identifier (DOI): 10.5281/zenodo.6511958          **
 **    Visit the DOI location for information on how to cite this program.    **
 *******************************************************************************

                              PM7 CALCULATION RESULTS

 *******************************************************************************
 *  CALCULATION DONE: (MAX THREADS = 40)             Fri Sep 19 21:38:40 2025  *
 *  PM7        - The PM7 Hamiltonian to be used
 *  EPS=37.5   - USE ANDREAS KLAMT'S COSMO IMPLICIT SOLVATION MODEL
 *  1SCF       - DO 1 SCF AND THEN STOP 
 *  T=         - A TIME OF 172800.0 SECONDS REQUESTED
 *  DUMP=N     - RESTART FILE WRITTEN EVERY 7200.0 SECONDS REQUESTED
 *  RELSCF     - DEFAULT SCF CRITERION MULTIPLIED BY 0.0001
 *              (DEFAULT SCF CRITERION = 0.00010)
 *  GRADIENTS  - ALL GRADIENTS TO BE PRINTED
 *  DISP       - PRINT DISPERSION AND HYDROGEN BOND ENERGIES
 *******************************************************************************
PM7 1SCF GRADIENTS EPS=37.5 DISP RELSCF=0.0001
 Title: ASE calculation

   ATOM   CHEMICAL          X               Y               Z
  NUMBER   SYMBOL      (ANGSTROMS)     (ANGSTROMS)     (ANGSTROMS)

     1       C         -2.71325262  *   0.78818530  *   0.88299205  *
     2       C         -1.55828918  *   0.89582064  *  -0.07705165  *
     3       C         -1.36665404  *  -0.14479029  *  -1.16217704  *
     4       N         -0.51958633  *  -0.15677484  *   0.05074619  *
     5       C          0.87323106  *   0.24791155  *  -0.10733901  *
     6       C          1.80723567  *  -0.97313935  *  -0.38685792  *
     7       C          2.55200874  *  -0.70852588  *   0.94718358  *
     8       C          1.58052146  *   0.45629958  *   1.27056969  *
     9       H         -2.99652953  *  -0.25991130  *   1.06049128  *
    10       H         -3.59597104  *   1.31576553  *   0.50368563  *
    11       H         -2.45378181  *   1.21316095  *   1.86199012  *
    12       H         -1.25256855  *   1.93081776  *  -0.27949444  *
    13       H         -2.05528099  *  -0.98750561  *  -1.25024751  *
    14       H         -0.95869945  *   0.13294116  *  -2.13050862  *
    15       H          1.03472143  *   1.08772349  *  -0.80821286  *
    16       H          1.27633293  *  -1.93081776  *  -0.41761471  *
    17       H          2.41451359  *  -0.88130635  *  -1.28629470  *
    18       H          2.50809635  *  -1.53894486  *   1.65677947  *
    19       H          3.59597104  *  -0.40875618  *   0.83059250  *
    20       H          0.92896889  *   0.26739464  *   2.13050862  *
    21       H          2.04927819  *   1.43188022  *   1.39428544  *



          CARTESIAN COORDINATES 

    NO.       ATOM           X           Y           Z

     1         C         -2.7133      0.7882      0.8830
     2         C         -1.5583      0.8958     -0.0771
     3         C         -1.3667     -0.1448     -1.1622
     4         N         -0.5196     -0.1568      0.0507
     5         C          0.8732      0.2479     -0.1073
     6         C          1.8072     -0.9731     -0.3869
     7         C          2.5520     -0.7085      0.9472
     8         C          1.5805      0.4563      1.2706
     9         H         -2.9965     -0.2599      1.0605
    10         H         -3.5960      1.3158      0.5037
    11         H         -2.4538      1.2132      1.8620
    12         H         -1.2526      1.9308     -0.2795
    13         H         -2.0553     -0.9875     -1.2502
    14         H         -0.9587      0.1329     -2.1305
    15         H          1.0347      1.0877     -0.8082
    16         H          1.2763     -1.9308     -0.4176
    17         H          2.4145     -0.8813     -1.2863
    18         H          2.5081     -1.5389      1.6568
    19         H          3.5960     -0.4088      0.8306
    20         H          0.9290      0.2674      2.1305
    21         H          2.0493      1.4319      1.3943

 General Reference for PM7:
 "Optimization of Parameters for Semiempirical Methods VI: More Modifications to the 
 NDDO Approximations and Re-optimization of Parameters", J. J. P. Stewart, J. Mol. Mod., 1:32, 19 (2013)
 https://link.springer.com/article/10.1007/s00894-012-1667-x

           Empirical Formula: C7 H13 N  =    21 atoms



      MOLECULAR POINT GROUP   :   C1  


      RHF CALCULATION, NO. OF DOUBLY OCCUPIED LEVELS = 23

  SCF CRITERION =    0.1000E-07

 -------------------------------------------------------------------------------
 PM7 1SCF GRADIENTS EPS=37.5 DISP RELSCF=0.0001
 Title: ASE calculation



     1SCF WAS SPECIFIED, SO BFGS WAS NOT USED                 
     SCF FIELD WAS ACHIEVED                                   


                              PM7 CALCULATION
                                                       MOPAC v23.2 Linux
                                                       Fri Sep 19 21:38:41 2025




          FINAL HEAT OF FORMATION =         25.16840 KCAL/MOL =     105.30460 KJ/MOL

          TOTAL ENERGY            =     -28143.09423 KCAL/MOL = ELECTRONIC ENERGY + CORE-CORE REPULSION + SOLVATION ENERGY
          ENERGY OF ATOMS         =      28170.10828 KCAL/MOL
                              SUM =         27.01405 KCAL/MOL
          DISPERSION ENERGY       =         -1.84564 KCAL/MOL
                              SUM =         25.16840 KCAL/MOL = FINAL HEAT OF FORMATION

          VAN DER WAALS AREA      =        167.76 SQUARE ANGSTROMS


          TOTAL ENERGY            =      -1220.40007 EV
          ELECTRONIC ENERGY       =      -1922.60203 EV 
          CORE-CORE REPULSION     =        702.20196 EV

          DIELECTRIC ENERGY       =         -0.25385 EV
          COSMO AREA              =        167.76 SQUARE ANGSTROMS
          COSMO VOLUME            =        164.81 CUBIC ANGSTROMS

          GRADIENT NORM           =          7.41406          =       1.61788 PER ATOM
          IONIZATION POTENTIAL    =          9.907525 EV
          HOMO LUMO ENERGIES (EV) =         -9.908  2.324
          NO. OF FILLED LEVELS    =         23
          MOLECULAR WEIGHT        =        111.1864         POINT GROUP:  C1  

          MOLECULAR DIMENSIONS (Angstroms)

            Atom       Atom       Distance
            H    19    H    10     7.40303
            H    20    H    14     4.21602
            H    21    H    16     3.17315


          SCF CALCULATIONS        =          2

          WALL-CLOCK TIME         =      1.133 SECONDS
          COMPUTATION TIME        =      0.326 SECONDS

          LARGEST ATOMIC GRADIENTS

          Atom     Label                     Cartesian Gradients           Cartesian Coordinates       |Gradient|
                                           X          Y          Z        X          Y          Z

             1       C                  -2.425      2.374      0.131   -2.71325    0.78819    0.88299      3.396
             8       C                   1.003      1.945     -0.125    1.58052    0.45630    1.27057      2.192
             6       C                   1.180      0.718     -1.680    1.80724   -0.97314   -0.38686      2.175
             5       C                  -2.003      0.456     -0.670    0.87323    0.24791   -0.10734      2.161
             2       C                   1.817      0.944      0.005   -1.55829    0.89582   -0.07705      2.047
             3       C                   0.788      0.189     -1.772   -1.36665   -0.14479   -1.16218      1.949
             7       C                   1.581     -0.076      0.313    2.55201   -0.70853    0.94718      1.613
             9       H                   1.404     -0.649     -0.255   -2.99653   -0.25991    1.06049      1.568
            16       H                  -1.109     -0.178      1.016    1.27633   -1.93082   -0.41761      1.515
            14       H                  -0.381     -0.664      1.193   -0.95870    0.13294   -2.13051      1.417



       FINAL  POINT  AND  DERIVATIVES

   PARAMETER     ATOM    TYPE            VALUE        GRADIENT
      1          1  C    CARTESIAN X    -2.713253     -2.424890  KCAL/ANGSTROM
      2          1  C    CARTESIAN Y     0.788185      2.374182  KCAL/ANGSTROM
      3          1  C    CARTESIAN Z     0.882992      0.131498  KCAL/ANGSTROM
      4          2  C    CARTESIAN X    -1.558289      1.816531  KCAL/ANGSTROM
      5          2  C    CARTESIAN Y     0.895821      0.944023  KCAL/ANGSTROM
      6          2  C    CARTESIAN Z    -0.077052      0.004556  KCAL/ANGSTROM
      7          3  C    CARTESIAN X    -1.366654      0.788005  KCAL/ANGSTROM
      8          3  C    CARTESIAN Y    -0.144790      0.188950  KCAL/ANGSTROM
      9          3  C    CARTESIAN Z    -1.162177     -1.772031  KCAL/ANGSTROM
     10          4  N    CARTESIAN X    -0.519586     -1.176571  KCAL/ANGSTROM
     11          4  N    CARTESIAN Y    -0.156775     -0.256388  KCAL/ANGSTROM
     12          4  N    CARTESIAN Z     0.050746      0.055078  KCAL/ANGSTROM
     13          5  C    CARTESIAN X     0.873231     -2.002811  KCAL/ANGSTROM
     14          5  C    CARTESIAN Y     0.247912      0.455717  KCAL/ANGSTROM
     15          5  C    CARTESIAN Z    -0.107339     -0.670258  KCAL/ANGSTROM
     16          6  C    CARTESIAN X     1.807236      1.180387  KCAL/ANGSTROM
     17          6  C    CARTESIAN Y    -0.973139      0.717518  KCAL/ANGSTROM
     18          6  C    CARTESIAN Z    -0.386858     -1.680151  KCAL/ANGSTROM
     19          7  C    CARTESIAN X     2.552009      1.580827  KCAL/ANGSTROM
     20          7  C    CARTESIAN Y    -0.708526     -0.076167  KCAL/ANGSTROM
     21          7  C    CARTESIAN Z     0.947184      0.312693  KCAL/ANGSTROM
     22          8  C    CARTESIAN X     1.580521      1.002626  KCAL/ANGSTROM
     23          8  C    CARTESIAN Y     0.456300      1.944842  KCAL/ANGSTROM
     24          8  C    CARTESIAN Z     1.270570     -0.125142  KCAL/ANGSTROM
     25          9  H    CARTESIAN X    -2.996530      1.403783  KCAL/ANGSTROM
     26          9  H    CARTESIAN Y    -0.259911     -0.649243  KCAL/ANGSTROM
     27          9  H    CARTESIAN Z     1.060491     -0.255394  KCAL/ANGSTROM
     28         10  H    CARTESIAN X    -3.595971      0.833654  KCAL/ANGSTROM
     29         10  H    CARTESIAN Y     1.315766     -0.440940  KCAL/ANGSTROM
     30         10  H    CARTESIAN Z     0.503686      0.107779  KCAL/ANGSTROM
     31         11  H    CARTESIAN X    -2.453782      0.486628  KCAL/ANGSTROM
     32         11  H    CARTESIAN Y     1.213161     -0.975632  KCAL/ANGSTROM
     33         11  H    CARTESIAN Z     1.861990     -0.281549  KCAL/ANGSTROM
     34         12  H    CARTESIAN X    -1.252569     -0.668936  KCAL/ANGSTROM
     35         12  H    CARTESIAN Y     1.930818     -0.880182  KCAL/ANGSTROM
     36         12  H    CARTESIAN Z    -0.279494      0.256244  KCAL/ANGSTROM
     37         13  H    CARTESIAN X    -2.055281      0.695730  KCAL/ANGSTROM
     38         13  H    CARTESIAN Y    -0.987506     -0.246548  KCAL/ANGSTROM
     39         13  H    CARTESIAN Z    -1.250248      0.882897  KCAL/ANGSTROM
     40         14  H    CARTESIAN X    -0.958699     -0.381119  KCAL/ANGSTROM
     41         14  H    CARTESIAN Y     0.132941     -0.663978  KCAL/ANGSTROM
     42         14  H    CARTESIAN Z    -2.130509      1.192605  KCAL/ANGSTROM
     43         15  H    CARTESIAN X     1.034721      0.571085  KCAL/ANGSTROM
     44         15  H    CARTESIAN Y     1.087723     -0.419921  KCAL/ANGSTROM
     45         15  H    CARTESIAN Z    -0.808213      0.546430  KCAL/ANGSTROM
     46         16  H    CARTESIAN X     1.276333     -1.109187  KCAL/ANGSTROM
     47         16  H    CARTESIAN Y    -1.930818     -0.177770  KCAL/ANGSTROM
     48         16  H    CARTESIAN Z    -0.417615      1.016151  KCAL/ANGSTROM
     49         17  H    CARTESIAN X     2.414514     -0.492358  KCAL/ANGSTROM
     50         17  H    CARTESIAN Y    -0.881306      0.018804  KCAL/ANGSTROM
     51         17  H    CARTESIAN Z    -1.286295      0.952293  KCAL/ANGSTROM
     52         18  H    CARTESIAN X     2.508096     -0.918870  KCAL/ANGSTROM
     53         18  H    CARTESIAN Y    -1.538945      0.115676  KCAL/ANGSTROM
     54         18  H    CARTESIAN Z     1.656779     -0.265106  KCAL/ANGSTROM
     55         19  H    CARTESIAN X     3.595971     -0.384708  KCAL/ANGSTROM
     56         19  H    CARTESIAN Y    -0.408756      0.019323  KCAL/ANGSTROM
     57         19  H    CARTESIAN Z     0.830592     -0.175632  KCAL/ANGSTROM
     58         20  H    CARTESIAN X     0.928969     -0.710199  KCAL/ANGSTROM
     59         20  H    CARTESIAN Y     0.267395     -1.111571  KCAL/ANGSTROM
     60         20  H    CARTESIAN Z     2.130509      0.021527  KCAL/ANGSTROM
     61         21  H    CARTESIAN X     2.049278     -0.089606  KCAL/ANGSTROM
     62         21  H    CARTESIAN Y     1.431880     -0.880698  KCAL/ANGSTROM
     63         21  H    CARTESIAN Z     1.394285     -0.254492  KCAL/ANGSTROM




   ATOM   CHEMICAL          X               Y               Z
  NUMBER   SYMBOL      (ANGSTROMS)     (ANGSTROMS)     (ANGSTROMS)

     1       C         -2.71325262  *   0.78818530  *   0.88299205  *
     2       C         -1.55828918  *   0.89582064  *  -0.07705165  *
     3       C         -1.36665404  *  -0.14479029  *  -1.16217704  *
     4       N         -0.51958633  *  -0.15677484  *   0.05074619  *
     5       C          0.87323106  *   0.24791155  *  -0.10733901  *
     6       C          1.80723567  *  -0.97313935  *  -0.38685792  *
     7       C          2.55200874  *  -0.70852588  *   0.94718358  *
     8       C          1.58052146  *   0.45629958  *   1.27056969  *
     9       H         -2.99652953  *  -0.25991130  *   1.06049128  *
    10       H         -3.59597104  *   1.31576553  *   0.50368563  *
    11       H         -2.45378181  *   1.21316095  *   1.86199012  *
    12       H         -1.25256855  *   1.93081776  *  -0.27949444  *
    13       H         -2.05528099  *  -0.98750561  *  -1.25024751  *
    14       H         -0.95869945  *   0.13294116  *  -2.13050862  *
    15       H          1.03472143  *   1.08772349  *  -0.80821286  *
    16       H          1.27633293  *  -1.93081776  *  -0.41761471  *
    17       H          2.41451359  *  -0.88130635  *  -1.28629470  *
    18       H          2.50809635  *  -1.53894486  *   1.65677947  *
    19       H          3.59597104  *  -0.40875618  *   0.83059250  *
    20       H          0.92896889  *   0.26739464  *   2.13050862  *
    21       H          2.04927819  *   1.43188022  *   1.39428544  *

                             CARTESIAN COORDINATES

   1    C       -2.713252617     0.788185305     0.882992055
   2    C       -1.558289178     0.895820635    -0.077051648
   3    C       -1.366654044    -0.144790289    -1.162177036
   4    N       -0.519586328    -0.156774844     0.050746187
   5    C        0.873231055     0.247911554    -0.107339008
   6    C        1.807235668    -0.973139350    -0.386857919
   7    C        2.552008744    -0.708525878     0.947183583
   8    C        1.580521464     0.456299582     1.270569686
   9    H       -2.996529529    -0.259911296     1.060491280
  10    H       -3.595971044     1.315765527     0.503685632
  11    H       -2.453781808     1.213160951     1.861990115
  12    H       -1.252568547     1.930817763    -0.279494444
  13    H       -2.055280989    -0.987505614    -1.250247515
  14    H       -0.958699453     0.132941165    -2.130508617
  15    H        1.034721431     1.087723489    -0.808212857
  16    H        1.276332931    -1.930817763    -0.417614711
  17    H        2.414513590    -0.881306355    -1.286294700
  18    H        2.508096346    -1.538944858     1.656779466
  19    H        3.595971044    -0.408756177     0.830592498
  20    H        0.928968891     0.267394638     2.130508617
  21    H        2.049278191     1.431880222     1.394285442


           Empirical Formula: C7 H13 N  =    21 atoms



      MOLECULAR POINT GROUP   :   C1  


                  EIGENVALUES  
 -36.45891 -30.14126 -26.36021 -23.69343 -22.95095 -21.67434 -20.15614 -18.65684
 -17.56691 -16.61303 -15.14253 -15.00723 -14.73339 -14.12754 -13.46037 -13.38508
 -12.61291 -12.17074 -12.11197 -11.47632 -11.25780 -11.01613  -9.90752   2.32436
   2.55823   3.43496   3.45455   3.59250   3.99452   4.36419   4.89238   5.27150
   5.39240   5.52009   5.73183   5.76537   5.81539   5.87712   5.93058   6.07273
   6.33596   6.47452   6.56502   6.61106   6.90063


              NET ATOMIC CHARGES AND DIPOLE CONTRIBUTIONS

  ATOM NO.   TYPE          CHARGE      No. of ELECS.   s-Pop       p-Pop       
    1          C          -0.447965        4.4480     1.05139     3.39657
    2          C          -0.022772        4.0228     1.06544     2.95733
    3          C          -0.242053        4.2421     1.07358     3.16847
    4          N          -0.441311        5.4413     1.74722     3.69409
    5          C           0.021330        3.9787     1.07732     2.90135
    6          C          -0.297777        4.2978     1.07257     3.22521
    7          C          -0.278132        4.2781     1.06528     3.21285
    8          C          -0.296431        4.2964     1.07252     3.22391
    9          H           0.162224        0.8378     0.83778
   10          H           0.161014        0.8390     0.83899
   11          H           0.160761        0.8392     0.83924
   12          H           0.158481        0.8415     0.84152
   13          H           0.171824        0.8282     0.82818
   14          H           0.161911        0.8381     0.83809
   15          H           0.135101        0.8649     0.86490
   16          H           0.152955        0.8470     0.84705
   17          H           0.147907        0.8521     0.85209
   18          H           0.146244        0.8538     0.85376
   19          H           0.146200        0.8538     0.85380
   20          H           0.153714        0.8463     0.84629
   21          H           0.146775        0.8532     0.85323
 DIPOLE           X         Y         Z       TOTAL
 POINT-CHG.    -0.120     1.431    -0.870     1.679
 HYBRID         0.207     0.281    -0.334     0.484
 SUM            0.087     1.712    -1.204     2.095


          ATOMIC ORBITAL ELECTRON POPULATIONS

     Atom    s        px        py        pz   
    1  C   1.05139   1.08381   1.19398   1.11878
    2  C   1.06544   0.96456   0.98559   1.00718
    3  C   1.07358   1.08114   1.11488   0.97246
    4  N   1.74722   1.07409   1.34520   1.27481
    5  C   1.07732   0.83871   1.03243   1.03021
    6  C   1.07257   1.07390   1.08702   1.06429
    7  C   1.06528   1.08027   1.08076   1.05182
    8  C   1.07252   1.07445   1.08878   1.06069
    9  H   0.83778
   10  H   0.83899
   11  H   0.83924
   12  H   0.84152
   13  H   0.82818
   14  H   0.83809
   15  H   0.86490
   16  H   0.84705
   17  H   0.85209
   18  H   0.85376
   19  H   0.85380
   20  H   0.84629
   21  H   0.85323

 **********************
 *                    *
 * JOB ENDED NORMALLY *
 *                    *
 **********************



 TOTAL JOB TIME:             1.66 SECONDS

 == MOPAC DONE ==
