 *******************************************************************************
 **                                                                           **
 **                              MOPAC v23.2                                  **
 **                                                                           **
 *******************************************************************************
 **          Digital Object Identifier (DOI): 10.5281/zenodo.6511958          **
 **    Visit the DOI location for information on how to cite this program.    **
 *******************************************************************************

                              PM7 CALCULATION RESULTS

 *******************************************************************************
 *  CALCULATION DONE: (MAX THREADS = 40)             Fri Sep 19 21:38:58 2025  *
 *  PM7        - The PM7 Hamiltonian to be used
 *
 *
 *
 *                 CHARGE ON SYSTEM = +1
 *
 *
 *
 *  1SCF       - DO 1 SCF AND THEN STOP 
 *  T=         - A TIME OF 172800.0 SECONDS REQUESTED
 *  DUMP=N     - RESTART FILE WRITTEN EVERY 7200.0 SECONDS REQUESTED
 *  RELSCF     - DEFAULT SCF CRITERION MULTIPLIED BY 0.0001
 *              (DEFAULT SCF CRITERION = 0.00010)
 *  GRADIENTS  - ALL GRADIENTS TO BE PRINTED
 *  DISP       - PRINT DISPERSION AND HYDROGEN BOND ENERGIES
 *******************************************************************************
PM7 1SCF GRADIENTS DISP RELSCF=0.0001 CHARGE=1
 Title: ASE calculation

   ATOM   CHEMICAL          X               Y               Z
  NUMBER   SYMBOL      (ANGSTROMS)     (ANGSTROMS)     (ANGSTROMS)

     1       O          2.82653130  *  -0.03266128  *   1.44133164  *
     2       C          2.74954780  *  -0.84408032  *   0.56914794  *
     3       O          1.51964360  *  -1.09876887  *  -0.01458616  *
     4       C          0.39642099  *  -0.49538898  *   0.57081477  *
     5       C          0.13017998  *   0.85500881  *  -0.02534547  *
     6       C         -1.25566830  *   1.02046807  *  -0.33411771  *
     7       C         -1.94680392  *  -0.36874762  *  -0.10851448  *
     8       O         -2.42945463  *  -0.69448818  *  -1.38261775  *
     9       C         -0.83522353  *  -1.27674841  *   0.29856473  *
    10       H          3.48431809  *  -1.47758652  *   0.06607037  *
    11       H          0.55161878  *  -0.38499882  *   1.70319427  *
    12       H          0.92105448  *   1.59289051  *  -0.20825885  *
    13       H         -1.79148104  *   1.87750452  *   0.15747199  *
    14       H         -1.44027112  *   1.34513044  *  -1.41992661  *
    15       H         -2.77824506  *  -0.32566818  *   0.63330773  *
    16       H         -3.06125943  *  -1.45487844  *  -1.35810813  *
    17       H         -0.88142761  *  -2.34553493  *   0.28826378  *



          CARTESIAN COORDINATES 

    NO.       ATOM           X           Y           Z

     1         O          2.8265     -0.0327      1.4413
     2         C          2.7495     -0.8441      0.5691
     3         O          1.5196     -1.0988     -0.0146
     4         C          0.3964     -0.4954      0.5708
     5         C          0.1302      0.8550     -0.0253
     6         C         -1.2557      1.0205     -0.3341
     7         C         -1.9468     -0.3687     -0.1085
     8         O         -2.4295     -0.6945     -1.3826
     9         C         -0.8352     -1.2767      0.2986
    10         H          3.4843     -1.4776      0.0661
    11         H          0.5516     -0.3850      1.7032
    12         H          0.9211      1.5929     -0.2083
    13         H         -1.7915      1.8775      0.1575
    14         H         -1.4403      1.3451     -1.4199
    15         H         -2.7782     -0.3257      0.6333
    16         H         -3.0613     -1.4549     -1.3581
    17         H         -0.8814     -2.3455      0.2883

 General Reference for PM7:
 "Optimization of Parameters for Semiempirical Methods VI: More Modifications to the 
 NDDO Approximations and Re-optimization of Parameters", J. J. P. Stewart, J. Mol. Mod., 1:32, 19 (2013)
 https://link.springer.com/article/10.1007/s00894-012-1667-x

           Empirical Formula: C6 H8 O3  =    17 atoms



      MOLECULAR POINT GROUP   :   C1  


          UHF CALCULATION, NO. OF ALPHA ELECTRONS =   25
                           NO. OF BETA  ELECTRONS =   24
  SCF CRITERION =    0.1000E-07

 -------------------------------------------------------------------------------
 PM7 1SCF GRADIENTS DISP RELSCF=0.0001 CHARGE=1
 Title: ASE calculation



     1SCF WAS SPECIFIED, SO BFGS WAS NOT USED                 
     SCF FIELD WAS ACHIEVED                                   


                              PM7 CALCULATION
                                                       MOPAC v23.2 Linux
                                                       Fri Sep 19 21:38:59 2025




          FINAL HEAT OF FORMATION =        117.41586 KCAL/MOL =     491.26794 KJ/MOL

          TOTAL ENERGY            =     -39678.61679 KCAL/MOL = ELECTRONIC ENERGY + CORE-CORE REPULSION
          ENERGY OF ATOMS         =      39797.54792 KCAL/MOL
                              SUM =        118.93113 KCAL/MOL
          DISPERSION ENERGY       =         -1.51527 KCAL/MOL
                              SUM =        117.41586 KCAL/MOL = FINAL HEAT OF FORMATION



          TOTAL ENERGY            =      -1720.62767 EV
          ELECTRONIC ENERGY       =      -7562.49363 EV 
          CORE-CORE REPULSION     =       5841.86595 EV
          COSMO AREA              =        157.54 SQUARE ANGSTROMS
          COSMO VOLUME            =        151.66 CUBIC ANGSTROMS

          GRADIENT NORM           =          1.12580          =       0.27305 PER ATOM
          IONIZATION POTENTIAL    =         14.279513 EV
          ALPHA SOMO LUMO (EV)    =        -14.280 -7.345
          BETA  SOMO LUMO (EV)    =        -15.216 -7.322
          NO. OF ALPHA ELECTRONS  =         25
          NO. OF BETA  ELECTRONS  =         24
          MOLECULAR WEIGHT        =        128.1274         POINT GROUP:  C1  

          MOLECULAR DIMENSIONS (Angstroms)

            Atom       Atom       Distance
            H    16    H    10     6.69876
            H    17    H    13     4.22042
            H    14    H    11     2.65471


          SCF CALCULATIONS        =          1

          WALL-CLOCK TIME         =      0.727 SECONDS
          COMPUTATION TIME        =      0.829 SECONDS

          LARGEST ATOMIC GRADIENTS

          Atom     Label                     Cartesian Gradients           Cartesian Coordinates       |Gradient|
                                           X          Y          Z        X          Y          Z

             6       C                  -0.087     -0.272     -0.292   -1.25567    1.02047   -0.33412      0.408
            14       H                  -0.286      0.018     -0.233   -1.44027    1.34513   -1.41993      0.369
             5       C                   0.163     -0.075      0.309    0.13018    0.85501   -0.02535      0.357
            10       H                   0.057      0.099      0.337    3.48432   -1.47759    0.06607      0.356
             2       C                   0.127      0.250     -0.157    2.74955   -0.84408    0.56915      0.322
            13       H                   0.151     -0.164      0.227   -1.79148    1.87750    0.15747      0.318
             1       O                  -0.170     -0.229     -0.046    2.82653   -0.03266    1.44133      0.289
            12       H                  -0.216      0.145     -0.106    0.92105    1.59289   -0.20826      0.281
             3       O                   0.038     -0.235     -0.080    1.51964   -1.09877   -0.01459      0.251
             8       O                   0.104      0.181     -0.116   -2.42945   -0.69449   -1.38262      0.239



       FINAL  POINT  AND  DERIVATIVES

   PARAMETER     ATOM    TYPE            VALUE        GRADIENT
      1          1  O    CARTESIAN X     2.826531     -0.170050  KCAL/ANGSTROM
      2          1  O    CARTESIAN Y    -0.032661     -0.228805  KCAL/ANGSTROM
      3          1  O    CARTESIAN Z     1.441332     -0.045622  KCAL/ANGSTROM
      4          2  C    CARTESIAN X     2.749548      0.127047  KCAL/ANGSTROM
      5          2  C    CARTESIAN Y    -0.844080      0.250105  KCAL/ANGSTROM
      6          2  C    CARTESIAN Z     0.569148     -0.157463  KCAL/ANGSTROM
      7          3  O    CARTESIAN X     1.519644      0.037850  KCAL/ANGSTROM
      8          3  O    CARTESIAN Y    -1.098769     -0.234902  KCAL/ANGSTROM
      9          3  O    CARTESIAN Z    -0.014586     -0.080108  KCAL/ANGSTROM
     10          4  C    CARTESIAN X     0.396421      0.147927  KCAL/ANGSTROM
     11          4  C    CARTESIAN Y    -0.495389     -0.040742  KCAL/ANGSTROM
     12          4  C    CARTESIAN Z     0.570815      0.014047  KCAL/ANGSTROM
     13          5  C    CARTESIAN X     0.130180      0.162950  KCAL/ANGSTROM
     14          5  C    CARTESIAN Y     0.855009     -0.074955  KCAL/ANGSTROM
     15          5  C    CARTESIAN Z    -0.025345      0.308626  KCAL/ANGSTROM
     16          6  C    CARTESIAN X    -1.255668     -0.086510  KCAL/ANGSTROM
     17          6  C    CARTESIAN Y     1.020468     -0.271995  KCAL/ANGSTROM
     18          6  C    CARTESIAN Z    -0.334118     -0.291627  KCAL/ANGSTROM
     19          7  C    CARTESIAN X    -1.946804      0.072163  KCAL/ANGSTROM
     20          7  C    CARTESIAN Y    -0.368748      0.081375  KCAL/ANGSTROM
     21          7  C    CARTESIAN Z    -0.108514     -0.021201  KCAL/ANGSTROM
     22          8  O    CARTESIAN X    -2.429455      0.104284  KCAL/ANGSTROM
     23          8  O    CARTESIAN Y    -0.694488      0.181134  KCAL/ANGSTROM
     24          8  O    CARTESIAN Z    -1.382618     -0.116497  KCAL/ANGSTROM
     25          9  C    CARTESIAN X    -0.835224     -0.070386  KCAL/ANGSTROM
     26          9  C    CARTESIAN Y    -1.276748      0.152176  KCAL/ANGSTROM
     27          9  C    CARTESIAN Z     0.298565     -0.008781  KCAL/ANGSTROM
     28         10  H    CARTESIAN X     3.484318      0.056920  KCAL/ANGSTROM
     29         10  H    CARTESIAN Y    -1.477587      0.099140  KCAL/ANGSTROM
     30         10  H    CARTESIAN Z     0.066070      0.336905  KCAL/ANGSTROM
     31         11  H    CARTESIAN X     0.551619     -0.072299  KCAL/ANGSTROM
     32         11  H    CARTESIAN Y    -0.384999     -0.075746  KCAL/ANGSTROM
     33         11  H    CARTESIAN Z     1.703194     -0.099315  KCAL/ANGSTROM
     34         12  H    CARTESIAN X     0.921054     -0.216260  KCAL/ANGSTROM
     35         12  H    CARTESIAN Y     1.592891      0.145389  KCAL/ANGSTROM
     36         12  H    CARTESIAN Z    -0.208259     -0.105611  KCAL/ANGSTROM
     37         13  H    CARTESIAN X    -1.791481      0.151067  KCAL/ANGSTROM
     38         13  H    CARTESIAN Y     1.877505     -0.164210  KCAL/ANGSTROM
     39         13  H    CARTESIAN Z     0.157472      0.227006  KCAL/ANGSTROM
     40         14  H    CARTESIAN X    -1.440271     -0.285924  KCAL/ANGSTROM
     41         14  H    CARTESIAN Y     1.345130      0.017761  KCAL/ANGSTROM
     42         14  H    CARTESIAN Z    -1.419927     -0.232698  KCAL/ANGSTROM
     43         15  H    CARTESIAN X    -2.778245      0.199280  KCAL/ANGSTROM
     44         15  H    CARTESIAN Y    -0.325668      0.071977  KCAL/ANGSTROM
     45         15  H    CARTESIAN Z     0.633308      0.077447  KCAL/ANGSTROM
     46         16  H    CARTESIAN X    -3.061259      0.018641  KCAL/ANGSTROM
     47         16  H    CARTESIAN Y    -1.454878      0.036585  KCAL/ANGSTROM
     48         16  H    CARTESIAN Z    -1.358108      0.224480  KCAL/ANGSTROM
     49         17  H    CARTESIAN X    -0.881428     -0.176704  KCAL/ANGSTROM
     50         17  H    CARTESIAN Y    -2.345535      0.055710  KCAL/ANGSTROM
     51         17  H    CARTESIAN Z     0.288264     -0.029590  KCAL/ANGSTROM




   ATOM   CHEMICAL          X               Y               Z
  NUMBER   SYMBOL      (ANGSTROMS)     (ANGSTROMS)     (ANGSTROMS)

     1       O          2.82653130  *  -0.03266128  *   1.44133164  *
     2       C          2.74954780  *  -0.84408032  *   0.56914794  *
     3       O          1.51964360  *  -1.09876887  *  -0.01458616  *
     4       C          0.39642099  *  -0.49538898  *   0.57081477  *
     5       C          0.13017998  *   0.85500881  *  -0.02534547  *
     6       C         -1.25566830  *   1.02046807  *  -0.33411771  *
     7       C         -1.94680392  *  -0.36874762  *  -0.10851448  *
     8       O         -2.42945463  *  -0.69448818  *  -1.38261775  *
     9       C         -0.83522353  *  -1.27674841  *   0.29856473  *
    10       H          3.48431809  *  -1.47758652  *   0.06607037  *
    11       H          0.55161878  *  -0.38499882  *   1.70319427  *
    12       H          0.92105448  *   1.59289051  *  -0.20825885  *
    13       H         -1.79148104  *   1.87750452  *   0.15747199  *
    14       H         -1.44027112  *   1.34513044  *  -1.41992661  *
    15       H         -2.77824506  *  -0.32566818  *   0.63330773  *
    16       H         -3.06125943  *  -1.45487844  *  -1.35810813  *
    17       H         -0.88142761  *  -2.34553493  *   0.28826378  *

                             CARTESIAN COORDINATES

   1    O        2.826531299    -0.032661275     1.441331638
   2    C        2.749547805    -0.844080320     0.569147940
   3    O        1.519643598    -1.098768875    -0.014586158
   4    C        0.396420994    -0.495388979     0.570814766
   5    C        0.130179978     0.855008811    -0.025345470
   6    C       -1.255668299     1.020468071    -0.334117714
   7    C       -1.946803917    -0.368747617    -0.108514480
   8    O       -2.429454633    -0.694488177    -1.382617746
   9    C       -0.835223534    -1.276748407     0.298564732
  10    H        3.484318087    -1.477586522     0.066070373
  11    H        0.551618780    -0.384998817     1.703194268
  12    H        0.921054482     1.592890514    -0.208258852
  13    H       -1.791481045     1.877504520     0.157471993
  14    H       -1.440271122     1.345130444    -1.419926606
  15    H       -2.778245057    -0.325668179     0.633307727
  16    H       -3.061259427    -1.454878441    -1.358108126
  17    H       -0.881427615    -2.345534929     0.288263782


           Empirical Formula: C6 H8 O3  =    17 atoms



      MOLECULAR POINT GROUP   :   C1  


          ALPHA EIGENVALUES  
 -36.93541 -36.06723 -34.69331 -33.62103 -30.52779 -29.63444 -27.24020 -25.00689
 -24.71366 -23.09777 -22.71194 -22.01800 -20.81303 -20.44920 -19.33694 -19.17172
 -18.98836 -18.72379 -18.42328 -17.83955 -17.20862 -16.24054 -15.66431 -15.31116
 -14.27951  -7.34472  -3.57044  -3.23744  -2.82413  -2.49268  -2.02343  -1.75463
  -1.48068  -0.86846  -0.84358  -0.68972  -0.58258  -0.35867   0.08640   0.29453
   0.65015   1.10673   1.63041   1.72997


           BETA EIGENVALUES 
 -36.86327 -36.03526 -34.62186 -33.49120 -30.41974 -29.52287 -27.19643 -24.93773
 -24.53059 -22.97072 -22.65668 -21.96898 -20.75811 -20.41595 -19.26538 -19.13783
 -18.87860 -18.63094 -18.34953 -17.68985 -17.07002 -16.20013 -15.61172 -15.21646
  -7.32226  -4.85298  -3.56065  -3.10181  -2.78972  -2.41976  -2.01381  -1.58477
  -1.28221  -0.84426  -0.72973  -0.52708  -0.51127  -0.25970   0.10174   0.29812
   0.70815   1.11251   1.72646   1.84266


              NET ATOMIC CHARGES AND DIPOLE CONTRIBUTIONS

  ATOM NO.   TYPE          CHARGE      No. of ELECS.   s-Pop       p-Pop       
    1          O          -0.427559        6.4276     1.87546     4.55210
    2          C           0.498591        3.5014     1.17557     2.32584
    3          O          -0.400697        6.4007     1.87459     4.52611
    4          C           0.011517        3.9885     1.08919     2.89929
    5          C           0.385836        3.6142     1.22730     2.38687
    6          C          -0.460527        4.4605     1.08076     3.37977
    7          C           0.172088        3.8279     1.08472     2.74319
    8          O          -0.525191        6.5252     1.85080     4.67439
    9          C          -0.201380        4.2014     1.14476     3.05662
   10          H           0.208752        0.7912     0.79125
   11          H           0.242461        0.7575     0.75754
   12          H           0.196140        0.8039     0.80386
   13          H           0.269511        0.7305     0.73049
   14          H           0.300859        0.6991     0.69914
   15          H           0.169134        0.8309     0.83087
   16          H           0.356165        0.6438     0.64384
   17          H           0.204302        0.7957     0.79570
 DIPOLE           X         Y         Z       TOTAL
 POINT-CHG.    -2.150     2.671     0.285     3.441
 HYBRID         0.022     0.306    -0.344     0.460
 SUM           -2.128     2.977    -0.058     3.660


          ATOMIC ORBITAL ELECTRON POPULATIONS

     Atom    s        px        py        pz   
    1  O   1.87546   1.81371   1.38030   1.35810
    2  C   1.17557   0.80218   0.77153   0.75213
    3  O   1.87459   1.25022   1.68054   1.59535
    4  C   1.08919   0.90787   0.91197   1.07945
    5  C   1.22730   1.01718   0.96220   0.40748
    6  C   1.08076   1.02003   1.14811   1.21163
    7  C   1.08472   0.99508   0.86728   0.88083
    8  O   1.85080   1.71616   1.63376   1.32447
    9  C   1.14476   0.94206   1.10202   1.01254
   10  H   0.79125
   11  H   0.75754
   12  H   0.80386
   13  H   0.73049
   14  H   0.69914
   15  H   0.83087
   16  H   0.64384
   17  H   0.79570


                    (SZ)    =    0.500000
                    (S**2)  =    0.754392


          ATOMIC ORBITAL SPIN POPULATIONS

    Atom   Total    s     px     py     pz   
         Atomic
    1  O  0.0025  0.000  0.002  0.001 -0.000
    2  C -0.0018 -0.001 -0.001 -0.000 -0.001
    3  O  0.0211  0.000  0.010  0.001  0.010
    4  C -0.0488 -0.003 -0.020 -0.012 -0.014
    5  C  0.0091  0.002  0.001  0.008 -0.002
    6  C  0.0062  0.001  0.002  0.003 -0.000
    7  C -0.0532 -0.003 -0.019 -0.013 -0.018
    8  O  0.0357  0.000  0.002  0.002  0.031
    9  C  1.0126  0.029  0.094  0.032  0.856
   10  H  0.0015  0.001
   11  H  0.0266  0.027
   12  H -0.0004 -0.000
   13  H -0.0009 -0.001
   14  H -0.0008 -0.001
   15  H  0.0196  0.020
   16  H -0.0026 -0.003
   17  H -0.0265 -0.027

 **********************
 *                    *
 * JOB ENDED NORMALLY *
 *                    *
 **********************



 TOTAL JOB TIME:             1.07 SECONDS

 == MOPAC DONE ==
