 *******************************************************************************
 **                                                                           **
 **                              MOPAC v23.2                                  **
 **                                                                           **
 *******************************************************************************
 **          Digital Object Identifier (DOI): 10.5281/zenodo.6511958          **
 **    Visit the DOI location for information on how to cite this program.    **
 *******************************************************************************

                              PM7 CALCULATION RESULTS

 *******************************************************************************
 *  CALCULATION DONE: (MAX THREADS = 40)             Fri Sep 19 21:52:24 2025  *
 *  PM7        - The PM7 Hamiltonian to be used
 *  1SCF       - DO 1 SCF AND THEN STOP 
 *  T=         - A TIME OF 172800.0 SECONDS REQUESTED
 *  DUMP=N     - RESTART FILE WRITTEN EVERY 7200.0 SECONDS REQUESTED
 *  RELSCF     - DEFAULT SCF CRITERION MULTIPLIED BY 0.0001
 *              (DEFAULT SCF CRITERION = 0.00010)
 *  GRADIENTS  - ALL GRADIENTS TO BE PRINTED
 *  DISP       - PRINT DISPERSION AND HYDROGEN BOND ENERGIES
 *******************************************************************************
PM7 1SCF GRADIENTS DISP RELSCF=0.0001
 Title: ASE calculation

   ATOM   CHEMICAL          X               Y               Z
  NUMBER   SYMBOL      (ANGSTROMS)     (ANGSTROMS)     (ANGSTROMS)

     1       C         -2.53874448  *  -1.27015433  *   0.30755252  *
     2       N         -1.08094680  *  -1.48926189  *   0.28841885  *
     3       C         -0.32447511  *  -0.40748699  *  -0.16301630  *
     4       N         -0.81135074  *   0.89579749  *  -0.27879415  *
     5       C          0.23350293  *   1.67908463  *  -0.61160980  *
     6       N          1.40122491  *   0.93333924  *  -0.71462009  *
     7       C          1.05073667  *  -0.40018462  *  -0.44822606  *
     8       O          1.95785222  *  -1.38189423  *  -0.58222296  *
     9       C          2.51017934  *  -1.79656568  *   0.67685073  *
    10       H         -2.98103260  *  -1.16714200  *  -0.69622302  *
    11       H         -2.76611973  *  -0.33890737  *   0.86380367  *
    12       H         -3.01287660  *  -2.11280049  *   0.83590429  *
    13       H         -0.81877337  *  -2.37092740  *  -0.15082430  *
    14       H          0.18174803  *   2.74257680  *  -0.77390751  *
    15       H          2.30380040  *   1.23819276  *  -0.99795334  *
    16       H          3.05510757  *  -0.97521786  *   1.14787503  *
    17       H          3.18921964  *  -2.60389757  *   0.37992915  *
    18       H          1.72036998  *  -2.16891839  *   1.33699545  *



          CARTESIAN COORDINATES 

    NO.       ATOM           X           Y           Z

     1         C         -2.5387     -1.2702      0.3076
     2         N         -1.0809     -1.4893      0.2884
     3         C         -0.3245     -0.4075     -0.1630
     4         N         -0.8114      0.8958     -0.2788
     5         C          0.2335      1.6791     -0.6116
     6         N          1.4012      0.9333     -0.7146
     7         C          1.0507     -0.4002     -0.4482
     8         O          1.9579     -1.3819     -0.5822
     9         C          2.5102     -1.7966      0.6769
    10         H         -2.9810     -1.1671     -0.6962
    11         H         -2.7661     -0.3389      0.8638
    12         H         -3.0129     -2.1128      0.8359
    13         H         -0.8188     -2.3709     -0.1508
    14         H          0.1817      2.7426     -0.7739
    15         H          2.3038      1.2382     -0.9980
    16         H          3.0551     -0.9752      1.1479
    17         H          3.1892     -2.6039      0.3799
    18         H          1.7204     -2.1689      1.3370

 General Reference for PM7:
 "Optimization of Parameters for Semiempirical Methods VI: More Modifications to the 
 NDDO Approximations and Re-optimization of Parameters", J. J. P. Stewart, J. Mol. Mod., 1:32, 19 (2013)
 https://link.springer.com/article/10.1007/s00894-012-1667-x

           Empirical Formula: C5 H9 N3 O  =    18 atoms



      MOLECULAR POINT GROUP   :   C1  


      RHF CALCULATION, NO. OF DOUBLY OCCUPIED LEVELS = 25

  SCF CRITERION =    0.1000E-07

 -------------------------------------------------------------------------------
 PM7 1SCF GRADIENTS DISP RELSCF=0.0001
 Title: ASE calculation



     1SCF WAS SPECIFIED, SO BFGS WAS NOT USED                 
     SCF FIELD WAS ACHIEVED                                   


                              PM7 CALCULATION
                                                       MOPAC v23.2 Linux
                                                       Fri Sep 19 21:52:25 2025




          FINAL HEAT OF FORMATION =          1.02083 KCAL/MOL =       4.27115 KJ/MOL

          TOTAL ENERGY            =     -36633.73122 KCAL/MOL = ELECTRONIC ENERGY + CORE-CORE REPULSION
          ENERGY OF ATOMS         =      36636.88379 KCAL/MOL
                              SUM =          3.15258 KCAL/MOL
          DISPERSION ENERGY       =         -2.13134 KCAL/MOL
          H-BOND ENERGY           =         -0.00041 KCAL/MOL
                              SUM =          1.02083 KCAL/MOL = FINAL HEAT OF FORMATION



          TOTAL ENERGY            =      -1588.58894 EV
          ELECTRONIC ENERGY       =      -7480.51302 EV 
          CORE-CORE REPULSION     =       5891.92408 EV
          COSMO AREA              =        163.74 SQUARE ANGSTROMS
          COSMO VOLUME            =        157.35 CUBIC ANGSTROMS

          GRADIENT NORM           =          1.00810          =       0.23761 PER ATOM
          IONIZATION POTENTIAL    =          8.140980 EV
          HOMO LUMO ENERGIES (EV) =         -8.141  0.521
          NO. OF FILLED LEVELS    =         25
          MOLECULAR WEIGHT        =        127.1456         POINT GROUP:  C1  

          MOLECULAR DIMENSIONS (Angstroms)

            Atom       Atom       Distance
            H    15    H    12     6.54670
            H    17    H    14     6.21126
            H    16    H    10     2.68261


          SCF CALCULATIONS        =          1

          WALL-CLOCK TIME         =      0.742 SECONDS
          COMPUTATION TIME        =      0.599 SECONDS

          LARGEST ATOMIC GRADIENTS

          Atom     Label                     Cartesian Gradients           Cartesian Coordinates       |Gradient|
                                           X          Y          Z        X          Y          Z

             1       C                   0.417      0.085      0.015   -2.53874   -1.27015    0.30755      0.425
             8       O                  -0.317      0.102     -0.163    1.95785   -1.38189   -0.58222      0.371
            11       H                   0.019      0.335     -0.066   -2.76612   -0.33891    0.86380      0.342
            13       H                  -0.173      0.225      0.130   -0.81877   -2.37093   -0.15082      0.312
            12       H                  -0.036     -0.295     -0.017   -3.01288   -2.11280    0.83590      0.297
             9       C                  -0.041     -0.147      0.229    2.51018   -1.79657    0.67685      0.275
            16       H                   0.197      0.188     -0.022    3.05511   -0.97522    1.14788      0.273
             3       C                  -0.105     -0.195      0.021   -0.32448   -0.40749   -0.16302      0.222
            14       H                   0.144      0.082      0.106    0.18175    2.74258   -0.77391      0.196
            18       H                   0.053     -0.177     -0.012    1.72037   -2.16892    1.33700      0.185



       FINAL  POINT  AND  DERIVATIVES

   PARAMETER     ATOM    TYPE            VALUE        GRADIENT
      1          1  C    CARTESIAN X    -2.538744      0.416639  KCAL/ANGSTROM
      2          1  C    CARTESIAN Y    -1.270154      0.084973  KCAL/ANGSTROM
      3          1  C    CARTESIAN Z     0.307553      0.015317  KCAL/ANGSTROM
      4          2  N    CARTESIAN X    -1.080947     -0.002214  KCAL/ANGSTROM
      5          2  N    CARTESIAN Y    -1.489262     -0.131715  KCAL/ANGSTROM
      6          2  N    CARTESIAN Z     0.288419      0.023646  KCAL/ANGSTROM
      7          3  C    CARTESIAN X    -0.324475     -0.104778  KCAL/ANGSTROM
      8          3  C    CARTESIAN Y    -0.407487     -0.194570  KCAL/ANGSTROM
      9          3  C    CARTESIAN Z    -0.163016      0.021180  KCAL/ANGSTROM
     10          4  N    CARTESIAN X    -0.811351     -0.061785  KCAL/ANGSTROM
     11          4  N    CARTESIAN Y     0.895797     -0.150541  KCAL/ANGSTROM
     12          4  N    CARTESIAN Z    -0.278794     -0.042727  KCAL/ANGSTROM
     13          5  C    CARTESIAN X     0.233503     -0.015225  KCAL/ANGSTROM
     14          5  C    CARTESIAN Y     1.679085      0.020561  KCAL/ANGSTROM
     15          5  C    CARTESIAN Z    -0.611610     -0.075864  KCAL/ANGSTROM
     16          6  N    CARTESIAN X     1.401225      0.037976  KCAL/ANGSTROM
     17          6  N    CARTESIAN Y     0.933339      0.046536  KCAL/ANGSTROM
     18          6  N    CARTESIAN Z    -0.714620     -0.057426  KCAL/ANGSTROM
     19          7  C    CARTESIAN X     1.050737     -0.067611  KCAL/ANGSTROM
     20          7  C    CARTESIAN Y    -0.400185     -0.031950  KCAL/ANGSTROM
     21          7  C    CARTESIAN Z    -0.448226      0.059794  KCAL/ANGSTROM
     22          8  O    CARTESIAN X     1.957852     -0.316688  KCAL/ANGSTROM
     23          8  O    CARTESIAN Y    -1.381894      0.102423  KCAL/ANGSTROM
     24          8  O    CARTESIAN Z    -0.582223     -0.162941  KCAL/ANGSTROM
     25          9  C    CARTESIAN X     2.510179     -0.041107  KCAL/ANGSTROM
     26          9  C    CARTESIAN Y    -1.796566     -0.147125  KCAL/ANGSTROM
     27          9  C    CARTESIAN Z     0.676851      0.228839  KCAL/ANGSTROM
     28         10  H    CARTESIAN X    -2.981033     -0.033215  KCAL/ANGSTROM
     29         10  H    CARTESIAN Y    -1.167142     -0.025263  KCAL/ANGSTROM
     30         10  H    CARTESIAN Z    -0.696223     -0.154746  KCAL/ANGSTROM
     31         11  H    CARTESIAN X    -2.766120      0.019457  KCAL/ANGSTROM
     32         11  H    CARTESIAN Y    -0.338907      0.334896  KCAL/ANGSTROM
     33         11  H    CARTESIAN Z     0.863804     -0.065690  KCAL/ANGSTROM
     34         12  H    CARTESIAN X    -3.012877     -0.035900  KCAL/ANGSTROM
     35         12  H    CARTESIAN Y    -2.112800     -0.294525  KCAL/ANGSTROM
     36         12  H    CARTESIAN Z     0.835904     -0.017396  KCAL/ANGSTROM
     37         13  H    CARTESIAN X    -0.818773     -0.172593  KCAL/ANGSTROM
     38         13  H    CARTESIAN Y    -2.370927      0.225491  KCAL/ANGSTROM
     39         13  H    CARTESIAN Z    -0.150824      0.129772  KCAL/ANGSTROM
     40         14  H    CARTESIAN X     0.181748      0.143707  KCAL/ANGSTROM
     41         14  H    CARTESIAN Y     2.742577      0.081977  KCAL/ANGSTROM
     42         14  H    CARTESIAN Z    -0.773908      0.105954  KCAL/ANGSTROM
     43         15  H    CARTESIAN X     2.303800     -0.114512  KCAL/ANGSTROM
     44         15  H    CARTESIAN Y     1.238193      0.002282  KCAL/ANGSTROM
     45         15  H    CARTESIAN Z    -0.997953      0.034452  KCAL/ANGSTROM
     46         16  H    CARTESIAN X     3.055108      0.197388  KCAL/ANGSTROM
     47         16  H    CARTESIAN Y    -0.975218      0.187683  KCAL/ANGSTROM
     48         16  H    CARTESIAN Z     1.147875     -0.021612  KCAL/ANGSTROM
     49         17  H    CARTESIAN X     3.189220      0.097495  KCAL/ANGSTROM
     50         17  H    CARTESIAN Y    -2.603898      0.066067  KCAL/ANGSTROM
     51         17  H    CARTESIAN Z     0.379929     -0.008189  KCAL/ANGSTROM
     52         18  H    CARTESIAN X     1.720370      0.052966  KCAL/ANGSTROM
     53         18  H    CARTESIAN Y    -2.168918     -0.177203  KCAL/ANGSTROM
     54         18  H    CARTESIAN Z     1.336995     -0.012364  KCAL/ANGSTROM




   ATOM   CHEMICAL          X               Y               Z
  NUMBER   SYMBOL      (ANGSTROMS)     (ANGSTROMS)     (ANGSTROMS)

     1       C         -2.53874448  *  -1.27015433  *   0.30755252  *
     2       N         -1.08094680  *  -1.48926189  *   0.28841885  *
     3       C         -0.32447511  *  -0.40748699  *  -0.16301630  *
     4       N         -0.81135074  *   0.89579749  *  -0.27879415  *
     5       C          0.23350293  *   1.67908463  *  -0.61160980  *
     6       N          1.40122491  *   0.93333924  *  -0.71462009  *
     7       C          1.05073667  *  -0.40018462  *  -0.44822606  *
     8       O          1.95785222  *  -1.38189423  *  -0.58222296  *
     9       C          2.51017934  *  -1.79656568  *   0.67685073  *
    10       H         -2.98103260  *  -1.16714200  *  -0.69622302  *
    11       H         -2.76611973  *  -0.33890737  *   0.86380367  *
    12       H         -3.01287660  *  -2.11280049  *   0.83590429  *
    13       H         -0.81877337  *  -2.37092740  *  -0.15082430  *
    14       H          0.18174803  *   2.74257680  *  -0.77390751  *
    15       H          2.30380040  *   1.23819276  *  -0.99795334  *
    16       H          3.05510757  *  -0.97521786  *   1.14787503  *
    17       H          3.18921964  *  -2.60389757  *   0.37992915  *
    18       H          1.72036998  *  -2.16891839  *   1.33699545  *

                             CARTESIAN COORDINATES

   1    C       -2.538744476    -1.270154331     0.307552519
   2    N       -1.080946797    -1.489261892     0.288418848
   3    C       -0.324475105    -0.407486988    -0.163016296
   4    N       -0.811350742     0.895797492    -0.278794153
   5    C        0.233502928     1.679084634    -0.611609798
   6    N        1.401224905     0.933339238    -0.714620091
   7    C        1.050736672    -0.400184623    -0.448226060
   8    O        1.957852225    -1.381894234    -0.582222956
   9    C        2.510179340    -1.796565685     0.676850734
  10    H       -2.981032603    -1.167141999    -0.696223021
  11    H       -2.766119732    -0.338907368     0.863803672
  12    H       -3.012876598    -2.112800492     0.835904286
  13    H       -0.818773370    -2.370927401    -0.150824301
  14    H        0.181748035     2.742576800    -0.773907506
  15    H        2.303800397     1.238192762    -0.997953337
  16    H        3.055107573    -0.975217860     1.147875025
  17    H        3.189219641    -2.603897568     0.379929152
  18    H        1.720369976    -2.168918388     1.336995451


           Empirical Formula: C5 H9 N3 O  =    18 atoms



      MOLECULAR POINT GROUP   :   C1  


                  EIGENVALUES  
 -38.71454 -35.90319 -33.35987 -30.36560 -25.39891 -24.52325 -23.44457 -21.79597
 -20.24371 -18.87638 -17.16136 -16.45296 -16.04111 -15.29537 -15.12435 -14.70382
 -14.22462 -13.83101 -12.98247 -12.79660 -11.40583 -11.20143 -10.43488 -10.04287
  -8.14098   0.52088   1.43212   1.77091   2.38426   2.91955   3.46272   4.02645
   4.60896   4.65694   5.19230   5.20412   5.44779   5.51669   5.55523   5.76601
   5.85220   6.08370   6.31876   6.50950   6.82483


              NET ATOMIC CHARGES AND DIPOLE CONTRIBUTIONS

  ATOM NO.   TYPE          CHARGE      No. of ELECS.   s-Pop       p-Pop       
    1          C          -0.249472        4.2495     1.06105     3.18842
    2          N          -0.461242        5.4612     1.60510     3.85614
    3          C           0.203823        3.7962     1.04677     2.74941
    4          N          -0.429630        5.4296     1.77102     3.65861
    5          C           0.095527        3.9045     1.09219     2.81228
    6          N          -0.379498        5.3795     1.52905     3.85045
    7          C           0.044647        3.9554     1.04452     2.91083
    8          O          -0.271380        6.2714     1.87285     4.39853
    9          C          -0.217963        4.2180     1.09078     3.12718
   10          H           0.132290        0.8677     0.86771
   11          H           0.172907        0.8271     0.82709
   12          H           0.142003        0.8580     0.85800
   13          H           0.280935        0.7191     0.71906
   14          H           0.190455        0.8095     0.80954
   15          H           0.321018        0.6790     0.67898
   16          H           0.131043        0.8690     0.86896
   17          H           0.151164        0.8488     0.84884
   18          H           0.143373        0.8566     0.85663
 DIPOLE           X         Y         Z       TOTAL
 POINT-CHG.     1.182    -0.004     0.698     1.373
 HYBRID         1.304    -0.315    -1.019     1.685
 SUM            2.486    -0.319    -0.321     2.527


          ATOMIC ORBITAL ELECTRON POPULATIONS

     Atom    s        px        py        pz   
    1  C   1.06105   0.85340   1.17535   1.15967
    2  N   1.60510   1.12913   1.12086   1.60615
    3  C   1.04677   0.89818   0.86097   0.99026
    4  N   1.77102   1.31534   1.07843   1.26484
    5  C   1.09219   0.77320   1.00064   1.03845
    6  N   1.52905   1.17722   1.14991   1.52331
    7  C   1.04452   0.90904   0.77905   1.22274
    8  O   1.87285   1.57742   1.52949   1.29162
    9  C   1.09078   1.09280   1.11107   0.92330
   10  H   0.86771
   11  H   0.82709
   12  H   0.85800
   13  H   0.71906
   14  H   0.80954
   15  H   0.67898
   16  H   0.86896
   17  H   0.84884
   18  H   0.85663

 **********************
 *                    *
 * JOB ENDED NORMALLY *
 *                    *
 **********************



 TOTAL JOB TIME:             1.16 SECONDS

 == MOPAC DONE ==
