 *******************************************************************************
 **                                                                           **
 **                              MOPAC v23.2                                  **
 **                                                                           **
 *******************************************************************************
 **          Digital Object Identifier (DOI): 10.5281/zenodo.6511958          **
 **    Visit the DOI location for information on how to cite this program.    **
 *******************************************************************************

                              PM7 CALCULATION RESULTS

 *******************************************************************************
 *  CALCULATION DONE: (MAX THREADS = 40)             Fri Sep 19 21:31:19 2025  *
 *  PM7        - The PM7 Hamiltonian to be used
 *  1SCF       - DO 1 SCF AND THEN STOP 
 *  T=         - A TIME OF 172800.0 SECONDS REQUESTED
 *  DUMP=N     - RESTART FILE WRITTEN EVERY 7200.0 SECONDS REQUESTED
 *  RELSCF     - DEFAULT SCF CRITERION MULTIPLIED BY 0.0001
 *              (DEFAULT SCF CRITERION = 0.00010)
 *  GRADIENTS  - ALL GRADIENTS TO BE PRINTED
 *  DISP       - PRINT DISPERSION AND HYDROGEN BOND ENERGIES
 *******************************************************************************
PM7 1SCF GRADIENTS DISP RELSCF=0.0001
 Title: ASE calculation

   ATOM   CHEMICAL          X               Y               Z
  NUMBER   SYMBOL      (ANGSTROMS)     (ANGSTROMS)     (ANGSTROMS)

     1       C         -1.85931496  *   0.91538546  *  -0.61449082  *
     2       C         -0.39728341  *   0.78735224  *  -0.23519477  *
     3       C         -0.13586643  *   0.24462464  *   1.21174648  *
     4       C         -0.52319867  *  -1.26070992  *   1.05138129  *
     5       N          0.27412162  *  -1.60537148  *  -0.17393361  *
     6       C          0.34160065  *  -0.34483664  *  -0.98576501  *
     7       C          1.51417639  *  -0.76238559  *  -0.10473384  *
     8       C          1.43041225  *   0.09330841  *   1.18353131  *
     9       O          2.09015896  *   1.30246862  *   0.92438902  *
    10       H         -2.38930930  *   1.59883826  *   0.05878574  *
    11       H         -2.38276395  *  -0.04857311  *  -0.58457434  *
    12       H         -1.96919814  *   1.30350957  *  -1.63533779  *
    13       H          0.12713892  *   1.75749516  *  -0.38785165  *
    14       H         -0.57498054  *   0.79438060  *   2.03054414  *
    15       H         -0.22068170  *  -1.89464740  *   1.89949335  *
    16       H         -1.59636540  *  -1.42655227  *   0.86626402  *
    17       H          0.30555683  *  -0.40583488  *  -2.06096124  *
    18       H          2.45984851  *  -1.14771084  *  -0.44751761  *
    19       H          1.85895557  *  -0.38678822  *   2.07704582  *
    20       H          2.03265981  *   1.89968849  *   1.69749970  *



          CARTESIAN COORDINATES 

    NO.       ATOM           X           Y           Z

     1         C         -1.8593      0.9154     -0.6145
     2         C         -0.3973      0.7874     -0.2352
     3         C         -0.1359      0.2446      1.2117
     4         C         -0.5232     -1.2607      1.0514
     5         N          0.2741     -1.6054     -0.1739
     6         C          0.3416     -0.3448     -0.9858
     7         C          1.5142     -0.7624     -0.1047
     8         C          1.4304      0.0933      1.1835
     9         O          2.0902      1.3025      0.9244
    10         H         -2.3893      1.5988      0.0588
    11         H         -2.3828     -0.0486     -0.5846
    12         H         -1.9692      1.3035     -1.6353
    13         H          0.1271      1.7575     -0.3879
    14         H         -0.5750      0.7944      2.0305
    15         H         -0.2207     -1.8946      1.8995
    16         H         -1.5964     -1.4266      0.8663
    17         H          0.3056     -0.4058     -2.0610
    18         H          2.4598     -1.1477     -0.4475
    19         H          1.8590     -0.3868      2.0770
    20         H          2.0327      1.8997      1.6975

 General Reference for PM7:
 "Optimization of Parameters for Semiempirical Methods VI: More Modifications to the 
 NDDO Approximations and Re-optimization of Parameters", J. J. P. Stewart, J. Mol. Mod., 1:32, 19 (2013)
 https://link.springer.com/article/10.1007/s00894-012-1667-x

           Empirical Formula: C7 H11 N O  =    20 atoms



      MOLECULAR POINT GROUP   :   C1  


      RHF CALCULATION, NO. OF DOUBLY OCCUPIED LEVELS = 25

  SCF CRITERION =    0.1000E-07

 -------------------------------------------------------------------------------
 PM7 1SCF GRADIENTS DISP RELSCF=0.0001
 Title: ASE calculation



     1SCF WAS SPECIFIED, SO BFGS WAS NOT USED                 
     SCF FIELD WAS ACHIEVED                                   


                              PM7 CALCULATION
                                                       MOPAC v23.2 Linux
                                                       Fri Sep 19 21:31:19 2025




          FINAL HEAT OF FORMATION =          4.21654 KCAL/MOL =      17.64200 KJ/MOL

          TOTAL ENERGY            =     -34317.96174 KCAL/MOL = ELECTRONIC ENERGY + CORE-CORE REPULSION
          ENERGY OF ATOMS         =      34323.93363 KCAL/MOL
                              SUM =          5.97189 KCAL/MOL
          DISPERSION ENERGY       =         -1.75535 KCAL/MOL
                              SUM =          4.21654 KCAL/MOL = FINAL HEAT OF FORMATION



          TOTAL ENERGY            =      -1488.16767 EV
          ELECTRONIC ENERGY       =      -7758.84552 EV 
          CORE-CORE REPULSION     =       6270.67785 EV
          COSMO AREA              =        154.75 SQUARE ANGSTROMS
          COSMO VOLUME            =        156.70 CUBIC ANGSTROMS

          GRADIENT NORM           =          1.18694          =       0.26541 PER ATOM
          IONIZATION POTENTIAL    =         10.133027 EV
          HOMO LUMO ENERGIES (EV) =        -10.133  1.986
          NO. OF FILLED LEVELS    =         25
          MOLECULAR WEIGHT        =        125.1700         POINT GROUP:  C1  

          MOLECULAR DIMENSIONS (Angstroms)

            Atom       Atom       Distance
            H    18    H    10     5.59591
            H    20    H    16     4.78119
            H    17    H    15     4.20132


          SCF CALCULATIONS        =          1

          WALL-CLOCK TIME         =      0.687 SECONDS
          COMPUTATION TIME        =      0.964 SECONDS

          LARGEST ATOMIC GRADIENTS

          Atom     Label                     Cartesian Gradients           Cartesian Coordinates       |Gradient|
                                           X          Y          Z        X          Y          Z

            18       H                   0.259      0.245     -0.291    2.45985   -1.14771   -0.44752      0.460
            14       H                   0.144     -0.315     -0.279   -0.57498    0.79438    2.03054      0.445
             6       C                   0.351      0.018     -0.070    0.34160   -0.34484   -0.98577      0.358
             3       C                  -0.172      0.267     -0.043   -0.13587    0.24462    1.21175      0.320
             8       C                  -0.227      0.104      0.192    1.43041    0.09331    1.18353      0.315
             5       N                  -0.290     -0.078      0.071    0.27412   -1.60537   -0.17393      0.308
            13       H                   0.207      0.176     -0.087    0.12714    1.75750   -0.38785      0.285
            20       H                   0.262      0.081      0.074    2.03266    1.89969    1.69750      0.284
             7       C                   0.102     -0.156     -0.196    1.51418   -0.76239   -0.10473      0.270
             2       C                  -0.056      0.142      0.213   -0.39728    0.78735   -0.23519      0.262



       FINAL  POINT  AND  DERIVATIVES

   PARAMETER     ATOM    TYPE            VALUE        GRADIENT
      1          1  C    CARTESIAN X    -1.859315      0.014175  KCAL/ANGSTROM
      2          1  C    CARTESIAN Y     0.915385     -0.047363  KCAL/ANGSTROM
      3          1  C    CARTESIAN Z    -0.614491      0.017306  KCAL/ANGSTROM
      4          2  C    CARTESIAN X    -0.397283     -0.056012  KCAL/ANGSTROM
      5          2  C    CARTESIAN Y     0.787352      0.142084  KCAL/ANGSTROM
      6          2  C    CARTESIAN Z    -0.235195      0.212609  KCAL/ANGSTROM
      7          3  C    CARTESIAN X    -0.135866     -0.171629  KCAL/ANGSTROM
      8          3  C    CARTESIAN Y     0.244625      0.267159  KCAL/ANGSTROM
      9          3  C    CARTESIAN Z     1.211746     -0.042514  KCAL/ANGSTROM
     10          4  C    CARTESIAN X    -0.523199     -0.125126  KCAL/ANGSTROM
     11          4  C    CARTESIAN Y    -1.260710      0.081343  KCAL/ANGSTROM
     12          4  C    CARTESIAN Z     1.051381      0.172951  KCAL/ANGSTROM
     13          5  N    CARTESIAN X     0.274122     -0.289629  KCAL/ANGSTROM
     14          5  N    CARTESIAN Y    -1.605371     -0.078142  KCAL/ANGSTROM
     15          5  N    CARTESIAN Z    -0.173934      0.070788  KCAL/ANGSTROM
     16          6  C    CARTESIAN X     0.341601      0.350539  KCAL/ANGSTROM
     17          6  C    CARTESIAN Y    -0.344837      0.017920  KCAL/ANGSTROM
     18          6  C    CARTESIAN Z    -0.985765     -0.070153  KCAL/ANGSTROM
     19          7  C    CARTESIAN X     1.514176      0.102297  KCAL/ANGSTROM
     20          7  C    CARTESIAN Y    -0.762386     -0.155675  KCAL/ANGSTROM
     21          7  C    CARTESIAN Z    -0.104734     -0.195728  KCAL/ANGSTROM
     22          8  C    CARTESIAN X     1.430412     -0.226898  KCAL/ANGSTROM
     23          8  C    CARTESIAN Y     0.093308      0.103767  KCAL/ANGSTROM
     24          8  C    CARTESIAN Z     1.183531      0.191611  KCAL/ANGSTROM
     25          9  O    CARTESIAN X     2.090159     -0.071975  KCAL/ANGSTROM
     26          9  O    CARTESIAN Y     1.302469     -0.085547  KCAL/ANGSTROM
     27          9  O    CARTESIAN Z     0.924389      0.037500  KCAL/ANGSTROM
     28         10  H    CARTESIAN X    -2.389309     -0.027154  KCAL/ANGSTROM
     29         10  H    CARTESIAN Y     1.598838     -0.200495  KCAL/ANGSTROM
     30         10  H    CARTESIAN Z     0.058786     -0.066246  KCAL/ANGSTROM
     31         11  H    CARTESIAN X    -2.382764     -0.006135  KCAL/ANGSTROM
     32         11  H    CARTESIAN Y    -0.048573      0.018572  KCAL/ANGSTROM
     33         11  H    CARTESIAN Z    -0.584574      0.071204  KCAL/ANGSTROM
     34         12  H    CARTESIAN X    -1.969198      0.020302  KCAL/ANGSTROM
     35         12  H    CARTESIAN Y     1.303510     -0.223524  KCAL/ANGSTROM
     36         12  H    CARTESIAN Z    -1.635338      0.019810  KCAL/ANGSTROM
     37         13  H    CARTESIAN X     0.127139      0.207453  KCAL/ANGSTROM
     38         13  H    CARTESIAN Y     1.757495      0.175551  KCAL/ANGSTROM
     39         13  H    CARTESIAN Z    -0.387852     -0.087047  KCAL/ANGSTROM
     40         14  H    CARTESIAN X    -0.574981      0.144253  KCAL/ANGSTROM
     41         14  H    CARTESIAN Y     0.794381     -0.314930  KCAL/ANGSTROM
     42         14  H    CARTESIAN Z     2.030544     -0.279011  KCAL/ANGSTROM
     43         15  H    CARTESIAN X    -0.220682     -0.148917  KCAL/ANGSTROM
     44         15  H    CARTESIAN Y    -1.894647     -0.096669  KCAL/ANGSTROM
     45         15  H    CARTESIAN Z     1.899493      0.185045  KCAL/ANGSTROM
     46         16  H    CARTESIAN X    -1.596365     -0.083711  KCAL/ANGSTROM
     47         16  H    CARTESIAN Y    -1.426552      0.046965  KCAL/ANGSTROM
     48         16  H    CARTESIAN Z     0.866264     -0.044922  KCAL/ANGSTROM
     49         17  H    CARTESIAN X     0.305557     -0.135184  KCAL/ANGSTROM
     50         17  H    CARTESIAN Y    -0.405835      0.057676  KCAL/ANGSTROM
     51         17  H    CARTESIAN Z    -2.060961     -0.002225  KCAL/ANGSTROM
     52         18  H    CARTESIAN X     2.459849      0.259325  KCAL/ANGSTROM
     53         18  H    CARTESIAN Y    -1.147711      0.244523  KCAL/ANGSTROM
     54         18  H    CARTESIAN Z    -0.447518     -0.290667  KCAL/ANGSTROM
     55         19  H    CARTESIAN X     1.858956     -0.017736  KCAL/ANGSTROM
     56         19  H    CARTESIAN Y    -0.386788     -0.034517  KCAL/ANGSTROM
     57         19  H    CARTESIAN Z     2.077046      0.025420  KCAL/ANGSTROM
     58         20  H    CARTESIAN X     2.032660      0.261759  KCAL/ANGSTROM
     59         20  H    CARTESIAN Y     1.899688      0.081300  KCAL/ANGSTROM
     60         20  H    CARTESIAN Z     1.697500      0.074264  KCAL/ANGSTROM




   ATOM   CHEMICAL          X               Y               Z
  NUMBER   SYMBOL      (ANGSTROMS)     (ANGSTROMS)     (ANGSTROMS)

     1       C         -1.85931496  *   0.91538546  *  -0.61449082  *
     2       C         -0.39728341  *   0.78735224  *  -0.23519477  *
     3       C         -0.13586643  *   0.24462464  *   1.21174648  *
     4       C         -0.52319867  *  -1.26070992  *   1.05138129  *
     5       N          0.27412162  *  -1.60537148  *  -0.17393361  *
     6       C          0.34160065  *  -0.34483664  *  -0.98576501  *
     7       C          1.51417639  *  -0.76238559  *  -0.10473384  *
     8       C          1.43041225  *   0.09330841  *   1.18353131  *
     9       O          2.09015896  *   1.30246862  *   0.92438902  *
    10       H         -2.38930930  *   1.59883826  *   0.05878574  *
    11       H         -2.38276395  *  -0.04857311  *  -0.58457434  *
    12       H         -1.96919814  *   1.30350957  *  -1.63533779  *
    13       H          0.12713892  *   1.75749516  *  -0.38785165  *
    14       H         -0.57498054  *   0.79438060  *   2.03054414  *
    15       H         -0.22068170  *  -1.89464740  *   1.89949335  *
    16       H         -1.59636540  *  -1.42655227  *   0.86626402  *
    17       H          0.30555683  *  -0.40583488  *  -2.06096124  *
    18       H          2.45984851  *  -1.14771084  *  -0.44751761  *
    19       H          1.85895557  *  -0.38678822  *   2.07704582  *
    20       H          2.03265981  *   1.89968849  *   1.69749970  *

                             CARTESIAN COORDINATES

   1    C       -1.859314962     0.915385462    -0.614490816
   2    C       -0.397283412     0.787352240    -0.235194767
   3    C       -0.135866435     0.244624639     1.211746477
   4    C       -0.523198669    -1.260709920     1.051381290
   5    N        0.274121622    -1.605371478    -0.173933613
   6    C        0.341600652    -0.344836639    -0.985765012
   7    C        1.514176392    -0.762385591    -0.104733841
   8    C        1.430412247     0.093308410     1.183531314
   9    O        2.090158958     1.302468618     0.924389017
  10    H       -2.389309303     1.598838260     0.058785742
  11    H       -2.382763948    -0.048573110    -0.584574345
  12    H       -1.969198142     1.303509575    -1.635337787
  13    H        0.127138923     1.757495156    -0.387851650
  14    H       -0.574980538     0.794380596     2.030544143
  15    H       -0.220681700    -1.894647398     1.899493346
  16    H       -1.596365401    -1.426552268     0.866264023
  17    H        0.305556827    -0.405834883    -2.060961245
  18    H        2.459848509    -1.147710837    -0.447517608
  19    H        1.858955567    -0.386788224     2.077045824
  20    H        2.032659810     1.899688488     1.697499697


           Empirical Formula: C7 H11 N O  =    20 atoms



      MOLECULAR POINT GROUP   :   C1  


                  EIGENVALUES  
 -37.13191 -29.92943 -28.11454 -26.07589 -25.42101 -22.66733 -20.39662 -19.81049
 -19.06462 -17.73022 -17.45100 -16.35252 -15.07781 -14.82755 -14.18044 -13.90867
 -13.45730 -13.15602 -12.64503 -12.15008 -11.94241 -11.54393 -11.33094 -10.81969
 -10.13303   1.98605   2.39886   2.76345   2.97029   3.22090   3.55629   3.66873
   4.21144   4.31232   4.41064   4.50377   5.29706   5.41333   5.60492   5.63496
   5.71255   5.74027   5.94048   5.97369   6.02625   6.12675   6.82224


              NET ATOMIC CHARGES AND DIPOLE CONTRIBUTIONS

  ATOM NO.   TYPE          CHARGE      No. of ELECS.   s-Pop       p-Pop       
    1          C          -0.454586        4.4546     1.05183     3.40275
    2          C          -0.095465        4.0955     1.07278     3.02268
    3          C          -0.225464        4.2255     1.09857     3.12690
    4          C          -0.147725        4.1477     1.08428     3.06345
    5          N          -0.348372        5.3484     1.78399     3.56438
    6          C          -0.074903        4.0749     1.08863     2.98627
    7          C          -0.109768        4.1098     1.08823     3.02154
    8          C           0.123084        3.8769     1.10055     2.77637
    9          O          -0.534093        6.5341     1.84641     4.68768
   10          H           0.149260        0.8507     0.85074
   11          H           0.154249        0.8458     0.84575
   12          H           0.152620        0.8474     0.84738
   13          H           0.163115        0.8369     0.83689
   14          H           0.150165        0.8498     0.84983
   15          H           0.148071        0.8519     0.85193
   16          H           0.154460        0.8455     0.84554
   17          H           0.172228        0.8278     0.82777
   18          H           0.180302        0.8197     0.81970
   19          H           0.126194        0.8738     0.87381
   20          H           0.316629        0.6834     0.68337
 DIPOLE           X         Y         Z       TOTAL
 POINT-CHG.    -1.113     1.131     1.733     2.350
 HYBRID        -0.092     0.736     0.482     0.884
 SUM           -1.205     1.867     2.215     3.137


          ATOMIC ORBITAL ELECTRON POPULATIONS

     Atom    s        px        py        pz   
    1  C   1.05183   1.04944   1.18325   1.17006
    2  C   1.07278   0.99679   1.06903   0.95687
    3  C   1.09857   1.03131   1.02939   1.06619
    4  C   1.08428   1.09020   0.98789   0.98535
    5  N   1.78399   1.12023   1.27360   1.17056
    6  C   1.08863   1.02594   0.91471   1.04563
    7  C   1.08823   0.97618   1.01528   1.03008
    8  C   1.10055   0.92290   0.83020   1.02327
    9  O   1.84641   1.79423   1.37877   1.51468
   10  H   0.85074
   11  H   0.84575
   12  H   0.84738
   13  H   0.83689
   14  H   0.84983
   15  H   0.85193
   16  H   0.84554
   17  H   0.82777
   18  H   0.81970
   19  H   0.87381
   20  H   0.68337

 **********************
 *                    *
 * JOB ENDED NORMALLY *
 *                    *
 **********************



 TOTAL JOB TIME:             1.09 SECONDS

 == MOPAC DONE ==
