 *******************************************************************************
 **                                                                           **
 **                              MOPAC v23.2                                  **
 **                                                                           **
 *******************************************************************************
 **          Digital Object Identifier (DOI): 10.5281/zenodo.6511958          **
 **    Visit the DOI location for information on how to cite this program.    **
 *******************************************************************************

                              PM7 CALCULATION RESULTS

 *******************************************************************************
 *  CALCULATION DONE: (MAX THREADS = 40)             Fri Sep 19 21:38:35 2025  *
 *  PM7        - The PM7 Hamiltonian to be used
 *
 *
 *
 *                 CHARGE ON SYSTEM = +1
 *
 *
 *
 *  EPS=37.5   - USE ANDREAS KLAMT'S COSMO IMPLICIT SOLVATION MODEL
 *  1SCF       - DO 1 SCF AND THEN STOP 
 *  T=         - A TIME OF 172800.0 SECONDS REQUESTED
 *  DUMP=N     - RESTART FILE WRITTEN EVERY 7200.0 SECONDS REQUESTED
 *  RELSCF     - DEFAULT SCF CRITERION MULTIPLIED BY 0.0001
 *              (DEFAULT SCF CRITERION = 0.00010)
 *  GRADIENTS  - ALL GRADIENTS TO BE PRINTED
 *  DISP       - PRINT DISPERSION AND HYDROGEN BOND ENERGIES
 *******************************************************************************
PM7 1SCF GRADIENTS EPS=37.5 DISP RELSCF=0.0001 CHARGE=1
 Title: ASE calculation

   ATOM   CHEMICAL          X               Y               Z
  NUMBER   SYMBOL      (ANGSTROMS)     (ANGSTROMS)     (ANGSTROMS)

     1       O         -3.05050936  *  -0.09812281  *  -0.75560665  *
     2       C         -2.08374584  *  -0.49037076  *   0.17413259  *
     3       C         -0.71883983  *  -0.28099045  *  -0.49665074  *
     4       C          0.47757426  *  -0.98536655  *   0.25541987  *
     5       C          0.78326095  *   0.29378492  *   1.04141877  *
     6       N          0.02440131  *   0.98020167  *  -0.12195034  *
     7       C          1.22431368  *   1.09759858  *  -0.97714700  *
     8       C          1.75728335  *  -0.12676546  *  -0.07527292  *
     9       O          3.03175437  *  -0.44131356  *   0.09280255  *
    10       H         -3.38623778  *   0.81318657  *  -0.57778316  *
    11       H         -2.27611000  *  -1.58014020  *   0.32603806  *
    12       H         -2.18370178  *   0.03140353  *   1.14257113  *
    13       H         -0.81378635  *  -0.43203781  *  -1.59889353  *
    14       H          0.44449862  *  -2.01355132  *   0.57097675  *
    15       H          0.82515266  *   0.61754764  *   2.05949814  *
    16       H          1.08134031  *   0.95876738  *  -2.05949814  *
    17       H          1.83309250  *   2.01355132  *  -0.81353190  *
    18       H          3.38623778  *  -1.00583126  *  -0.66642238  *



          CARTESIAN COORDINATES 

    NO.       ATOM           X           Y           Z

     1         O         -3.0505     -0.0981     -0.7556
     2         C         -2.0837     -0.4904      0.1741
     3         C         -0.7188     -0.2810     -0.4967
     4         C          0.4776     -0.9854      0.2554
     5         C          0.7833      0.2938      1.0414
     6         N          0.0244      0.9802     -0.1220
     7         C          1.2243      1.0976     -0.9771
     8         C          1.7573     -0.1268     -0.0753
     9         O          3.0318     -0.4413      0.0928
    10         H         -3.3862      0.8132     -0.5778
    11         H         -2.2761     -1.5801      0.3260
    12         H         -2.1837      0.0314      1.1426
    13         H         -0.8138     -0.4320     -1.5989
    14         H          0.4445     -2.0136      0.5710
    15         H          0.8252      0.6175      2.0595
    16         H          1.0813      0.9588     -2.0595
    17         H          1.8331      2.0136     -0.8135
    18         H          3.3862     -1.0058     -0.6664

 General Reference for PM7:
 "Optimization of Parameters for Semiempirical Methods VI: More Modifications to the 
 NDDO Approximations and Re-optimization of Parameters", J. J. P. Stewart, J. Mol. Mod., 1:32, 19 (2013)
 https://link.springer.com/article/10.1007/s00894-012-1667-x

           Empirical Formula: C6 H9 N O2  =    18 atoms



      MOLECULAR POINT GROUP   :   C1  


          UHF CALCULATION, NO. OF ALPHA ELECTRONS =   25
                           NO. OF BETA  ELECTRONS =   24
  SCF CRITERION =    0.1000E-07

 -------------------------------------------------------------------------------
 PM7 1SCF GRADIENTS EPS=37.5 DISP RELSCF=0.0001 CHARGE=1
 Title: ASE calculation



     1SCF WAS SPECIFIED, SO BFGS WAS NOT USED                 
     SCF FIELD WAS ACHIEVED                                   


                              PM7 CALCULATION
                                                       MOPAC v23.2 Linux
                                                       Fri Sep 19 21:38:37 2025




          FINAL HEAT OF FORMATION =        173.46922 KCAL/MOL =     725.79524 KJ/MOL

          TOTAL ENERGY            =     -37463.96781 KCAL/MOL = ELECTRONIC ENERGY + CORE-CORE REPULSION + SOLVATION ENERGY
          ENERGY OF ATOMS         =      37638.97832 KCAL/MOL
                              SUM =        175.01051 KCAL/MOL
          DISPERSION ENERGY       =         -1.54129 KCAL/MOL
                              SUM =        173.46922 KCAL/MOL = FINAL HEAT OF FORMATION

          VAN DER WAALS AREA      =        157.00 SQUARE ANGSTROMS


          TOTAL ENERGY            =      -1624.59141 EV
          ELECTRONIC ENERGY       =      -2345.48869 EV 
          CORE-CORE REPULSION     =        720.89728 EV

          DIELECTRIC ENERGY       =         -2.60876 EV
          COSMO AREA              =        157.00 SQUARE ANGSTROMS
          COSMO VOLUME            =        152.09 CUBIC ANGSTROMS

          GRADIENT NORM           =         14.61853          =       3.44562 PER ATOM
          IONIZATION POTENTIAL    =         11.391750 EV
          ALPHA SOMO LUMO (EV)    =        -11.392 -0.457
          BETA  SOMO LUMO (EV)    =        -11.634 -3.772
          NO. OF ALPHA ELECTRONS  =         25
          NO. OF BETA  ELECTRONS  =         24
          MOLECULAR WEIGHT        =        127.1426         POINT GROUP:  C1  

          MOLECULAR DIMENSIONS (Angstroms)

            Atom       Atom       Distance
            H    18    H    10     7.01307
            H    17    H    11     4.66831
            H    13    H    15     3.91035


          SCF CALCULATIONS        =          2

          WALL-CLOCK TIME         =      1.813 SECONDS
          COMPUTATION TIME        =      0.472 SECONDS

          LARGEST ATOMIC GRADIENTS

          Atom     Label                     Cartesian Gradients           Cartesian Coordinates       |Gradient|
                                           X          Y          Z        X          Y          Z

             2       C                  -8.181      4.806      0.293   -2.08375   -0.49037    0.17413      9.493
             1       O                   6.097     -0.762      1.657   -3.05051   -0.09812   -0.75561      6.364
             8       C                   4.267     -2.813      0.014    1.75728   -0.12677   -0.07527      5.111
            18       H                  -0.094      1.834      3.077    3.38624   -1.00583   -0.66642      3.583
             7       C                  -1.264      1.508     -2.269    1.22431    1.09760   -0.97715      3.004
             3       C                   2.309     -0.442     -1.617   -0.71884   -0.28099   -0.49665      2.853
             9       O                  -0.345     -1.469     -2.263    3.03175   -0.44131    0.09280      2.720
            10       H                  -1.058     -2.088      0.101   -3.38624    0.81319   -0.57778      2.343
            11       H                  -1.437     -0.739     -0.745   -2.27611   -1.58014    0.32604      1.779
            13       H                  -1.556     -0.184      0.189   -0.81379   -0.43204   -1.59889      1.578



       FINAL  POINT  AND  DERIVATIVES

   PARAMETER     ATOM    TYPE            VALUE        GRADIENT
      1          1  O    CARTESIAN X    -3.050509      6.096927  KCAL/ANGSTROM
      2          1  O    CARTESIAN Y    -0.098123     -0.762245  KCAL/ANGSTROM
      3          1  O    CARTESIAN Z    -0.755607      1.657137  KCAL/ANGSTROM
      4          2  C    CARTESIAN X    -2.083746     -8.181293  KCAL/ANGSTROM
      5          2  C    CARTESIAN Y    -0.490371      4.806411  KCAL/ANGSTROM
      6          2  C    CARTESIAN Z     0.174133      0.293461  KCAL/ANGSTROM
      7          3  C    CARTESIAN X    -0.718840      2.309427  KCAL/ANGSTROM
      8          3  C    CARTESIAN Y    -0.280990     -0.441902  KCAL/ANGSTROM
      9          3  C    CARTESIAN Z    -0.496651     -1.616591  KCAL/ANGSTROM
     10          4  C    CARTESIAN X     0.477574     -0.605652  KCAL/ANGSTROM
     11          4  C    CARTESIAN Y    -0.985367     -0.179472  KCAL/ANGSTROM
     12          4  C    CARTESIAN Z     0.255420      0.605510  KCAL/ANGSTROM
     13          5  C    CARTESIAN X     0.783261      0.565944  KCAL/ANGSTROM
     14          5  C    CARTESIAN Y     0.293785     -0.092276  KCAL/ANGSTROM
     15          5  C    CARTESIAN Z     1.041419      0.326029  KCAL/ANGSTROM
     16          6  N    CARTESIAN X     0.024401     -0.890984  KCAL/ANGSTROM
     17          6  N    CARTESIAN Y     0.980202      0.983043  KCAL/ANGSTROM
     18          6  N    CARTESIAN Z    -0.121950     -0.585240  KCAL/ANGSTROM
     19          7  C    CARTESIAN X     1.224314     -1.264010  KCAL/ANGSTROM
     20          7  C    CARTESIAN Y     1.097599      1.508465  KCAL/ANGSTROM
     21          7  C    CARTESIAN Z    -0.977147     -2.269055  KCAL/ANGSTROM
     22          8  C    CARTESIAN X     1.757283      4.267062  KCAL/ANGSTROM
     23          8  C    CARTESIAN Y    -0.126765     -2.812632  KCAL/ANGSTROM
     24          8  C    CARTESIAN Z    -0.075273      0.014022  KCAL/ANGSTROM
     25          9  O    CARTESIAN X     3.031754     -0.344690  KCAL/ANGSTROM
     26          9  O    CARTESIAN Y    -0.441314     -1.468842  KCAL/ANGSTROM
     27          9  O    CARTESIAN Z     0.092803     -2.262842  KCAL/ANGSTROM
     28         10  H    CARTESIAN X    -3.386238     -1.057631  KCAL/ANGSTROM
     29         10  H    CARTESIAN Y     0.813187     -2.088169  KCAL/ANGSTROM
     30         10  H    CARTESIAN Z    -0.577783      0.100849  KCAL/ANGSTROM
     31         11  H    CARTESIAN X    -2.276110     -1.437476  KCAL/ANGSTROM
     32         11  H    CARTESIAN Y    -1.580140     -0.738537  KCAL/ANGSTROM
     33         11  H    CARTESIAN Z     0.326038     -0.744799  KCAL/ANGSTROM
     34         12  H    CARTESIAN X    -2.183702      0.387158  KCAL/ANGSTROM
     35         12  H    CARTESIAN Y     0.031404     -1.418127  KCAL/ANGSTROM
     36         12  H    CARTESIAN Z     1.142571      0.350446  KCAL/ANGSTROM
     37         13  H    CARTESIAN X    -0.813786     -1.556020  KCAL/ANGSTROM
     38         13  H    CARTESIAN Y    -0.432038     -0.183767  KCAL/ANGSTROM
     39         13  H    CARTESIAN Z    -1.598894      0.188752  KCAL/ANGSTROM
     40         14  H    CARTESIAN X     0.444499      0.146302  KCAL/ANGSTROM
     41         14  H    CARTESIAN Y    -2.013551     -0.237459  KCAL/ANGSTROM
     42         14  H    CARTESIAN Z     0.570977     -0.153884  KCAL/ANGSTROM
     43         15  H    CARTESIAN X     0.825153      0.836322  KCAL/ANGSTROM
     44         15  H    CARTESIAN Y     0.617548      0.173301  KCAL/ANGSTROM
     45         15  H    CARTESIAN Z     2.059498      0.074848  KCAL/ANGSTROM
     46         16  H    CARTESIAN X     1.081340     -0.036566  KCAL/ANGSTROM
     47         16  H    CARTESIAN Y     0.958767      0.810479  KCAL/ANGSTROM
     48         16  H    CARTESIAN Z    -2.059498      0.637817  KCAL/ANGSTROM
     49         17  H    CARTESIAN X     1.833092      0.858822  KCAL/ANGSTROM
     50         17  H    CARTESIAN Y     2.013551      0.307415  KCAL/ANGSTROM
     51         17  H    CARTESIAN Z    -0.813532      0.306849  KCAL/ANGSTROM
     52         18  H    CARTESIAN X     3.386238     -0.093643  KCAL/ANGSTROM
     53         18  H    CARTESIAN Y    -1.005831      1.834309  KCAL/ANGSTROM
     54         18  H    CARTESIAN Z    -0.666422      3.076686  KCAL/ANGSTROM




   ATOM   CHEMICAL          X               Y               Z
  NUMBER   SYMBOL      (ANGSTROMS)     (ANGSTROMS)     (ANGSTROMS)

     1       O         -3.05050936  *  -0.09812281  *  -0.75560665  *
     2       C         -2.08374584  *  -0.49037076  *   0.17413259  *
     3       C         -0.71883983  *  -0.28099045  *  -0.49665074  *
     4       C          0.47757426  *  -0.98536655  *   0.25541987  *
     5       C          0.78326095  *   0.29378492  *   1.04141877  *
     6       N          0.02440131  *   0.98020167  *  -0.12195034  *
     7       C          1.22431368  *   1.09759858  *  -0.97714700  *
     8       C          1.75728335  *  -0.12676546  *  -0.07527292  *
     9       O          3.03175437  *  -0.44131356  *   0.09280255  *
    10       H         -3.38623778  *   0.81318657  *  -0.57778316  *
    11       H         -2.27611000  *  -1.58014020  *   0.32603806  *
    12       H         -2.18370178  *   0.03140353  *   1.14257113  *
    13       H         -0.81378635  *  -0.43203781  *  -1.59889353  *
    14       H          0.44449862  *  -2.01355132  *   0.57097675  *
    15       H          0.82515266  *   0.61754764  *   2.05949814  *
    16       H          1.08134031  *   0.95876738  *  -2.05949814  *
    17       H          1.83309250  *   2.01355132  *  -0.81353190  *
    18       H          3.38623778  *  -1.00583126  *  -0.66642238  *

                             CARTESIAN COORDINATES

   1    O       -3.050509363    -0.098122814    -0.755606651
   2    C       -2.083745839    -0.490370759     0.174132591
   3    C       -0.718839829    -0.280990446    -0.496650745
   4    C        0.477574257    -0.985366548     0.255419868
   5    C        0.783260946     0.293784923     1.041418770
   6    N        0.024401306     0.980201668    -0.121950339
   7    C        1.224313682     1.097598583    -0.977146996
   8    C        1.757283350    -0.126765464    -0.075272920
   9    O        3.031754373    -0.441313564     0.092802554
  10    H       -3.386237778     0.813186568    -0.577783162
  11    H       -2.276110002    -1.580140200     0.326038065
  12    H       -2.183701779     0.031403528     1.142571125
  13    H       -0.813786354    -0.432037811    -1.598893527
  14    H        0.444498623    -2.013551324     0.570976746
  15    H        0.825152664     0.617547639     2.059498142
  16    H        1.081340306     0.958767382    -2.059498142
  17    H        1.833092499     2.013551324    -0.813531901
  18    H        3.386237778    -1.005831256    -0.666422376


           Empirical Formula: C6 H9 N O2  =    18 atoms



      MOLECULAR POINT GROUP   :   C1  


          ALPHA EIGENVALUES  
 -40.09438 -31.53925 -30.32369 -28.75503 -27.45494 -24.90156 -23.26068 -20.80137
 -20.07260 -19.31748 -18.85937 -18.05804 -17.36858 -17.01052 -16.48226 -15.61080
 -14.97242 -14.57803 -14.36360 -13.55688 -13.26714 -12.75677 -12.13125 -11.88881
 -11.39175  -0.45695   0.26120   0.94179   1.02112   1.18213   1.50522   1.63685
   2.05740   2.20172   2.56704   2.69096   4.36920   4.43577   4.67800   4.78251
   4.88128   4.91975   4.98187   5.15256   5.67804


           BETA EIGENVALUES 
 -39.21720 -31.42190 -30.29731 -28.06806 -27.31455 -24.59895 -23.12279 -20.69624
 -19.85847 -18.85754 -18.71987 -17.85062 -17.21301 -16.77481 -16.26853 -15.48953
 -14.78581 -14.36383 -13.93025 -13.44624 -12.70526 -12.14093 -11.98124 -11.63445
  -3.77181   0.02048   0.32126   1.08663   1.21135   1.51491   1.59400   1.86512
   2.15220   2.31786   2.65939   2.87744   4.40298   4.45754   4.68353   4.79764
   4.91235   4.94587   5.01167   5.15456   5.68321


              NET ATOMIC CHARGES AND DIPOLE CONTRIBUTIONS

  ATOM NO.   TYPE          CHARGE      No. of ELECS.   s-Pop       p-Pop       
    1          O          -0.589460        6.5895     1.84238     4.74708
    2          C           0.003476        3.9965     1.09063     2.90589
    3          C          -0.013801        4.0138     1.13470     2.87910
    4          C          -0.204466        4.2045     1.12444     3.08002
    5          C          -0.051433        4.0514     1.13624     2.91519
    6          N          -0.034151        5.0342     1.68084     3.35331
    7          C          -0.174580        4.1746     1.12738     3.04720
    8          C           0.239138        3.7609     1.09092     2.66994
    9          O          -0.461832        6.4618     1.83088     4.63095
   10          H           0.372850        0.6272     0.62715
   11          H           0.185192        0.8148     0.81481
   12          H           0.168527        0.8315     0.83147
   13          H           0.222739        0.7773     0.77726
   14          H           0.233516        0.7665     0.76648
   15          H           0.243885        0.7561     0.75612
   16          H           0.216662        0.7833     0.78334
   17          H           0.232355        0.7676     0.76764
   18          H           0.411381        0.5886     0.58862
 DIPOLE           X         Y         Z       TOTAL
 POINT-CHG.     2.236     0.325    -0.069     2.261
 HYBRID         0.046     0.624    -0.217     0.662
 SUM            2.283     0.949    -0.286     2.489


          ATOMIC ORBITAL ELECTRON POPULATIONS

     Atom    s        px        py        pz   
    1  O   1.84238   1.63087   1.51330   1.60292
    2  C   1.09063   0.81570   1.13368   0.95651
    3  C   1.13470   0.99256   0.73638   1.15016
    4  C   1.12444   0.94527   1.06744   1.06732
    5  C   1.13624   1.00636   0.88039   1.02845
    6  N   1.68084   1.11831   1.05323   1.18176
    7  C   1.12738   0.86049   1.08441   1.10230
    8  C   1.09092   0.80242   0.91558   0.95194
    9  O   1.83088   1.28857   1.75641   1.58597
   10  H   0.62715
   11  H   0.81481
   12  H   0.83147
   13  H   0.77726
   14  H   0.76648
   15  H   0.75612
   16  H   0.78334
   17  H   0.76764
   18  H   0.58862


                    (SZ)    =    0.500000
                    (S**2)  =    0.759524


          ATOMIC ORBITAL SPIN POPULATIONS

    Atom   Total    s     px     py     pz   
         Atomic
    1  O  0.0037  0.000  0.004  0.000 -0.001
    2  C  0.0132  0.002  0.007 -0.000  0.004
    3  C  0.0055 -0.005 -0.012  0.026 -0.003
    4  C  0.1061  0.006  0.067  0.028  0.006
    5  C -0.0150 -0.006 -0.011  0.020 -0.017
    6  N  0.7796  0.050  0.205  0.473  0.052
    7  C -0.0070 -0.007 -0.009  0.020 -0.010
    8  C  0.0678  0.014 -0.001  0.050  0.004
    9  O  0.0219  0.001 -0.003  0.013  0.011
   10  H -0.0000 -0.000
   11  H -0.0015 -0.001
   12  H  0.0016  0.002
   13  H  0.0034  0.003
   14  H  0.0054  0.005
   15  H  0.0008  0.001
   16  H  0.0019  0.002
   17  H  0.0119  0.012
   18  H  0.0007  0.001

 **********************
 *                    *
 * JOB ENDED NORMALLY *
 *                    *
 **********************



 TOTAL JOB TIME:             2.36 SECONDS

 == MOPAC DONE ==
