 *******************************************************************************
 **                                                                           **
 **                              MOPAC v23.2                                  **
 **                                                                           **
 *******************************************************************************
 **          Digital Object Identifier (DOI): 10.5281/zenodo.6511958          **
 **    Visit the DOI location for information on how to cite this program.    **
 *******************************************************************************

                              PM7 CALCULATION RESULTS

 *******************************************************************************
 *  CALCULATION DONE: (MAX THREADS = 40)             Fri Sep 19 21:29:03 2025  *
 *  PM7        - The PM7 Hamiltonian to be used
 *
 *
 *
 *                 CHARGE ON SYSTEM = +1
 *
 *
 *
 *  1SCF       - DO 1 SCF AND THEN STOP 
 *  T=         - A TIME OF 172800.0 SECONDS REQUESTED
 *  DUMP=N     - RESTART FILE WRITTEN EVERY 7200.0 SECONDS REQUESTED
 *  RELSCF     - DEFAULT SCF CRITERION MULTIPLIED BY 0.0001
 *              (DEFAULT SCF CRITERION = 0.00010)
 *  GRADIENTS  - ALL GRADIENTS TO BE PRINTED
 *  DISP       - PRINT DISPERSION AND HYDROGEN BOND ENERGIES
 *******************************************************************************
PM7 1SCF GRADIENTS DISP RELSCF=0.0001 CHARGE=1
 Title: ASE calculation

   ATOM   CHEMICAL          X               Y               Z
  NUMBER   SYMBOL      (ANGSTROMS)     (ANGSTROMS)     (ANGSTROMS)

     1       C          1.93673711  *   0.76875754  *  -0.47845930  *
     2       N          0.56234001  *   0.32176356  *  -0.30355519  *
     3       C         -0.47038281  *   1.16105130  *  -0.03089807  *
     4       C         -1.76954016  *   0.38573853  *   0.08541202  *
     5       O         -2.41385248  *   0.64618179  *   1.28014555  *
     6       C         -1.31279953  *  -1.10611254  *  -0.09964429  *
     7       O         -1.95932467  *  -1.78384435  *  -1.11616524  *
     8       C          0.17492756  *  -0.97753587  *  -0.37415593  *
     9       H          1.99100628  *   1.78324537  *  -0.93100385  *
    10       H          2.51768677  *   0.08753677  *  -1.13695333  *
    11       H          2.46880844  *   0.81505382  *   0.50038240  *
    12       H         -0.38416366  *   2.23386128  *   0.10663189  *
    13       H         -2.53141907  *   0.69557870  *  -0.68037484  *
    14       H         -1.91451579  *   0.31413887  *   2.06822782  *
    15       H         -1.53615834  *  -1.73667249  *   0.80397031  *
    16       H         -1.97513533  *  -1.28006527  *  -1.96905312  *
    17       H          0.82599879  *  -1.81028334  *  -0.61740380  *



          CARTESIAN COORDINATES 

    NO.       ATOM           X           Y           Z

     1         C          1.9367      0.7688     -0.4785
     2         N          0.5623      0.3218     -0.3036
     3         C         -0.4704      1.1611     -0.0309
     4         C         -1.7695      0.3857      0.0854
     5         O         -2.4139      0.6462      1.2801
     6         C         -1.3128     -1.1061     -0.0996
     7         O         -1.9593     -1.7838     -1.1162
     8         C          0.1749     -0.9775     -0.3742
     9         H          1.9910      1.7832     -0.9310
    10         H          2.5177      0.0875     -1.1370
    11         H          2.4688      0.8151      0.5004
    12         H         -0.3842      2.2339      0.1066
    13         H         -2.5314      0.6956     -0.6804
    14         H         -1.9145      0.3141      2.0682
    15         H         -1.5362     -1.7367      0.8040
    16         H         -1.9751     -1.2801     -1.9691
    17         H          0.8260     -1.8103     -0.6174

 General Reference for PM7:
 "Optimization of Parameters for Semiempirical Methods VI: More Modifications to the 
 NDDO Approximations and Re-optimization of Parameters", J. J. P. Stewart, J. Mol. Mod., 1:32, 19 (2013)
 https://link.springer.com/article/10.1007/s00894-012-1667-x

           Empirical Formula: C5 H9 N O2  =    17 atoms



      MOLECULAR POINT GROUP   :   C1  


          UHF CALCULATION, NO. OF ALPHA ELECTRONS =   23
                           NO. OF BETA  ELECTRONS =   22
  SCF CRITERION =    0.1000E-07

 -------------------------------------------------------------------------------
 PM7 1SCF GRADIENTS DISP RELSCF=0.0001 CHARGE=1
 Title: ASE calculation



     1SCF WAS SPECIFIED, SO BFGS WAS NOT USED                 
     SCF FIELD WAS ACHIEVED                                   


                              PM7 CALCULATION
                                                       MOPAC v23.2 Linux
                                                       Fri Sep 19 21:29:04 2025




          FINAL HEAT OF FORMATION =        111.43324 KCAL/MOL =     466.23669 KJ/MOL

          TOTAL ENERGY            =     -34687.33803 KCAL/MOL = ELECTRONIC ENERGY + CORE-CORE REPULSION
          ENERGY OF ATOMS         =      34800.19765 KCAL/MOL
                              SUM =        112.85962 KCAL/MOL
          DISPERSION ENERGY       =         -1.42638 KCAL/MOL
                              SUM =        111.43324 KCAL/MOL = FINAL HEAT OF FORMATION



          TOTAL ENERGY            =      -1504.18534 EV
          ELECTRONIC ENERGY       =      -6655.83054 EV 
          CORE-CORE REPULSION     =       5151.64520 EV
          COSMO AREA              =        150.21 SQUARE ANGSTROMS
          COSMO VOLUME            =        143.07 CUBIC ANGSTROMS

          GRADIENT NORM           =          1.11045          =       0.26932 PER ATOM
          IONIZATION POTENTIAL    =         14.830125 EV
          ALPHA SOMO LUMO (EV)    =        -14.830 -5.964
          BETA  SOMO LUMO (EV)    =        -15.101 -6.550
          NO. OF ALPHA ELECTRONS  =         23
          NO. OF BETA  ELECTRONS  =         22
          MOLECULAR WEIGHT        =        115.1316         POINT GROUP:  C1  

          MOLECULAR DIMENSIONS (Angstroms)

            Atom       Atom       Distance
            H    10    O     5     5.52037
            H    16    H    11     4.80331
            H    15    H    12     3.60893


          SCF CALCULATIONS        =          1

          WALL-CLOCK TIME         =      0.938 SECONDS
          COMPUTATION TIME        =      0.997 SECONDS

          LARGEST ATOMIC GRADIENTS

          Atom     Label                     Cartesian Gradients           Cartesian Coordinates       |Gradient|
                                           X          Y          Z        X          Y          Z

             2       N                  -0.038     -0.214     -0.386    0.56234    0.32176   -0.30356      0.443
             8       C                  -0.161     -0.290      0.229    0.17493   -0.97754   -0.37416      0.403
            16       H                   0.037      0.267     -0.299   -1.97514   -1.28007   -1.96905      0.402
            14       H                   0.327     -0.016     -0.107   -1.91452    0.31414    2.06823      0.344
            13       H                   0.154     -0.125      0.270   -2.53142    0.69558   -0.68037      0.334
             5       O                  -0.045      0.076     -0.254   -2.41385    0.64618    1.28015      0.269
            10       H                  -0.146      0.166      0.142    2.51769    0.08754   -1.13695      0.263
             1       C                  -0.250     -0.030      0.030    1.93674    0.76876   -0.47846      0.253
             6       C                  -0.142     -0.044      0.175   -1.31280   -1.10611   -0.09964      0.230
             4       C                   0.214     -0.075      0.012   -1.76954    0.38574    0.08541      0.227



       FINAL  POINT  AND  DERIVATIVES

   PARAMETER     ATOM    TYPE            VALUE        GRADIENT
      1          1  C    CARTESIAN X     1.936737     -0.249638  KCAL/ANGSTROM
      2          1  C    CARTESIAN Y     0.768758     -0.029857  KCAL/ANGSTROM
      3          1  C    CARTESIAN Z    -0.478459      0.030381  KCAL/ANGSTROM
      4          2  N    CARTESIAN X     0.562340     -0.037586  KCAL/ANGSTROM
      5          2  N    CARTESIAN Y     0.321764     -0.213910  KCAL/ANGSTROM
      6          2  N    CARTESIAN Z    -0.303555     -0.385962  KCAL/ANGSTROM
      7          3  C    CARTESIAN X    -0.470383      0.178040  KCAL/ANGSTROM
      8          3  C    CARTESIAN Y     1.161051      0.007312  KCAL/ANGSTROM
      9          3  C    CARTESIAN Z    -0.030898      0.085582  KCAL/ANGSTROM
     10          4  C    CARTESIAN X    -1.769540      0.213721  KCAL/ANGSTROM
     11          4  C    CARTESIAN Y     0.385739     -0.075490  KCAL/ANGSTROM
     12          4  C    CARTESIAN Z     0.085412      0.012343  KCAL/ANGSTROM
     13          5  O    CARTESIAN X    -2.413852     -0.044582  KCAL/ANGSTROM
     14          5  O    CARTESIAN Y     0.646182      0.075506  KCAL/ANGSTROM
     15          5  O    CARTESIAN Z     1.280146     -0.254144  KCAL/ANGSTROM
     16          6  C    CARTESIAN X    -1.312800     -0.141561  KCAL/ANGSTROM
     17          6  C    CARTESIAN Y    -1.106113     -0.044421  KCAL/ANGSTROM
     18          6  C    CARTESIAN Z    -0.099644      0.175112  KCAL/ANGSTROM
     19          7  O    CARTESIAN X    -1.959325      0.091108  KCAL/ANGSTROM
     20          7  O    CARTESIAN Y    -1.783844     -0.004103  KCAL/ANGSTROM
     21          7  O    CARTESIAN Z    -1.116165      0.002232  KCAL/ANGSTROM
     22          8  C    CARTESIAN X     0.174928     -0.161232  KCAL/ANGSTROM
     23          8  C    CARTESIAN Y    -0.977536     -0.290217  KCAL/ANGSTROM
     24          8  C    CARTESIAN Z    -0.374156      0.229317  KCAL/ANGSTROM
     25          9  H    CARTESIAN X     1.991006      0.012845  KCAL/ANGSTROM
     26          9  H    CARTESIAN Y     1.783245      0.013453  KCAL/ANGSTROM
     27          9  H    CARTESIAN Z    -0.931004      0.013484  KCAL/ANGSTROM
     28         10  H    CARTESIAN X     2.517687     -0.146331  KCAL/ANGSTROM
     29         10  H    CARTESIAN Y     0.087537      0.165914  KCAL/ANGSTROM
     30         10  H    CARTESIAN Z    -1.136953      0.142379  KCAL/ANGSTROM
     31         11  H    CARTESIAN X     2.468808     -0.115737  KCAL/ANGSTROM
     32         11  H    CARTESIAN Y     0.815054     -0.019163  KCAL/ANGSTROM
     33         11  H    CARTESIAN Z     0.500382      0.020723  KCAL/ANGSTROM
     34         12  H    CARTESIAN X    -0.384164     -0.065592  KCAL/ANGSTROM
     35         12  H    CARTESIAN Y     2.233861      0.115503  KCAL/ANGSTROM
     36         12  H    CARTESIAN Z     0.106632     -0.111741  KCAL/ANGSTROM
     37         13  H    CARTESIAN X    -2.531419      0.153671  KCAL/ANGSTROM
     38         13  H    CARTESIAN Y     0.695579     -0.124761  KCAL/ANGSTROM
     39         13  H    CARTESIAN Z    -0.680375      0.269640  KCAL/ANGSTROM
     40         14  H    CARTESIAN X    -1.914516      0.326783  KCAL/ANGSTROM
     41         14  H    CARTESIAN Y     0.314139     -0.015986  KCAL/ANGSTROM
     42         14  H    CARTESIAN Z     2.068228     -0.106508  KCAL/ANGSTROM
     43         15  H    CARTESIAN X    -1.536158     -0.048811  KCAL/ANGSTROM
     44         15  H    CARTESIAN Y    -1.736672     -0.050244  KCAL/ANGSTROM
     45         15  H    CARTESIAN Z     0.803970      0.157136  KCAL/ANGSTROM
     46         16  H    CARTESIAN X    -1.975135      0.037349  KCAL/ANGSTROM
     47         16  H    CARTESIAN Y    -1.280065      0.266697  KCAL/ANGSTROM
     48         16  H    CARTESIAN Z    -1.969053     -0.298763  KCAL/ANGSTROM
     49         17  H    CARTESIAN X     0.825999     -0.002452  KCAL/ANGSTROM
     50         17  H    CARTESIAN Y    -1.810283      0.223760  KCAL/ANGSTROM
     51         17  H    CARTESIAN Z    -0.617404      0.018786  KCAL/ANGSTROM




   ATOM   CHEMICAL          X               Y               Z
  NUMBER   SYMBOL      (ANGSTROMS)     (ANGSTROMS)     (ANGSTROMS)

     1       C          1.93673711  *   0.76875754  *  -0.47845930  *
     2       N          0.56234001  *   0.32176356  *  -0.30355519  *
     3       C         -0.47038281  *   1.16105130  *  -0.03089807  *
     4       C         -1.76954016  *   0.38573853  *   0.08541202  *
     5       O         -2.41385248  *   0.64618179  *   1.28014555  *
     6       C         -1.31279953  *  -1.10611254  *  -0.09964429  *
     7       O         -1.95932467  *  -1.78384435  *  -1.11616524  *
     8       C          0.17492756  *  -0.97753587  *  -0.37415593  *
     9       H          1.99100628  *   1.78324537  *  -0.93100385  *
    10       H          2.51768677  *   0.08753677  *  -1.13695333  *
    11       H          2.46880844  *   0.81505382  *   0.50038240  *
    12       H         -0.38416366  *   2.23386128  *   0.10663189  *
    13       H         -2.53141907  *   0.69557870  *  -0.68037484  *
    14       H         -1.91451579  *   0.31413887  *   2.06822782  *
    15       H         -1.53615834  *  -1.73667249  *   0.80397031  *
    16       H         -1.97513533  *  -1.28006527  *  -1.96905312  *
    17       H          0.82599879  *  -1.81028334  *  -0.61740380  *

                             CARTESIAN COORDINATES

   1    C        1.936737105     0.768757536    -0.478459302
   2    N        0.562340006     0.321763558    -0.303555188
   3    C       -0.470382808     1.161051298    -0.030898074
   4    C       -1.769540160     0.385738534     0.085412024
   5    O       -2.413852478     0.646181794     1.280145549
   6    C       -1.312799533    -1.106112537    -0.099644291
   7    O       -1.959324668    -1.783844351    -1.116165237
   8    C        0.174927563    -0.977535872    -0.374155929
   9    H        1.991006279     1.783245369    -0.931003849
  10    H        2.517686769     0.087536771    -1.136953330
  11    H        2.468808435     0.815053823     0.500382400
  12    H       -0.384163661     2.233861276     0.106631887
  13    H       -2.531419074     0.695578703    -0.680374838
  14    H       -1.914515786     0.314138870     2.068227819
  15    H       -1.536158339    -1.736672494     0.803970309
  16    H       -1.975135332    -1.280065266    -1.969053123
  17    H        0.825998792    -1.810283338    -0.617403801


           Empirical Formula: C5 H9 N O2  =    17 atoms



      MOLECULAR POINT GROUP   :   C1  


          ALPHA EIGENVALUES  
 -43.75193 -35.46283 -34.33265 -32.41691 -30.78077 -29.22070 -26.67620 -25.39776
 -23.87943 -22.20721 -22.06020 -21.77760 -20.46512 -20.25864 -19.87347 -19.10359
 -19.04428 -17.90090 -17.59082 -17.08371 -16.09327 -15.22462 -14.83013  -5.96437
  -4.17931  -2.70860  -2.45097  -2.00773  -1.86878  -1.61777  -1.24189  -1.13380
  -0.11129  -0.02704   0.06440   0.17223   0.22791   0.56344   0.77590   1.34442
   1.50591


           BETA EIGENVALUES 
 -44.21801 -35.41548 -34.23490 -32.38367 -30.58434 -29.25990 -26.63718 -25.29986
 -23.82648 -22.12839 -22.00857 -21.80439 -20.55821 -20.13700 -19.79407 -19.03044
 -18.89702 -17.77579 -17.53506 -17.06079 -16.01078 -15.10092  -6.55047  -4.89006
  -4.27025  -2.57688  -2.38928  -1.94469  -1.69777  -1.53708  -1.18329  -1.11671
  -0.14456  -0.03653   0.16992   0.25970   0.28611   0.59319   0.76280   1.35092
   1.51363


              NET ATOMIC CHARGES AND DIPOLE CONTRIBUTIONS

  ATOM NO.   TYPE          CHARGE      No. of ELECS.   s-Pop       p-Pop       
    1          C          -0.321247        4.3212     1.07395     3.24729
    2          N          -0.000541        5.0005     1.49864     3.50190
    3          C          -0.040212        4.0402     1.16371     2.87651
    4          C           0.053793        3.9462     1.10597     2.84024
    5          O          -0.431169        6.4312     1.85132     4.57985
    6          C           0.054947        3.9451     1.10641     2.83864
    7          O          -0.432294        6.4323     1.85119     4.58111
    8          C          -0.037118        4.0371     1.16424     2.87288
    9          H           0.207434        0.7926     0.79257
   10          H           0.206670        0.7933     0.79333
   11          H           0.211691        0.7883     0.78831
   12          H           0.223994        0.7760     0.77601
   13          H           0.217018        0.7830     0.78298
   14          H           0.322635        0.6774     0.67736
   15          H           0.217268        0.7827     0.78273
   16          H           0.323425        0.6766     0.67657
   17          H           0.223706        0.7763     0.77629
 DIPOLE           X         Y         Z       TOTAL
 POINT-CHG.     5.859     1.907    -0.750     6.207
 HYBRID         0.576     0.190    -0.088     0.613
 SUM            6.435     2.097    -0.839     6.820


          ATOMIC ORBITAL ELECTRON POPULATIONS

     Atom    s        px        py        pz   
    1  C   1.07395   0.83138   1.19545   1.22047
    2  N   1.49864   1.12988   1.12031   1.25171
    3  C   1.16371   0.91589   1.05602   0.90459
    4  C   1.10597   0.95436   0.94717   0.93871
    5  O   1.85132   1.51527   1.82514   1.23944
    6  C   1.10641   0.85838   0.99025   0.99001
    7  O   1.85119   1.76966   1.49452   1.31693
    8  C   1.16424   1.06940   0.88595   0.91753
    9  H   0.79257
   10  H   0.79333
   11  H   0.78831
   12  H   0.77601
   13  H   0.78298
   14  H   0.67736
   15  H   0.78273
   16  H   0.67657
   17  H   0.77629


                    (SZ)    =    0.500000
                    (S**2)  =    0.840777


          ATOMIC ORBITAL SPIN POPULATIONS

    Atom   Total    s     px     py     pz   
         Atomic
    1  C  0.0173  0.002  0.013  0.003 -0.001
    2  N -0.3325 -0.018 -0.028 -0.032 -0.254
    3  C  0.6878  0.019  0.039  0.033  0.596
    4  C -0.0306 -0.003 -0.014 -0.004 -0.009
    5  O  0.0205  0.001  0.017 -0.004  0.007
    6  C -0.0303 -0.003 -0.020  0.002 -0.009
    7  O  0.0203  0.001  0.012  0.005  0.003
    8  C  0.6816  0.019  0.053  0.032  0.577
    9  H -0.0044 -0.004
   10  H -0.0034 -0.003
   11  H -0.0128 -0.013
   12  H -0.0186 -0.019
   13  H  0.0126  0.013
   14  H -0.0007 -0.001
   15  H  0.0123  0.012
   16  H -0.0007 -0.001
   17  H -0.0184 -0.018

 **********************
 *                    *
 * JOB ENDED NORMALLY *
 *                    *
 **********************



 TOTAL JOB TIME:             1.44 SECONDS

 == MOPAC DONE ==
