 *******************************************************************************
 **                                                                           **
 **                              MOPAC v23.2                                  **
 **                                                                           **
 *******************************************************************************
 **          Digital Object Identifier (DOI): 10.5281/zenodo.6511958          **
 **    Visit the DOI location for information on how to cite this program.    **
 *******************************************************************************

                              PM7 CALCULATION RESULTS

 *******************************************************************************
 *  CALCULATION DONE: (MAX THREADS = 40)             Fri Sep 19 21:33:14 2025  *
 *  PM7        - The PM7 Hamiltonian to be used
 *
 *
 *
 *                 CHARGE ON SYSTEM = +1
 *
 *
 *
 *  EPS=37.5   - USE ANDREAS KLAMT'S COSMO IMPLICIT SOLVATION MODEL
 *  1SCF       - DO 1 SCF AND THEN STOP 
 *  T=         - A TIME OF 172800.0 SECONDS REQUESTED
 *  DUMP=N     - RESTART FILE WRITTEN EVERY 7200.0 SECONDS REQUESTED
 *  RELSCF     - DEFAULT SCF CRITERION MULTIPLIED BY 0.0001
 *              (DEFAULT SCF CRITERION = 0.00010)
 *  GRADIENTS  - ALL GRADIENTS TO BE PRINTED
 *  DISP       - PRINT DISPERSION AND HYDROGEN BOND ENERGIES
 *******************************************************************************
PM7 1SCF GRADIENTS EPS=37.5 DISP RELSCF=0.0001 CHARGE=1
 Title: ASE calculation

   ATOM   CHEMICAL          X               Y               Z
  NUMBER   SYMBOL      (ANGSTROMS)     (ANGSTROMS)     (ANGSTROMS)

     1       C          3.05013341  *   2.19209061  *   0.54544654  *
     2       C          1.82291645  *   1.95408326  *   0.17518013  *
     3       C          0.55437404  *   1.68337570  *  -0.15807289  *
     4       C         -0.52419932  *   1.05025822  *   0.64545632  *
     5       C         -0.38931381  *  -0.37733784  *   0.55422030  *
     6       C         -0.29293217  *  -1.58288350  *   0.49919107  *
     7       C         -1.92407003  *   1.53568437  *   0.12178388  *
     8       C         -3.06512360  *   0.67573276  *   0.60932099  *
     9       O         -1.79442559  *   1.52473788  *  -1.28834796  *
    10       H          4.03104196  *   2.38035540  *   0.83151616  *
    11       H          0.32465656  *   1.50528211  *  -1.51218263  *
    12       H          0.10720043  *   2.35423685  *  -1.27682442  *
    13       H         -0.43373049  *   1.36709259  *   1.73281662  *
    14       H         -0.21239683  *  -2.61555929  *   0.45448330  *
    15       H         -2.07366919  *   2.61555929  *   0.36752643  *
    16       H         -2.94331494  *  -0.38565202  *   0.34508228  *
    17       H         -3.17213216  *   0.71218031  *   1.70531438  *
    18       H         -4.03104196  *   1.00702004  *   0.19443729  *
    19       H         -2.42870440  *   0.92161903  *  -1.73281662  *



          CARTESIAN COORDINATES 

    NO.       ATOM           X           Y           Z

     1         C          3.0501      2.1921      0.5454
     2         C          1.8229      1.9541      0.1752
     3         C          0.5544      1.6834     -0.1581
     4         C         -0.5242      1.0503      0.6455
     5         C         -0.3893     -0.3773      0.5542
     6         C         -0.2929     -1.5829      0.4992
     7         C         -1.9241      1.5357      0.1218
     8         C         -3.0651      0.6757      0.6093
     9         O         -1.7944      1.5247     -1.2883
    10         H          4.0310      2.3804      0.8315
    11         H          0.3247      1.5053     -1.5122
    12         H          0.1072      2.3542     -1.2768
    13         H         -0.4337      1.3671      1.7328
    14         H         -0.2124     -2.6156      0.4545
    15         H         -2.0737      2.6156      0.3675
    16         H         -2.9433     -0.3857      0.3451
    17         H         -3.1721      0.7122      1.7053
    18         H         -4.0310      1.0070      0.1944
    19         H         -2.4287      0.9216     -1.7328

 General Reference for PM7:
 "Optimization of Parameters for Semiempirical Methods VI: More Modifications to the 
 NDDO Approximations and Re-optimization of Parameters", J. J. P. Stewart, J. Mol. Mod., 1:32, 19 (2013)
 https://link.springer.com/article/10.1007/s00894-012-1667-x

           Empirical Formula: C8 H10 O  =    19 atoms



      MOLECULAR POINT GROUP   :   C1  


          UHF CALCULATION, NO. OF ALPHA ELECTRONS =   24
                           NO. OF BETA  ELECTRONS =   23
  SCF CRITERION =    0.1000E-07

 -------------------------------------------------------------------------------
 PM7 1SCF GRADIENTS EPS=37.5 DISP RELSCF=0.0001 CHARGE=1
 Title: ASE calculation



     1SCF WAS SPECIFIED, SO BFGS WAS NOT USED                 
     SCF FIELD WAS ACHIEVED                                   


                              PM7 CALCULATION
                                                       MOPAC v23.2 Linux
                                                       Fri Sep 19 21:33:15 2025




          FINAL HEAT OF FORMATION =        206.78114 KCAL/MOL =     865.17230 KJ/MOL

          TOTAL ENERGY            =     -32357.62055 KCAL/MOL = ELECTRONIC ENERGY + CORE-CORE REPULSION + SOLVATION ENERGY
          ENERGY OF ATOMS         =      32552.68886 KCAL/MOL
                              SUM =        195.06830 KCAL/MOL
          DISPERSION ENERGY       =         -2.03513 KCAL/MOL
                              SUM =        193.03317 KCAL/MOL = FINAL HEAT OF FORMATION

     *    WARNING - An energy term is incorrect or missing!

     *    FINAL HEAT OF FORMATION     =    206.78114 KCAL/MOL
     *    SUM OF CONTRIBUTIONS TO HoF =    193.03317 KCAL/MOL
     *                     DIFFERENCE =     13.74797 KCAL/MOL

          VAN DER WAALS AREA      =        180.07 SQUARE ANGSTROMS


          TOTAL ENERGY            =      -1403.15923 EV
          ELECTRONIC ENERGY       =      -2028.19756 EV 
          CORE-CORE REPULSION     =        625.03833 EV

          DIELECTRIC ENERGY       =         -2.51054 EV
          COSMO AREA              =        180.07 SQUARE ANGSTROMS
          COSMO VOLUME            =        177.85 CUBIC ANGSTROMS

          GRADIENT NORM           =         20.97041          =       4.81094 PER ATOM
          IONIZATION POTENTIAL    =         10.425594 EV
          ALPHA SOMO LUMO (EV)    =        -10.426 -0.688
          BETA  SOMO LUMO (EV)    =        -11.063 -2.356
          NO. OF ALPHA ELECTRONS  =         24
          NO. OF BETA  ELECTRONS  =         23
          MOLECULAR WEIGHT        =        122.1664         POINT GROUP:  C1  

          MOLECULAR DIMENSIONS (Angstroms)

            Atom       Atom       Distance
            H    18    H    10     8.20299
            H    14    H    15     5.46940
            H    19    H    17     3.48720


          SCF CALCULATIONS        =          2

          WALL-CLOCK TIME         =      1.367 SECONDS
          COMPUTATION TIME        =      0.785 SECONDS

          LARGEST ATOMIC GRADIENTS

          Atom     Label                     Cartesian Gradients           Cartesian Coordinates       |Gradient|
                                           X          Y          Z        X          Y          Z

             3       C                   2.664     -2.578     14.862    0.55437    1.68338   -0.15807     15.318
            12       H                  -2.722     -1.988     -5.529    0.10720    2.35424   -1.27682      6.475
             2       C                  -0.785      1.272     -6.247    1.82292    1.95408    0.17518      6.423
             9       O                   4.770     -2.291     -1.098   -1.79443    1.52474   -1.28835      5.405
            11       H                  -2.711      2.460     -3.799    0.32466    1.50528   -1.51218      5.276
             7       C                  -3.727      0.201      0.483   -1.92407    1.53568    0.12178      3.763
             8       C                   2.796      1.331     -1.586   -3.06512    0.67573    0.60932      3.479
             5       C                   1.001      2.762     -0.831   -0.38931   -0.37734    0.55422      3.053
            19       H                  -0.310      2.861      0.444   -2.42870    0.92162   -1.73282      2.912
            10       H                   2.058      0.178      0.648    4.03104    2.38036    0.83152      2.166



       FINAL  POINT  AND  DERIVATIVES

   PARAMETER     ATOM    TYPE            VALUE        GRADIENT
      1          1  C    CARTESIAN X     3.050133      0.973030  KCAL/ANGSTROM
      2          1  C    CARTESIAN Y     2.192091     -0.358278  KCAL/ANGSTROM
      3          1  C    CARTESIAN Z     0.545447      1.484006  KCAL/ANGSTROM
      4          2  C    CARTESIAN X     1.822916     -0.784778  KCAL/ANGSTROM
      5          2  C    CARTESIAN Y     1.954083      1.271787  KCAL/ANGSTROM
      6          2  C    CARTESIAN Z     0.175180     -6.247179  KCAL/ANGSTROM
      7          3  C    CARTESIAN X     0.554374      2.663970  KCAL/ANGSTROM
      8          3  C    CARTESIAN Y     1.683376     -2.577714  KCAL/ANGSTROM
      9          3  C    CARTESIAN Z    -0.158073     14.862237  KCAL/ANGSTROM
     10          4  C    CARTESIAN X    -0.524199     -0.279703  KCAL/ANGSTROM
     11          4  C    CARTESIAN Y     1.050258     -0.308986  KCAL/ANGSTROM
     12          4  C    CARTESIAN Z     0.645456      0.116330  KCAL/ANGSTROM
     13          5  C    CARTESIAN X    -0.389314      1.000625  KCAL/ANGSTROM
     14          5  C    CARTESIAN Y    -0.377338      2.761948  KCAL/ANGSTROM
     15          5  C    CARTESIAN Z     0.554220     -0.830760  KCAL/ANGSTROM
     16          6  C    CARTESIAN X    -0.292932     -0.473868  KCAL/ANGSTROM
     17          6  C    CARTESIAN Y    -1.582884      0.884202  KCAL/ANGSTROM
     18          6  C    CARTESIAN Z     0.499191     -0.128705  KCAL/ANGSTROM
     19          7  C    CARTESIAN X    -1.924070     -3.726534  KCAL/ANGSTROM
     20          7  C    CARTESIAN Y     1.535684      0.201280  KCAL/ANGSTROM
     21          7  C    CARTESIAN Z     0.121784      0.483168  KCAL/ANGSTROM
     22          8  C    CARTESIAN X    -3.065124      2.795781  KCAL/ANGSTROM
     23          8  C    CARTESIAN Y     0.675733      1.331207  KCAL/ANGSTROM
     24          8  C    CARTESIAN Z     0.609321     -1.585651  KCAL/ANGSTROM
     25          9  O    CARTESIAN X    -1.794426      4.770377  KCAL/ANGSTROM
     26          9  O    CARTESIAN Y     1.524738     -2.291491  KCAL/ANGSTROM
     27          9  O    CARTESIAN Z    -1.288348     -1.097611  KCAL/ANGSTROM
     28         10  H    CARTESIAN X     4.031042      2.058499  KCAL/ANGSTROM
     29         10  H    CARTESIAN Y     2.380355      0.178476  KCAL/ANGSTROM
     30         10  H    CARTESIAN Z     0.831516      0.648216  KCAL/ANGSTROM
     31         11  H    CARTESIAN X     0.324657     -2.711015  KCAL/ANGSTROM
     32         11  H    CARTESIAN Y     1.505282      2.460102  KCAL/ANGSTROM
     33         11  H    CARTESIAN Z    -1.512183     -3.799082  KCAL/ANGSTROM
     34         12  H    CARTESIAN X     0.107200     -2.722023  KCAL/ANGSTROM
     35         12  H    CARTESIAN Y     2.354237     -1.988235  KCAL/ANGSTROM
     36         12  H    CARTESIAN Z    -1.276824     -5.528677  KCAL/ANGSTROM
     37         13  H    CARTESIAN X    -0.433730      0.310208  KCAL/ANGSTROM
     38         13  H    CARTESIAN Y     1.367093     -1.050818  KCAL/ANGSTROM
     39         13  H    CARTESIAN Z     1.732817     -0.424481  KCAL/ANGSTROM
     40         14  H    CARTESIAN X    -0.212397     -0.171825  KCAL/ANGSTROM
     41         14  H    CARTESIAN Y    -2.615559     -1.852428  KCAL/ANGSTROM
     42         14  H    CARTESIAN Z     0.454483      0.307479  KCAL/ANGSTROM
     43         15  H    CARTESIAN X    -2.073669     -1.325991  KCAL/ANGSTROM
     44         15  H    CARTESIAN Y     2.615559     -0.218291  KCAL/ANGSTROM
     45         15  H    CARTESIAN Z     0.367526     -0.612999  KCAL/ANGSTROM
     46         16  H    CARTESIAN X    -2.943315      0.102877  KCAL/ANGSTROM
     47         16  H    CARTESIAN Y    -0.385652     -0.694618  KCAL/ANGSTROM
     48         16  H    CARTESIAN Z     0.345082      0.876902  KCAL/ANGSTROM
     49         17  H    CARTESIAN X    -3.172132     -1.096580  KCAL/ANGSTROM
     50         17  H    CARTESIAN Y     0.712180     -0.622625  KCAL/ANGSTROM
     51         17  H    CARTESIAN Z     1.705314      0.522530  KCAL/ANGSTROM
     52         18  H    CARTESIAN X    -4.031042     -1.072720  KCAL/ANGSTROM
     53         18  H    CARTESIAN Y     1.007020      0.013399  KCAL/ANGSTROM
     54         18  H    CARTESIAN Z     0.194437      0.510753  KCAL/ANGSTROM
     55         19  H    CARTESIAN X    -2.428704     -0.310332  KCAL/ANGSTROM
     56         19  H    CARTESIAN Y     0.921619      2.861083  KCAL/ANGSTROM
     57         19  H    CARTESIAN Z    -1.732817      0.443521  KCAL/ANGSTROM




   ATOM   CHEMICAL          X               Y               Z
  NUMBER   SYMBOL      (ANGSTROMS)     (ANGSTROMS)     (ANGSTROMS)

     1       C          3.05013341  *   2.19209061  *   0.54544654  *
     2       C          1.82291645  *   1.95408326  *   0.17518013  *
     3       C          0.55437404  *   1.68337570  *  -0.15807289  *
     4       C         -0.52419932  *   1.05025822  *   0.64545632  *
     5       C         -0.38931381  *  -0.37733784  *   0.55422030  *
     6       C         -0.29293217  *  -1.58288350  *   0.49919107  *
     7       C         -1.92407003  *   1.53568437  *   0.12178388  *
     8       C         -3.06512360  *   0.67573276  *   0.60932099  *
     9       O         -1.79442559  *   1.52473788  *  -1.28834796  *
    10       H          4.03104196  *   2.38035540  *   0.83151616  *
    11       H          0.32465656  *   1.50528211  *  -1.51218263  *
    12       H          0.10720043  *   2.35423685  *  -1.27682442  *
    13       H         -0.43373049  *   1.36709259  *   1.73281662  *
    14       H         -0.21239683  *  -2.61555929  *   0.45448330  *
    15       H         -2.07366919  *   2.61555929  *   0.36752643  *
    16       H         -2.94331494  *  -0.38565202  *   0.34508228  *
    17       H         -3.17213216  *   0.71218031  *   1.70531438  *
    18       H         -4.03104196  *   1.00702004  *   0.19443729  *
    19       H         -2.42870440  *   0.92161903  *  -1.73281662  *

                             CARTESIAN COORDINATES

   1    C        3.050133411     2.192090614     0.545446542
   2    C        1.822916445     1.954083256     0.175180130
   3    C        0.554374036     1.683375697    -0.158072890
   4    C       -0.524199321     1.050258217     0.645456321
   5    C       -0.389313807    -0.377337838     0.554220296
   6    C       -0.292932171    -1.582883504     0.499191069
   7    C       -1.924070026     1.535684366     0.121783881
   8    C       -3.065123602     0.675732765     0.609320990
   9    O       -1.794425588     1.524737877    -1.288347957
  10    H        4.031041965     2.380355404     0.831516163
  11    H        0.324656559     1.505282108    -1.512182630
  12    H        0.107200428     2.354236846    -1.276824418
  13    H       -0.433730494     1.367092588     1.732816618
  14    H       -0.212396827    -2.615559287     0.454483301
  15    H       -2.073669195     2.615559287     0.367526433
  16    H       -2.943314943    -0.385652017     0.345082285
  17    H       -3.172132162     0.712180313     1.705314377
  18    H       -4.031041965     1.007020044     0.194437291
  19    H       -2.428704404     0.921619028    -1.732816618


           Empirical Formula: C8 H10 O  =    19 atoms



      MOLECULAR POINT GROUP   :   C1  


          ALPHA EIGENVALUES  
 -31.23750 -29.19588 -27.55919 -26.35576 -26.02795 -23.79151 -21.92391 -20.11051
 -18.80471 -17.69827 -17.42981 -16.84448 -16.28511 -15.77695 -14.85346 -13.58622
 -13.38314 -13.34942 -12.98458 -11.98592 -11.91200 -11.43582 -11.09001 -10.42559
  -0.68848   0.12206   0.69595   1.01305   1.11492   2.11219   2.70206   2.73957
   3.22217   3.38512   3.60757   3.81415   4.33567   4.86922   4.95451   5.35835
   5.46787   5.64627   5.67988   5.73419   6.51700   6.58027


           BETA EIGENVALUES 
 -31.18303 -29.13664 -27.50536 -26.34987 -25.85448 -23.65815 -21.89072 -19.99354
 -18.72909 -17.61694 -17.38147 -16.80675 -16.21567 -15.65183 -14.74393 -13.39325
 -13.37747 -13.00247 -12.68581 -11.91369 -11.88385 -11.38084 -11.06253  -2.35594
  -0.42760   0.76470   1.01561   1.03343   1.19577   2.13653   2.74679   2.83280
   3.36493   3.51577   3.64850   3.85039   4.47067   4.88044   4.95907   5.35873
   5.46827   5.67958   5.73486   5.75351   6.51513   6.58034


              NET ATOMIC CHARGES AND DIPOLE CONTRIBUTIONS

  ATOM NO.   TYPE          CHARGE      No. of ELECS.   s-Pop       p-Pop       
    1          C           0.089122        3.9109     1.19529     2.71559
    2          C          -0.162991        4.1630     1.07981     3.08318
    3          C           0.032171        3.9678     1.06181     2.90602
    4          C          -0.145852        4.1459     1.05332     3.09253
    5          C          -0.111738        4.1117     1.09519     3.01655
    6          C          -0.161910        4.1619     1.14674     3.01517
    7          C           0.210586        3.7894     1.09402     2.69539
    8          C          -0.513641        4.5136     1.06020     3.45344
    9          O          -0.679164        6.6792     1.83843     4.84074
   10          H           0.230964        0.7690     0.76904
   11          H           0.345029        0.6550     0.65497
   12          H           0.340250        0.6597     0.65975
   13          H           0.228142        0.7719     0.77186
   14          H           0.209117        0.7909     0.79088
   15          H           0.160273        0.8397     0.83973
   16          H           0.175030        0.8250     0.82497
   17          H           0.182989        0.8170     0.81701
   18          H           0.179530        0.8205     0.82047
   19          H           0.392091        0.6079     0.60791
 DIPOLE           X         Y         Z       TOTAL
 POINT-CHG.     3.746     3.334    -1.229     5.163
 HYBRID        -0.119    -0.192    -1.092     1.115
 SUM            3.628     3.142    -2.321     5.331


          ATOMIC ORBITAL ELECTRON POPULATIONS

     Atom    s        px        py        pz   
    1  C   1.19529   0.98820   0.85357   0.87381
    2  C   1.07981   0.96910   1.01130   1.10278
    3  C   1.06181   0.98799   1.09698   0.82105
    4  C   1.05332   0.99590   0.96956   1.12707
    5  C   1.09519   1.02621   0.96840   1.02195
    6  C   1.14674   0.98213   1.03793   0.99512
    7  C   1.09402   0.90995   1.06778   0.71766
    8  C   1.06020   1.10453   1.15517   1.19374
    9  O   1.83843   1.72544   1.77200   1.34330
   10  H   0.76904
   11  H   0.65497
   12  H   0.65975
   13  H   0.77186
   14  H   0.79088
   15  H   0.83973
   16  H   0.82497
   17  H   0.81701
   18  H   0.82047
   19  H   0.60791


                    (SZ)    =    0.500000
                    (S**2)  =    0.843867


          ATOMIC ORBITAL SPIN POPULATIONS

    Atom   Total    s     px     py     pz   
         Atomic
    1  C  0.7353  0.019  0.061  0.488  0.167
    2  C -0.4075 -0.020 -0.042 -0.212 -0.133
    3  C  0.6841  0.019  0.074  0.521  0.070
    4  C -0.0326 -0.004 -0.013 -0.008 -0.007
    5  C  0.0262  0.009  0.002  0.012  0.003
    6  C -0.0045 -0.000 -0.001 -0.000 -0.003
    7  C  0.0062  0.001  0.004  0.001  0.001
    8  C -0.0003 -0.000 -0.000 -0.000 -0.000
    9  O  0.0003 -0.000  0.000  0.000 -0.000
   10  H -0.0180 -0.018
   11  H  0.0051  0.005
   12  H -0.0018 -0.002
   13  H  0.0073  0.007
   14  H  0.0006  0.001
   15  H -0.0001 -0.000
   16  H  0.0000  0.000
   17  H  0.0000  0.000
   18  H  0.0001  0.000
   19  H -0.0002 -0.000

 **********************
 *                    *
 * JOB ENDED NORMALLY *
 *                    *
 **********************



 TOTAL JOB TIME:             1.80 SECONDS

 == MOPAC DONE ==
