 *******************************************************************************
 **                                                                           **
 **                              MOPAC v23.2                                  **
 **                                                                           **
 *******************************************************************************
 **          Digital Object Identifier (DOI): 10.5281/zenodo.6511958          **
 **    Visit the DOI location for information on how to cite this program.    **
 *******************************************************************************

                              PM7 CALCULATION RESULTS

 *******************************************************************************
 *  CALCULATION DONE: (MAX THREADS = 40)             Fri Sep 19 21:33:02 2025  *
 *  PM7        - The PM7 Hamiltonian to be used
 *
 *
 *
 *                 CHARGE ON SYSTEM = +1
 *
 *
 *
 *  1SCF       - DO 1 SCF AND THEN STOP 
 *  T=         - A TIME OF 172800.0 SECONDS REQUESTED
 *  DUMP=N     - RESTART FILE WRITTEN EVERY 7200.0 SECONDS REQUESTED
 *  RELSCF     - DEFAULT SCF CRITERION MULTIPLIED BY 0.0001
 *              (DEFAULT SCF CRITERION = 0.00010)
 *  GRADIENTS  - ALL GRADIENTS TO BE PRINTED
 *  DISP       - PRINT DISPERSION AND HYDROGEN BOND ENERGIES
 *******************************************************************************
PM7 1SCF GRADIENTS DISP RELSCF=0.0001 CHARGE=1
 Title: ASE calculation

   ATOM   CHEMICAL          X               Y               Z
  NUMBER   SYMBOL      (ANGSTROMS)     (ANGSTROMS)     (ANGSTROMS)

     1       O          2.68404825  *  -0.66657381  *  -0.32831964  *
     2       C          1.54709804  *  -0.35686144  *  -0.28372363  *
     3       O          1.15230341  *   0.95725591  *   0.01052232  *
     4       C         -0.23033874  *   1.07462390  *   0.00452031  *
     5       C         -0.83631587  *  -0.01029947  *  -1.02691558  *
     6       C          0.26161154  *  -1.15000968  *  -0.53377096  *
     7       N         -0.61398391  *  -1.17617251  *   0.65216921  *
     8       C         -0.91305845  *   0.18899398  *   1.13988575  *
     9       C         -1.81923597  *  -0.53281699  *   0.07640871  *
    10       H         -0.49946426  *   2.13721295  *  -0.06114782  *
    11       H         -1.05544461  *   0.13950510  *  -2.07060302  *
    12       H          0.34665155  *  -2.08341444  *  -1.12007295  *
    13       H         -1.09167672  *   0.46445795  *   2.17248403  *
    14       H         -2.85404649  *  -0.83232827  *   0.04691712  *



          CARTESIAN COORDINATES 

    NO.       ATOM           X           Y           Z

     1         O          2.6840     -0.6666     -0.3283
     2         C          1.5471     -0.3569     -0.2837
     3         O          1.1523      0.9573      0.0105
     4         C         -0.2303      1.0746      0.0045
     5         C         -0.8363     -0.0103     -1.0269
     6         C          0.2616     -1.1500     -0.5338
     7         N         -0.6140     -1.1762      0.6522
     8         C         -0.9131      0.1890      1.1399
     9         C         -1.8192     -0.5328      0.0764
    10         H         -0.4995      2.1372     -0.0611
    11         H         -1.0554      0.1395     -2.0706
    12         H          0.3467     -2.0834     -1.1201
    13         H         -1.0917      0.4645      2.1725
    14         H         -2.8540     -0.8323      0.0469

 General Reference for PM7:
 "Optimization of Parameters for Semiempirical Methods VI: More Modifications to the 
 NDDO Approximations and Re-optimization of Parameters", J. J. P. Stewart, J. Mol. Mod., 1:32, 19 (2013)
 https://link.springer.com/article/10.1007/s00894-012-1667-x

           Empirical Formula: C6 H5 N O2  =    14 atoms



      MOLECULAR POINT GROUP   :   C1  


          UHF CALCULATION, NO. OF ALPHA ELECTRONS =   23
                           NO. OF BETA  ELECTRONS =   22
  SCF CRITERION =    0.1000E-07

 -------------------------------------------------------------------------------
 PM7 1SCF GRADIENTS DISP RELSCF=0.0001 CHARGE=1
 Title: ASE calculation



     1SCF WAS SPECIFIED, SO BFGS WAS NOT USED                 
     SCF FIELD WAS ACHIEVED                                   


                              PM7 CALCULATION
                                                       MOPAC v23.2 Linux
                                                       Fri Sep 19 21:33:02 2025




          FINAL HEAT OF FORMATION =        274.93399 KCAL/MOL =    1150.32380 KJ/MOL

          TOTAL ENERGY            =     -36133.60174 KCAL/MOL = ELECTRONIC ENERGY + CORE-CORE REPULSION
          ENERGY OF ATOMS         =      36409.43893 KCAL/MOL
                              SUM =        275.83719 KCAL/MOL
          DISPERSION ENERGY       =         -0.90321 KCAL/MOL
                              SUM =        274.93399 KCAL/MOL = FINAL HEAT OF FORMATION



          TOTAL ENERGY            =      -1566.90127 EV
          ELECTRONIC ENERGY       =      -7032.64477 EV 
          CORE-CORE REPULSION     =       5465.74350 EV
          COSMO AREA              =        136.73 SQUARE ANGSTROMS
          COSMO VOLUME            =        131.21 CUBIC ANGSTROMS

          GRADIENT NORM           =          0.91333          =       0.24410 PER ATOM
          IONIZATION POTENTIAL    =         15.776436 EV
          ALPHA SOMO LUMO (EV)    =        -15.832 -5.718
          BETA  SOMO LUMO (EV)    =        -15.776 -9.062
          NO. OF ALPHA ELECTRONS  =         23
          NO. OF BETA  ELECTRONS  =         22
          MOLECULAR WEIGHT        =        123.1110         POINT GROUP:  C1  

          MOLECULAR DIMENSIONS (Angstroms)

            Atom       Atom       Distance
            H    14    O     1     5.55327
            H    10    H    12     4.36209
            H    13    H    11     4.04179


          SCF CALCULATIONS        =          1

          WALL-CLOCK TIME         =      0.633 SECONDS
          COMPUTATION TIME        =      1.071 SECONDS

          LARGEST ATOMIC GRADIENTS

          Atom     Label                     Cartesian Gradients           Cartesian Coordinates       |Gradient|
                                           X          Y          Z        X          Y          Z

             1       O                   0.092      0.049     -0.390    2.68405   -0.66657   -0.32832      0.404
             5       C                   0.174      0.251     -0.046   -0.83632   -0.01030   -1.02692      0.309
             7       N                   0.070      0.133      0.257   -0.61398   -1.17617    0.65217      0.298
            14       H                  -0.185     -0.075     -0.216   -2.85405   -0.83233    0.04692      0.294
             9       C                   0.040     -0.199     -0.189   -1.81924   -0.53282    0.07641      0.277
            13       H                  -0.072      0.087      0.224   -1.09168    0.46446    2.17248      0.251
             3       O                   0.119     -0.084      0.197    1.15230    0.95726    0.01052      0.245
             8       C                  -0.031      0.203      0.046   -0.91306    0.18899    1.13989      0.210
            10       H                  -0.034     -0.162      0.105   -0.49946    2.13721   -0.06115      0.197
            12       H                  -0.137     -0.093      0.106    0.34665   -2.08341   -1.12007      0.197



       FINAL  POINT  AND  DERIVATIVES

   PARAMETER     ATOM    TYPE            VALUE        GRADIENT
      1          1  O    CARTESIAN X     2.684048      0.092498  KCAL/ANGSTROM
      2          1  O    CARTESIAN Y    -0.666574      0.049238  KCAL/ANGSTROM
      3          1  O    CARTESIAN Z    -0.328320     -0.389997  KCAL/ANGSTROM
      4          2  C    CARTESIAN X     1.547098      0.172723  KCAL/ANGSTROM
      5          2  C    CARTESIAN Y    -0.356861      0.032305  KCAL/ANGSTROM
      6          2  C    CARTESIAN Z    -0.283724      0.022602  KCAL/ANGSTROM
      7          3  O    CARTESIAN X     1.152303      0.119206  KCAL/ANGSTROM
      8          3  O    CARTESIAN Y     0.957256     -0.084459  KCAL/ANGSTROM
      9          3  O    CARTESIAN Z     0.010522      0.197053  KCAL/ANGSTROM
     10          4  C    CARTESIAN X    -0.230339     -0.032464  KCAL/ANGSTROM
     11          4  C    CARTESIAN Y     1.074624     -0.087230  KCAL/ANGSTROM
     12          4  C    CARTESIAN Z     0.004520     -0.096290  KCAL/ANGSTROM
     13          5  C    CARTESIAN X    -0.836316      0.173609  KCAL/ANGSTROM
     14          5  C    CARTESIAN Y    -0.010299      0.251460  KCAL/ANGSTROM
     15          5  C    CARTESIAN Z    -1.026916     -0.046437  KCAL/ANGSTROM
     16          6  C    CARTESIAN X     0.261612     -0.094241  KCAL/ANGSTROM
     17          6  C    CARTESIAN Y    -1.150010     -0.034489  KCAL/ANGSTROM
     18          6  C    CARTESIAN Z    -0.533771      0.068363  KCAL/ANGSTROM
     19          7  N    CARTESIAN X    -0.613984      0.069811  KCAL/ANGSTROM
     20          7  N    CARTESIAN Y    -1.176173      0.133304  KCAL/ANGSTROM
     21          7  N    CARTESIAN Z     0.652169      0.257056  KCAL/ANGSTROM
     22          8  C    CARTESIAN X    -0.913058     -0.030632  KCAL/ANGSTROM
     23          8  C    CARTESIAN Y     0.188994      0.202525  KCAL/ANGSTROM
     24          8  C    CARTESIAN Z     1.139886      0.045508  KCAL/ANGSTROM
     25          9  C    CARTESIAN X    -1.819236      0.040252  KCAL/ANGSTROM
     26          9  C    CARTESIAN Y    -0.532817     -0.198555  KCAL/ANGSTROM
     27          9  C    CARTESIAN Z     0.076409     -0.189264  KCAL/ANGSTROM
     28         10  H    CARTESIAN X    -0.499464     -0.034482  KCAL/ANGSTROM
     29         10  H    CARTESIAN Y     2.137213     -0.162429  KCAL/ANGSTROM
     30         10  H    CARTESIAN Z    -0.061148      0.105403  KCAL/ANGSTROM
     31         11  H    CARTESIAN X    -1.055445     -0.082221  KCAL/ANGSTROM
     32         11  H    CARTESIAN Y     0.139505     -0.020823  KCAL/ANGSTROM
     33         11  H    CARTESIAN Z    -2.070603     -0.087940  KCAL/ANGSTROM
     34         12  H    CARTESIAN X     0.346652     -0.137093  KCAL/ANGSTROM
     35         12  H    CARTESIAN Y    -2.083414     -0.092572  KCAL/ANGSTROM
     36         12  H    CARTESIAN Z    -1.120073      0.106351  KCAL/ANGSTROM
     37         13  H    CARTESIAN X    -1.091677     -0.071799  KCAL/ANGSTROM
     38         13  H    CARTESIAN Y     0.464458      0.086860  KCAL/ANGSTROM
     39         13  H    CARTESIAN Z     2.172484      0.223759  KCAL/ANGSTROM
     40         14  H    CARTESIAN X    -2.854046     -0.185172  KCAL/ANGSTROM
     41         14  H    CARTESIAN Y    -0.832328     -0.075141  KCAL/ANGSTROM
     42         14  H    CARTESIAN Z     0.046917     -0.216173  KCAL/ANGSTROM




   ATOM   CHEMICAL          X               Y               Z
  NUMBER   SYMBOL      (ANGSTROMS)     (ANGSTROMS)     (ANGSTROMS)

     1       O          2.68404825  *  -0.66657381  *  -0.32831964  *
     2       C          1.54709804  *  -0.35686144  *  -0.28372363  *
     3       O          1.15230341  *   0.95725591  *   0.01052232  *
     4       C         -0.23033874  *   1.07462390  *   0.00452031  *
     5       C         -0.83631587  *  -0.01029947  *  -1.02691558  *
     6       C          0.26161154  *  -1.15000968  *  -0.53377096  *
     7       N         -0.61398391  *  -1.17617251  *   0.65216921  *
     8       C         -0.91305845  *   0.18899398  *   1.13988575  *
     9       C         -1.81923597  *  -0.53281699  *   0.07640871  *
    10       H         -0.49946426  *   2.13721295  *  -0.06114782  *
    11       H         -1.05544461  *   0.13950510  *  -2.07060302  *
    12       H          0.34665155  *  -2.08341444  *  -1.12007295  *
    13       H         -1.09167672  *   0.46445795  *   2.17248403  *
    14       H         -2.85404649  *  -0.83232827  *   0.04691712  *

                             CARTESIAN COORDINATES

   1    O        2.684048251    -0.666573815    -0.328319641
   2    C        1.547098045    -0.356861441    -0.283723630
   3    O        1.152303414     0.957255913     0.010522321
   4    C       -0.230338740     1.074623898     0.004520306
   5    C       -0.836315873    -0.010299473    -1.026915580
   6    C        0.261611538    -1.150009675    -0.533770964
   7    N       -0.613983911    -1.176172512     0.652169206
   8    C       -0.913058451     0.188993983     1.139885749
   9    C       -1.819235974    -0.532816988     0.076408715
  10    H       -0.499464258     2.137212950    -0.061147820
  11    H       -1.055444607     0.139505100    -2.070603025
  12    H        0.346651550    -2.083414439    -1.120072947
  13    H       -1.091676715     0.464457949     2.172484028
  14    H       -2.854046491    -0.832328266     0.046917124


           Empirical Formula: C6 H5 N O2  =    14 atoms



      MOLECULAR POINT GROUP   :   C1  


          ALPHA EIGENVALUES  
 -45.75913 -37.15751 -36.42856 -32.86946 -32.18891 -29.03851 -28.17979 -25.56391
 -24.38710 -24.12491 -23.38313 -22.41962 -21.34143 -20.89149 -20.31460 -19.63381
 -19.48842 -18.95825 -18.58834 -18.31152 -17.27573 -16.36202 -15.83195  -5.71779
  -5.08061  -4.37794  -4.19557  -3.91121  -3.86353  -3.62261  -3.54850  -3.04337
  -2.86733  -2.67792  -1.20183  -0.52989  -0.42555  -0.26446  -0.18959  -0.03826
   0.07882


           BETA EIGENVALUES 
 -45.00036 -37.09414 -36.31040 -32.36195 -31.93234 -28.89111 -28.00307 -25.45079
 -24.28678 -23.60483 -22.82968 -22.28284 -21.24258 -20.57645 -20.18184 -19.52662
 -19.01912 -18.73607 -18.40511 -17.77109 -16.44616 -15.77644  -9.06198  -5.28120
  -4.77550  -4.28570  -4.10351  -3.86572  -3.65659  -3.47054  -3.29436  -3.02101
  -2.68914  -2.40628  -1.18843  -0.49554  -0.38459  -0.22547  -0.17429  -0.00733
   0.08726


              NET ATOMIC CHARGES AND DIPOLE CONTRIBUTIONS

  ATOM NO.   TYPE          CHARGE      No. of ELECS.   s-Pop       p-Pop       
    1          O          -0.176569        6.1766     1.87796     4.29861
    2          C           0.478711        3.5213     1.12352     2.39776
    3          O          -0.310188        6.3102     1.87941     4.43078
    4          C           0.126692        3.8733     1.14330     2.73001
    5          C          -0.138067        4.1381     1.16760     2.97046
    6          C          -0.087358        4.0874     1.15626     2.93110
    7          N          -0.025378        5.0254     1.68097     3.34441
    8          C          -0.052656        4.0527     1.15701     2.89564
    9          C          -0.002294        4.0023     1.14573     2.85657
   10          H           0.221151        0.7788     0.77885
   11          H           0.224779        0.7752     0.77522
   12          H           0.243772        0.7562     0.75623
   13          H           0.248056        0.7519     0.75194
   14          H           0.249351        0.7506     0.75065
 DIPOLE           X         Y         Z       TOTAL
 POINT-CHG.    -6.712    -0.062    -0.643     6.743
 HYBRID         0.334    -0.766     0.349     0.905
 SUM           -6.379    -0.828    -0.294     6.439


          ATOMIC ORBITAL ELECTRON POPULATIONS

     Atom    s        px        py        pz   
    1  O   1.87796   1.22876   1.70203   1.36782
    2  C   1.12352   0.85063   0.78834   0.75880
    3  O   1.87941   1.23532   1.38173   1.81373
    4  C   1.14330   0.80895   1.07236   0.84870
    5  C   1.16760   0.94461   0.91412   1.11174
    6  C   1.15626   1.01565   1.07273   0.84272
    7  N   1.68097   1.16460   1.08172   1.09809
    8  C   1.15701   0.96506   0.83206   1.09852
    9  C   1.14573   1.02106   0.88111   0.95439
   10  H   0.77885
   11  H   0.77522
   12  H   0.75623
   13  H   0.75194
   14  H   0.75065


                    (SZ)    =    0.500000
                    (S**2)  =    0.757144


          ATOMIC ORBITAL SPIN POPULATIONS

    Atom   Total    s     px     py     pz   
         Atomic
    1  O  0.0212  0.001 -0.000  0.001  0.020
    2  C -0.0114 -0.001 -0.001 -0.001 -0.009
    3  O  0.0007 -0.000 -0.000 -0.000  0.001
    4  C  0.0262 -0.001 -0.001 -0.001  0.029
    5  C  0.1210  0.007  0.001  0.103  0.010
    6  C  0.0450 -0.006 -0.015  0.038  0.028
    7  N  0.6846  0.052  0.034  0.330  0.269
    8  C  0.0340 -0.006  0.028 -0.001  0.013
    9  C  0.0640 -0.004 -0.014  0.093 -0.011
   10  H -0.0009 -0.001
   11  H  0.0052  0.005
   12  H  0.0044  0.004
   13  H  0.0048  0.005
   14  H  0.0013  0.001

 **********************
 *                    *
 * JOB ENDED NORMALLY *
 *                    *
 **********************



 TOTAL JOB TIME:             1.00 SECONDS

 == MOPAC DONE ==
