 *******************************************************************************
 **                                                                           **
 **                              MOPAC v23.2                                  **
 **                                                                           **
 *******************************************************************************
 **          Digital Object Identifier (DOI): 10.5281/zenodo.6511958          **
 **    Visit the DOI location for information on how to cite this program.    **
 *******************************************************************************

                              PM7 CALCULATION RESULTS

 *******************************************************************************
 *  CALCULATION DONE: (MAX THREADS = 40)             Fri Sep 19 21:35:14 2025  *
 *  PM7        - The PM7 Hamiltonian to be used
 *  1SCF       - DO 1 SCF AND THEN STOP 
 *  T=         - A TIME OF 172800.0 SECONDS REQUESTED
 *  DUMP=N     - RESTART FILE WRITTEN EVERY 7200.0 SECONDS REQUESTED
 *  RELSCF     - DEFAULT SCF CRITERION MULTIPLIED BY 0.0001
 *              (DEFAULT SCF CRITERION = 0.00010)
 *  GRADIENTS  - ALL GRADIENTS TO BE PRINTED
 *  DISP       - PRINT DISPERSION AND HYDROGEN BOND ENERGIES
 *******************************************************************************
PM7 1SCF GRADIENTS DISP RELSCF=0.0001
 Title: ASE calculation

   ATOM   CHEMICAL          X               Y               Z
  NUMBER   SYMBOL      (ANGSTROMS)     (ANGSTROMS)     (ANGSTROMS)

     1       C          1.75507973  *   0.58899043  *   0.45924194  *
     2       C          0.93867014  *  -0.27759713  *   1.07690675  *
     3       C         -0.00021562  *  -0.93936375  *   0.12225997  *
     4       C          0.35883758  *  -0.29252611  *  -1.29571178  *
     5       C          1.50821546  *   0.68877359  *  -1.02693426  *
     6       C         -1.07302849  *   0.27677762  *  -1.36678386  *
     7       C         -1.42571338  *   1.14785111  *  -0.18168993  *
     8       C         -1.42387351  *  -0.35263420  *  -0.00267374  *
     9       H          2.52702043  *   1.18790193  *   0.90869896  *
    10       H          0.90854441  *  -0.51795820  *   2.12362103  *
    11       H          0.01789554  *  -2.03327320  *   0.16334354  *
    12       H          0.57704562  *  -1.01180332  *  -2.08917561  *
    13       H          2.41147385  *   0.42405594  *  -1.60303223  *
    14       H          1.24234303  *   1.71904891  *  -1.32405847  *
    15       H         -1.61949589  *   0.28514144  *  -2.28624824  *
    16       H         -0.66654108  *   1.75819893  *   0.30145673  *
    17       H         -2.37833235  *   1.67159678  *  -0.18591285  *
    18       H         -2.28207537  *  -0.91255906  *   0.30217818  *



          CARTESIAN COORDINATES 

    NO.       ATOM           X           Y           Z

     1         C          1.7551      0.5890      0.4592
     2         C          0.9387     -0.2776      1.0769
     3         C         -0.0002     -0.9394      0.1223
     4         C          0.3588     -0.2925     -1.2957
     5         C          1.5082      0.6888     -1.0269
     6         C         -1.0730      0.2768     -1.3668
     7         C         -1.4257      1.1479     -0.1817
     8         C         -1.4239     -0.3526     -0.0027
     9         H          2.5270      1.1879      0.9087
    10         H          0.9085     -0.5180      2.1236
    11         H          0.0179     -2.0333      0.1633
    12         H          0.5770     -1.0118     -2.0892
    13         H          2.4115      0.4241     -1.6030
    14         H          1.2423      1.7190     -1.3241
    15         H         -1.6195      0.2851     -2.2862
    16         H         -0.6665      1.7582      0.3015
    17         H         -2.3783      1.6716     -0.1859
    18         H         -2.2821     -0.9126      0.3022

 General Reference for PM7:
 "Optimization of Parameters for Semiempirical Methods VI: More Modifications to the 
 NDDO Approximations and Re-optimization of Parameters", J. J. P. Stewart, J. Mol. Mod., 1:32, 19 (2013)
 https://link.springer.com/article/10.1007/s00894-012-1667-x

           Empirical Formula: C8 H10  =    18 atoms



      MOLECULAR POINT GROUP   :   C1  


      RHF CALCULATION, NO. OF DOUBLY OCCUPIED LEVELS = 21

  SCF CRITERION =    0.1000E-07

 -------------------------------------------------------------------------------
 PM7 1SCF GRADIENTS DISP RELSCF=0.0001
 Title: ASE calculation



     1SCF WAS SPECIFIED, SO BFGS WAS NOT USED                 
     SCF FIELD WAS ACHIEVED                                   


                              PM7 CALCULATION
                                                       MOPAC v23.2 Linux
                                                       Fri Sep 19 21:35:14 2025




          FINAL HEAT OF FORMATION =         59.58881 KCAL/MOL =     249.31960 KJ/MOL

          TOTAL ENERGY            =     -25723.20954 KCAL/MOL = ELECTRONIC ENERGY + CORE-CORE REPULSION
          ENERGY OF ATOMS         =      25784.09381 KCAL/MOL
                              SUM =         60.88427 KCAL/MOL
          DISPERSION ENERGY       =         -1.29546 KCAL/MOL
                              SUM =         59.58881 KCAL/MOL = FINAL HEAT OF FORMATION



          TOTAL ENERGY            =      -1115.46394 EV
          ELECTRONIC ENERGY       =      -5693.01814 EV 
          CORE-CORE REPULSION     =       4577.55420 EV
          COSMO AREA              =        143.95 SQUARE ANGSTROMS
          COSMO VOLUME            =        142.46 CUBIC ANGSTROMS

          GRADIENT NORM           =          0.96205          =       0.22676 PER ATOM
          IONIZATION POTENTIAL    =          9.662528 EV
          HOMO LUMO ENERGIES (EV) =         -9.663  1.052
          NO. OF FILLED LEVELS    =         21
          MOLECULAR WEIGHT        =        106.1670         POINT GROUP:  C1  

          MOLECULAR DIMENSIONS (Angstroms)

            Atom       Atom       Distance
            H    15    H     9     5.31190
            H    18    H    13     4.46211
            H    11    H    17     4.16516


          SCF CALCULATIONS        =          1

          WALL-CLOCK TIME         =      0.609 SECONDS
          COMPUTATION TIME        =      0.393 SECONDS

          LARGEST ATOMIC GRADIENTS

          Atom     Label                     Cartesian Gradients           Cartesian Coordinates       |Gradient|
                                           X          Y          Z        X          Y          Z

             8       C                   0.381     -0.150      0.060   -1.42387   -0.35263   -0.00267      0.414
             6       C                   0.377     -0.080     -0.031   -1.07303    0.27678   -1.36678      0.386
            18       H                   0.116      0.288     -0.106   -2.28208   -0.91256    0.30218      0.328
            13       H                  -0.247     -0.004     -0.160    2.41147    0.42406   -1.60303      0.294
             9       H                   0.207      0.148      0.130    2.52702    1.18790    0.90870      0.286
            11       H                  -0.274     -0.042      0.038    0.01790   -2.03327    0.16334      0.280
             7       C                  -0.237     -0.074      0.095   -1.42571    1.14785   -0.18169      0.266
            16       H                  -0.117     -0.134     -0.053   -0.66654    1.75820    0.30146      0.186
            17       H                  -0.117      0.143     -0.010   -2.37833    1.67160   -0.18591      0.185
            12       H                  -0.029     -0.137     -0.081    0.57705   -1.01180   -2.08918      0.161



       FINAL  POINT  AND  DERIVATIVES

   PARAMETER     ATOM    TYPE            VALUE        GRADIENT
      1          1  C    CARTESIAN X     1.755080     -0.041444  KCAL/ANGSTROM
      2          1  C    CARTESIAN Y     0.588990      0.014105  KCAL/ANGSTROM
      3          1  C    CARTESIAN Z     0.459242      0.044596  KCAL/ANGSTROM
      4          2  C    CARTESIAN X     0.938670      0.019464  KCAL/ANGSTROM
      5          2  C    CARTESIAN Y    -0.277597      0.035363  KCAL/ANGSTROM
      6          2  C    CARTESIAN Z     1.076907     -0.135857  KCAL/ANGSTROM
      7          3  C    CARTESIAN X    -0.000216     -0.043497  KCAL/ANGSTROM
      8          3  C    CARTESIAN Y    -0.939364     -0.020150  KCAL/ANGSTROM
      9          3  C    CARTESIAN Z     0.122260      0.064710  KCAL/ANGSTROM
     10          4  C    CARTESIAN X     0.358838     -0.007120  KCAL/ANGSTROM
     11          4  C    CARTESIAN Y    -0.292526     -0.112087  KCAL/ANGSTROM
     12          4  C    CARTESIAN Z    -1.295712     -0.001041  KCAL/ANGSTROM
     13          5  C    CARTESIAN X     1.508215     -0.097470  KCAL/ANGSTROM
     14          5  C    CARTESIAN Y     0.688774      0.046373  KCAL/ANGSTROM
     15          5  C    CARTESIAN Z    -1.026934      0.018202  KCAL/ANGSTROM
     16          6  C    CARTESIAN X    -1.073028      0.376922  KCAL/ANGSTROM
     17          6  C    CARTESIAN Y     0.276778     -0.079610  KCAL/ANGSTROM
     18          6  C    CARTESIAN Z    -1.366784     -0.030726  KCAL/ANGSTROM
     19          7  C    CARTESIAN X    -1.425713     -0.237167  KCAL/ANGSTROM
     20          7  C    CARTESIAN Y     1.147851     -0.074015  KCAL/ANGSTROM
     21          7  C    CARTESIAN Z    -0.181690      0.095394  KCAL/ANGSTROM
     22          8  C    CARTESIAN X    -1.423874      0.381336  KCAL/ANGSTROM
     23          8  C    CARTESIAN Y    -0.352634     -0.150214  KCAL/ANGSTROM
     24          8  C    CARTESIAN Z    -0.002674      0.060304  KCAL/ANGSTROM
     25          9  H    CARTESIAN X     2.527020      0.207226  KCAL/ANGSTROM
     26          9  H    CARTESIAN Y     1.187902      0.147647  KCAL/ANGSTROM
     27          9  H    CARTESIAN Z     0.908699      0.129520  KCAL/ANGSTROM
     28         10  H    CARTESIAN X     0.908544      0.011601  KCAL/ANGSTROM
     29         10  H    CARTESIAN Y    -0.517958     -0.061457  KCAL/ANGSTROM
     30         10  H    CARTESIAN Z     2.123621      0.008776  KCAL/ANGSTROM
     31         11  H    CARTESIAN X     0.017896     -0.273694  KCAL/ANGSTROM
     32         11  H    CARTESIAN Y    -2.033273     -0.042047  KCAL/ANGSTROM
     33         11  H    CARTESIAN Z     0.163344      0.038060  KCAL/ANGSTROM
     34         12  H    CARTESIAN X     0.577046     -0.028610  KCAL/ANGSTROM
     35         12  H    CARTESIAN Y    -1.011803     -0.136739  KCAL/ANGSTROM
     36         12  H    CARTESIAN Z    -2.089176     -0.081013  KCAL/ANGSTROM
     37         13  H    CARTESIAN X     2.411474     -0.247161  KCAL/ANGSTROM
     38         13  H    CARTESIAN Y     0.424056     -0.003920  KCAL/ANGSTROM
     39         13  H    CARTESIAN Z    -1.603032     -0.160016  KCAL/ANGSTROM
     40         14  H    CARTESIAN X     1.242343      0.013157  KCAL/ANGSTROM
     41         14  H    CARTESIAN Y     1.719049      0.089638  KCAL/ANGSTROM
     42         14  H    CARTESIAN Z    -1.324058      0.074561  KCAL/ANGSTROM
     43         15  H    CARTESIAN X    -1.619496      0.084724  KCAL/ANGSTROM
     44         15  H    CARTESIAN Y     0.285141      0.049689  KCAL/ANGSTROM
     45         15  H    CARTESIAN Z    -2.286248      0.043350  KCAL/ANGSTROM
     46         16  H    CARTESIAN X    -0.666541     -0.117404  KCAL/ANGSTROM
     47         16  H    CARTESIAN Y     1.758199     -0.134472  KCAL/ANGSTROM
     48         16  H    CARTESIAN Z     0.301457     -0.053026  KCAL/ANGSTROM
     49         17  H    CARTESIAN X    -2.378332     -0.117073  KCAL/ANGSTROM
     50         17  H    CARTESIAN Y     1.671597      0.143400  KCAL/ANGSTROM
     51         17  H    CARTESIAN Z    -0.185913     -0.010119  KCAL/ANGSTROM
     52         18  H    CARTESIAN X    -2.282075      0.116208  KCAL/ANGSTROM
     53         18  H    CARTESIAN Y    -0.912559      0.288490  KCAL/ANGSTROM
     54         18  H    CARTESIAN Z     0.302178     -0.105679  KCAL/ANGSTROM




   ATOM   CHEMICAL          X               Y               Z
  NUMBER   SYMBOL      (ANGSTROMS)     (ANGSTROMS)     (ANGSTROMS)

     1       C          1.75507973  *   0.58899043  *   0.45924194  *
     2       C          0.93867014  *  -0.27759713  *   1.07690675  *
     3       C         -0.00021562  *  -0.93936375  *   0.12225997  *
     4       C          0.35883758  *  -0.29252611  *  -1.29571178  *
     5       C          1.50821546  *   0.68877359  *  -1.02693426  *
     6       C         -1.07302849  *   0.27677762  *  -1.36678386  *
     7       C         -1.42571338  *   1.14785111  *  -0.18168993  *
     8       C         -1.42387351  *  -0.35263420  *  -0.00267374  *
     9       H          2.52702043  *   1.18790193  *   0.90869896  *
    10       H          0.90854441  *  -0.51795820  *   2.12362103  *
    11       H          0.01789554  *  -2.03327320  *   0.16334354  *
    12       H          0.57704562  *  -1.01180332  *  -2.08917561  *
    13       H          2.41147385  *   0.42405594  *  -1.60303223  *
    14       H          1.24234303  *   1.71904891  *  -1.32405847  *
    15       H         -1.61949589  *   0.28514144  *  -2.28624824  *
    16       H         -0.66654108  *   1.75819893  *   0.30145673  *
    17       H         -2.37833235  *   1.67159678  *  -0.18591285  *
    18       H         -2.28207537  *  -0.91255906  *   0.30217818  *

                             CARTESIAN COORDINATES

   1    C        1.755079731     0.588990430     0.459241941
   2    C        0.938670143    -0.277597133     1.076906746
   3    C       -0.000215620    -0.939363746     0.122259968
   4    C        0.358837577    -0.292526110    -1.295711777
   5    C        1.508215465     0.688773585    -1.026934260
   6    C       -1.073028487     0.276777616    -1.366783861
   7    C       -1.425713379     1.147851112    -0.181689934
   8    C       -1.423873506    -0.352634203    -0.002673737
   9    H        2.527020427     1.187901926     0.908698963
  10    H        0.908544411    -0.517958196     2.123621033
  11    H        0.017895540    -2.033273196     0.163343537
  12    H        0.577045620    -1.011803320    -2.089175611
  13    H        2.411473850     0.424055941    -1.603032226
  14    H        1.242343027     1.719048908    -1.324058466
  15    H       -1.619495894     0.285141440    -2.286248242
  16    H       -0.666541083     1.758198935     0.301456729
  17    H       -2.378332350     1.671596776    -0.185912848
  18    H       -2.282075373    -0.912559056     0.302178179


           Empirical Formula: C8 H10  =    18 atoms



      MOLECULAR POINT GROUP   :   C1  


                  EIGENVALUES  
 -32.52735 -28.33464 -24.75318 -24.32492 -21.05400 -20.24909 -18.33775 -17.70924
 -17.46920 -16.59145 -15.37762 -13.79909 -13.35648 -13.19311 -12.79651 -12.52095
 -11.91396 -11.45423 -11.18240 -10.19636  -9.66253   1.05169   2.16431   3.18242
   3.57845   3.78418   3.87406   4.47741   4.68906   4.78115   5.34159   5.62409
   5.82803   5.98195   6.12776   6.19560   6.23890   6.26656   6.29404   6.35424
   6.48911   6.59928


              NET ATOMIC CHARGES AND DIPOLE CONTRIBUTIONS

  ATOM NO.   TYPE          CHARGE      No. of ELECS.   s-Pop       p-Pop       
    1          C          -0.148171        4.1482     1.09786     3.05031
    2          C          -0.173172        4.1732     1.09274     3.08043
    3          C          -0.122016        4.1220     1.07683     3.04519
    4          C          -0.107330        4.1073     1.08115     3.02618
    5          C          -0.287261        4.2873     1.05999     3.22727
    6          C          -0.192437        4.1924     1.06548     3.12695
    7          C          -0.309239        4.3092     1.05519     3.25405
    8          C          -0.177405        4.1774     1.06460     3.11280
    9          H           0.144354        0.8556     0.85565
   10          H           0.150928        0.8491     0.84907
   11          H           0.145891        0.8541     0.85411
   12          H           0.138343        0.8617     0.86166
   13          H           0.147109        0.8529     0.85289
   14          H           0.155509        0.8445     0.84449
   15          H           0.156871        0.8431     0.84313
   16          H           0.166217        0.8338     0.83378
   17          H           0.154505        0.8455     0.84549
   18          H           0.157305        0.8427     0.84269
 DIPOLE           X         Y         Z       TOTAL
 POINT-CHG.     0.224     0.007    -0.291     0.368
 HYBRID        -0.134     0.082    -0.037     0.161
 SUM            0.090     0.089    -0.328     0.352


          ATOMIC ORBITAL ELECTRON POPULATIONS

     Atom    s        px        py        pz   
    1  C   1.09786   1.03572   1.01941   0.99518
    2  C   1.09274   1.00188   1.01412   1.06443
    3  C   1.07683   0.97692   1.07915   0.98913
    4  C   1.08115   0.95781   1.03138   1.03700
    5  C   1.05999   1.08077   1.11483   1.03167
    6  C   1.06548   1.03816   1.10257   0.98622
    7  C   1.05519   1.16532   1.00269   1.08604
    8  C   1.06460   1.04761   1.00133   1.06387
    9  H   0.85565
   10  H   0.84907
   11  H   0.85411
   12  H   0.86166
   13  H   0.85289
   14  H   0.84449
   15  H   0.84313
   16  H   0.83378
   17  H   0.84549
   18  H   0.84269

 **********************
 *                    *
 * JOB ENDED NORMALLY *
 *                    *
 **********************



 TOTAL JOB TIME:             1.03 SECONDS

 == MOPAC DONE ==
