 *******************************************************************************
 **                                                                           **
 **                              MOPAC v23.2                                  **
 **                                                                           **
 *******************************************************************************
 **          Digital Object Identifier (DOI): 10.5281/zenodo.6511958          **
 **    Visit the DOI location for information on how to cite this program.    **
 *******************************************************************************

                              PM7 CALCULATION RESULTS

 *******************************************************************************
 *  CALCULATION DONE: (MAX THREADS = 40)             Fri Sep 19 21:44:57 2025  *
 *  PM7        - The PM7 Hamiltonian to be used
 *
 *
 *
 *                 CHARGE ON SYSTEM = +1
 *
 *
 *
 *  1SCF       - DO 1 SCF AND THEN STOP 
 *  T=         - A TIME OF 172800.0 SECONDS REQUESTED
 *  DUMP=N     - RESTART FILE WRITTEN EVERY 7200.0 SECONDS REQUESTED
 *  RELSCF     - DEFAULT SCF CRITERION MULTIPLIED BY 0.0001
 *              (DEFAULT SCF CRITERION = 0.00010)
 *  GRADIENTS  - ALL GRADIENTS TO BE PRINTED
 *  DISP       - PRINT DISPERSION AND HYDROGEN BOND ENERGIES
 *******************************************************************************
PM7 1SCF GRADIENTS DISP RELSCF=0.0001 CHARGE=1
 Title: ASE calculation

   ATOM   CHEMICAL          X               Y               Z
  NUMBER   SYMBOL      (ANGSTROMS)     (ANGSTROMS)     (ANGSTROMS)

     1       C          1.77258293  *  -1.20238101  *   0.90484296  *
     2       C          1.35629310  *  -1.05026283  *  -0.55213056  *
     3       C         -0.06804072  *  -0.51258752  *  -0.75982668  *
     4       C         -0.23875220  *   0.90437983  *  -0.19170113  *
     5       O         -1.62233950  *   1.09761738  *   0.13854132  *
     6       C         -1.10584031  *  -1.41367080  *  -0.13022486  *
     7       C         -1.52980690  *  -1.29222857  *   1.28510597  *
     8       O         -2.31280811  *  -0.67098240  *   0.23183517  *
     9       H          1.12051286  *  -1.88158700  *   1.46274409  *
    10       H          1.81820519  *  -0.24741566  *   1.43984493  *
    11       H          2.78798727  *  -1.63216169  *   0.97281072  *
    12       H          1.45609769  *  -2.03157355  *  -1.06879874  *
    13       H          2.07845301  *  -0.38619976  *  -1.07891253  *
    14       H         -0.25550716  *  -0.48286745  *  -1.87182767  *
    15       H          0.27171839  *   1.05169196  *   0.78539326  *
    16       H          0.10155521  *   1.69022688  *  -0.89325768  *
    17       H         -2.13298020  *   1.40248480  *  -0.67957424  *
    18       H         -1.29705443  *  -2.35457427  *  -0.67946017  *
    19       H         -2.04577090  *  -2.11760405  *   1.79813777  *
    20       H         -1.05537946  *  -0.60865672  *   1.99777697  *



          CARTESIAN COORDINATES 

    NO.       ATOM           X           Y           Z

     1         C          1.7726     -1.2024      0.9048
     2         C          1.3563     -1.0503     -0.5521
     3         C         -0.0680     -0.5126     -0.7598
     4         C         -0.2388      0.9044     -0.1917
     5         O         -1.6223      1.0976      0.1385
     6         C         -1.1058     -1.4137     -0.1302
     7         C         -1.5298     -1.2922      1.2851
     8         O         -2.3128     -0.6710      0.2318
     9         H          1.1205     -1.8816      1.4627
    10         H          1.8182     -0.2474      1.4398
    11         H          2.7880     -1.6322      0.9728
    12         H          1.4561     -2.0316     -1.0688
    13         H          2.0785     -0.3862     -1.0789
    14         H         -0.2555     -0.4829     -1.8718
    15         H          0.2717      1.0517      0.7854
    16         H          0.1016      1.6902     -0.8933
    17         H         -2.1330      1.4025     -0.6796
    18         H         -1.2971     -2.3546     -0.6795
    19         H         -2.0458     -2.1176      1.7981
    20         H         -1.0554     -0.6087      1.9978

 General Reference for PM7:
 "Optimization of Parameters for Semiempirical Methods VI: More Modifications to the 
 NDDO Approximations and Re-optimization of Parameters", J. J. P. Stewart, J. Mol. Mod., 1:32, 19 (2013)
 https://link.springer.com/article/10.1007/s00894-012-1667-x

           Empirical Formula: C6 H12 O2  =    20 atoms



      MOLECULAR POINT GROUP   :   C1  


          UHF CALCULATION, NO. OF ALPHA ELECTRONS =   24
                           NO. OF BETA  ELECTRONS =   23
  SCF CRITERION =    0.1000E-07

 -------------------------------------------------------------------------------
 PM7 1SCF GRADIENTS DISP RELSCF=0.0001 CHARGE=1
 Title: ASE calculation



     1SCF WAS SPECIFIED, SO BFGS WAS NOT USED                 
     SCF FIELD WAS ACHIEVED                                   


                              PM7 CALCULATION
                                                       MOPAC v23.2 Linux
                                                       Fri Sep 19 21:44:57 2025




          FINAL HEAT OF FORMATION =        139.80018 KCAL/MOL =     584.92397 KJ/MOL

          TOTAL ENERGY            =     -34116.91738 KCAL/MOL = ELECTRONIC ENERGY + CORE-CORE REPULSION
          ENERGY OF ATOMS         =      34258.49226 KCAL/MOL
                              SUM =        141.57489 KCAL/MOL
          DISPERSION ENERGY       =         -1.77470 KCAL/MOL
                              SUM =        139.80018 KCAL/MOL = FINAL HEAT OF FORMATION



          TOTAL ENERGY            =      -1479.44956 EV
          ELECTRONIC ENERGY       =      -7197.14146 EV 
          CORE-CORE REPULSION     =       5717.69190 EV
          COSMO AREA              =        152.01 SQUARE ANGSTROMS
          COSMO VOLUME            =        152.83 CUBIC ANGSTROMS

          GRADIENT NORM           =          0.72261          =       0.16158 PER ATOM
          IONIZATION POTENTIAL    =         15.670511 EV
          ALPHA SOMO LUMO (EV)    =        -15.671 -4.349
          BETA  SOMO LUMO (EV)    =        -15.714 -7.479
          NO. OF ALPHA ELECTRONS  =         24
          NO. OF BETA  ELECTRONS  =         23
          MOLECULAR WEIGHT        =        116.1596         POINT GROUP:  C1  

          MOLECULAR DIMENSIONS (Angstroms)

            Atom       Atom       Distance
            H    17    H    11     6.01293
            H    19    H    16     5.05341
            H    18    H    20     3.20492


          SCF CALCULATIONS        =          1

          WALL-CLOCK TIME         =      0.727 SECONDS
          COMPUTATION TIME        =      0.562 SECONDS

          LARGEST ATOMIC GRADIENTS

          Atom     Label                     Cartesian Gradients           Cartesian Coordinates       |Gradient|
                                           X          Y          Z        X          Y          Z

             9       H                   0.023      0.248     -0.120    1.12051   -1.88159    1.46274      0.277
             5       O                   0.047     -0.218      0.090   -1.62234    1.09762    0.13854      0.241
             7       C                   0.142     -0.022     -0.171   -1.52981   -1.29223    1.28511      0.223
             6       C                  -0.196      0.096      0.010   -1.10584   -1.41367   -0.13022      0.218
             8       O                   0.210     -0.010      0.048   -2.31281   -0.67098    0.23184      0.215
            15       H                  -0.052      0.001      0.207    0.27172    1.05169    0.78539      0.214
             4       C                   0.090     -0.053     -0.159   -0.23875    0.90438   -0.19170      0.190
             1       C                   0.105     -0.035      0.155    1.77258   -1.20238    0.90484      0.190
            14       H                  -0.131     -0.011      0.025   -0.25551   -0.48287   -1.87183      0.133
            17       H                  -0.059      0.114     -0.034   -2.13298    1.40248   -0.67957      0.133



       FINAL  POINT  AND  DERIVATIVES

   PARAMETER     ATOM    TYPE            VALUE        GRADIENT
      1          1  C    CARTESIAN X     1.772583      0.105120  KCAL/ANGSTROM
      2          1  C    CARTESIAN Y    -1.202381     -0.034568  KCAL/ANGSTROM
      3          1  C    CARTESIAN Z     0.904843      0.154786  KCAL/ANGSTROM
      4          2  C    CARTESIAN X     1.356293     -0.046177  KCAL/ANGSTROM
      5          2  C    CARTESIAN Y    -1.050263      0.042468  KCAL/ANGSTROM
      6          2  C    CARTESIAN Z    -0.552131      0.091690  KCAL/ANGSTROM
      7          3  C    CARTESIAN X    -0.068041     -0.056401  KCAL/ANGSTROM
      8          3  C    CARTESIAN Y    -0.512588     -0.086022  KCAL/ANGSTROM
      9          3  C    CARTESIAN Z    -0.759827     -0.032611  KCAL/ANGSTROM
     10          4  C    CARTESIAN X    -0.238752      0.089941  KCAL/ANGSTROM
     11          4  C    CARTESIAN Y     0.904380     -0.052630  KCAL/ANGSTROM
     12          4  C    CARTESIAN Z    -0.191701     -0.159397  KCAL/ANGSTROM
     13          5  O    CARTESIAN X    -1.622340      0.046600  KCAL/ANGSTROM
     14          5  O    CARTESIAN Y     1.097617     -0.218409  KCAL/ANGSTROM
     15          5  O    CARTESIAN Z     0.138541      0.089671  KCAL/ANGSTROM
     16          6  C    CARTESIAN X    -1.105840     -0.195601  KCAL/ANGSTROM
     17          6  C    CARTESIAN Y    -1.413671      0.096433  KCAL/ANGSTROM
     18          6  C    CARTESIAN Z    -0.130225      0.010257  KCAL/ANGSTROM
     19          7  C    CARTESIAN X    -1.529807      0.141803  KCAL/ANGSTROM
     20          7  C    CARTESIAN Y    -1.292229     -0.022007  KCAL/ANGSTROM
     21          7  C    CARTESIAN Z     1.285106     -0.171343  KCAL/ANGSTROM
     22          8  O    CARTESIAN X    -2.312808      0.209747  KCAL/ANGSTROM
     23          8  O    CARTESIAN Y    -0.670982     -0.009644  KCAL/ANGSTROM
     24          8  O    CARTESIAN Z     0.231835      0.048288  KCAL/ANGSTROM
     25          9  H    CARTESIAN X     1.120513      0.023276  KCAL/ANGSTROM
     26          9  H    CARTESIAN Y    -1.881587      0.248134  KCAL/ANGSTROM
     27          9  H    CARTESIAN Z     1.462744     -0.120256  KCAL/ANGSTROM
     28         10  H    CARTESIAN X     1.818205      0.096379  KCAL/ANGSTROM
     29         10  H    CARTESIAN Y    -0.247416     -0.019313  KCAL/ANGSTROM
     30         10  H    CARTESIAN Z     1.439845     -0.018482  KCAL/ANGSTROM
     31         11  H    CARTESIAN X     2.787987     -0.000061  KCAL/ANGSTROM
     32         11  H    CARTESIAN Y    -1.632162     -0.031253  KCAL/ANGSTROM
     33         11  H    CARTESIAN Z     0.972811      0.086556  KCAL/ANGSTROM
     34         12  H    CARTESIAN X     1.456098     -0.019031  KCAL/ANGSTROM
     35         12  H    CARTESIAN Y    -2.031574      0.016519  KCAL/ANGSTROM
     36         12  H    CARTESIAN Z    -1.068799      0.035234  KCAL/ANGSTROM
     37         13  H    CARTESIAN X     2.078453      0.042680  KCAL/ANGSTROM
     38         13  H    CARTESIAN Y    -0.386200     -0.033528  KCAL/ANGSTROM
     39         13  H    CARTESIAN Z    -1.078913     -0.098169  KCAL/ANGSTROM
     40         14  H    CARTESIAN X    -0.255507     -0.130603  KCAL/ANGSTROM
     41         14  H    CARTESIAN Y    -0.482867     -0.010549  KCAL/ANGSTROM
     42         14  H    CARTESIAN Z    -1.871828      0.024749  KCAL/ANGSTROM
     43         15  H    CARTESIAN X     0.271718     -0.052000  KCAL/ANGSTROM
     44         15  H    CARTESIAN Y     1.051692      0.001351  KCAL/ANGSTROM
     45         15  H    CARTESIAN Z     0.785393      0.207282  KCAL/ANGSTROM
     46         16  H    CARTESIAN X     0.101555      0.007417  KCAL/ANGSTROM
     47         16  H    CARTESIAN Y     1.690227      0.026067  KCAL/ANGSTROM
     48         16  H    CARTESIAN Z    -0.893258     -0.004434  KCAL/ANGSTROM
     49         17  H    CARTESIAN X    -2.132980     -0.059020  KCAL/ANGSTROM
     50         17  H    CARTESIAN Y     1.402485      0.114252  KCAL/ANGSTROM
     51         17  H    CARTESIAN Z    -0.679574     -0.034116  KCAL/ANGSTROM
     52         18  H    CARTESIAN X    -1.297054     -0.083099  KCAL/ANGSTROM
     53         18  H    CARTESIAN Y    -2.354574      0.007319  KCAL/ANGSTROM
     54         18  H    CARTESIAN Z    -0.679460     -0.046199  KCAL/ANGSTROM
     55         19  H    CARTESIAN X    -2.045771     -0.069077  KCAL/ANGSTROM
     56         19  H    CARTESIAN Y    -2.117604     -0.019794  KCAL/ANGSTROM
     57         19  H    CARTESIAN Z     1.798138      0.049383  KCAL/ANGSTROM
     58         20  H    CARTESIAN X    -1.055379     -0.051890  KCAL/ANGSTROM
     59         20  H    CARTESIAN Y    -0.608657     -0.014827  KCAL/ANGSTROM
     60         20  H    CARTESIAN Z     1.997777     -0.112893  KCAL/ANGSTROM




   ATOM   CHEMICAL          X               Y               Z
  NUMBER   SYMBOL      (ANGSTROMS)     (ANGSTROMS)     (ANGSTROMS)

     1       C          1.77258293  *  -1.20238101  *   0.90484296  *
     2       C          1.35629310  *  -1.05026283  *  -0.55213056  *
     3       C         -0.06804072  *  -0.51258752  *  -0.75982668  *
     4       C         -0.23875220  *   0.90437983  *  -0.19170113  *
     5       O         -1.62233950  *   1.09761738  *   0.13854132  *
     6       C         -1.10584031  *  -1.41367080  *  -0.13022486  *
     7       C         -1.52980690  *  -1.29222857  *   1.28510597  *
     8       O         -2.31280811  *  -0.67098240  *   0.23183517  *
     9       H          1.12051286  *  -1.88158700  *   1.46274409  *
    10       H          1.81820519  *  -0.24741566  *   1.43984493  *
    11       H          2.78798727  *  -1.63216169  *   0.97281072  *
    12       H          1.45609769  *  -2.03157355  *  -1.06879874  *
    13       H          2.07845301  *  -0.38619976  *  -1.07891253  *
    14       H         -0.25550716  *  -0.48286745  *  -1.87182767  *
    15       H          0.27171839  *   1.05169196  *   0.78539326  *
    16       H          0.10155521  *   1.69022688  *  -0.89325768  *
    17       H         -2.13298020  *   1.40248480  *  -0.67957424  *
    18       H         -1.29705443  *  -2.35457427  *  -0.67946017  *
    19       H         -2.04577090  *  -2.11760405  *   1.79813777  *
    20       H         -1.05537946  *  -0.60865672  *   1.99777697  *

                             CARTESIAN COORDINATES

   1    C        1.772582932    -1.202381011     0.904842959
   2    C        1.356293100    -1.050262832    -0.552130565
   3    C       -0.068040718    -0.512587519    -0.759826681
   4    C       -0.238752195     0.904379828    -0.191701131
   5    O       -1.622339504     1.097617382     0.138541321
   6    C       -1.105840308    -1.413670802    -0.130224864
   7    C       -1.529806900    -1.292228568     1.285105972
   8    O       -2.312808109    -0.670982398     0.231835169
   9    H        1.120512863    -1.881587000     1.462744090
  10    H        1.818205194    -0.247415656     1.439844926
  11    H        2.787987274    -1.632161691     0.972810723
  12    H        1.456097691    -2.031573551    -1.068798737
  13    H        2.078453009    -0.386199764    -1.078912526
  14    H       -0.255507163    -0.482867451    -1.871827670
  15    H        0.271718387     1.051691955     0.785393260
  16    H        0.101555213     1.690226875    -0.893257684
  17    H       -2.132980203     1.402484804    -0.679574245
  18    H       -1.297054427    -2.354574273    -0.679460175
  19    H       -2.045770896    -2.117604051     1.798137769
  20    H       -1.055379456    -0.608656721     1.997776975


           Empirical Formula: C6 H12 O2  =    20 atoms



      MOLECULAR POINT GROUP   :   C1  


          ALPHA EIGENVALUES  
 -39.29592 -36.50070 -33.87932 -30.61758 -29.67548 -28.20306 -25.95051 -24.40909
 -23.55928 -22.50193 -21.31782 -21.15157 -20.56205 -19.89539 -19.58468 -18.80604
 -18.42243 -17.85427 -17.70696 -17.55829 -16.57047 -16.29560 -16.09716 -15.67051
  -4.34918  -3.66229  -3.26289  -1.96325  -1.70907  -1.29583  -0.65648  -0.40214
  -0.01492   0.33565   0.40151   0.43671   0.57403   0.83433   0.90689   1.41615
   2.02721   2.12606   2.40380   3.27011


           BETA EIGENVALUES 
 -37.68795 -35.09898 -33.35657 -29.80873 -29.37443 -28.08172 -25.87339 -24.04609
 -23.32148 -22.14325 -21.16606 -20.74448 -20.17499 -19.62176 -18.95083 -18.50211
 -18.23008 -17.54532 -17.48629 -16.77998 -16.28060 -16.01243 -15.71393  -7.47904
  -3.88371  -3.52351  -2.99470  -1.93771  -1.61564  -1.28081  -0.62587  -0.31382
   0.03525   0.33939   0.41722   0.47056   0.59141   0.84153   0.91644   1.41806
   2.02719   2.12631   2.40505   3.27008


              NET ATOMIC CHARGES AND DIPOLE CONTRIBUTIONS

  ATOM NO.   TYPE          CHARGE      No. of ELECS.   s-Pop       p-Pop       
    1          C          -0.446184        4.4462     1.05096     3.39522
    2          C          -0.254200        4.2542     1.05749     3.19671
    3          C          -0.163977        4.1640     1.07851     3.08547
    4          C          -0.099567        4.0996     1.11249     2.98708
    5          O          -0.244970        6.2450     1.87890     4.36607
    6          C          -0.029326        4.0293     1.11907     2.91026
    7          C          -0.165789        4.1658     1.11774     3.04805
    8          O           0.074210        5.9258     1.93696     3.98884
    9          H           0.146785        0.8532     0.85322
   10          H           0.149316        0.8507     0.85068
   11          H           0.179981        0.8200     0.82002
   12          H           0.168887        0.8311     0.83111
   13          H           0.170417        0.8296     0.82958
   14          H           0.180386        0.8196     0.81961
   15          H           0.188371        0.8116     0.81163
   16          H           0.178109        0.8219     0.82189
   17          H           0.331979        0.6680     0.66802
   18          H           0.213246        0.7868     0.78675
   19          H           0.213995        0.7860     0.78600
   20          H           0.208333        0.7917     0.79167
 DIPOLE           X         Y         Z       TOTAL
 POINT-CHG.    -0.827    -0.031    -0.725     1.100
 HYBRID        -1.054     0.477    -0.230     1.180
 SUM           -1.881     0.446    -0.956     2.156


          ATOMIC ORBITAL ELECTRON POPULATIONS

     Atom    s        px        py        pz   
    1  C   1.05096   1.19324   1.17921   1.02277
    2  C   1.05749   0.96608   1.16752   1.06312
    3  C   1.07851   1.03092   0.93731   1.11724
    4  C   1.11249   0.77523   1.04042   1.17143
    5  O   1.87890   1.30572   1.60114   1.45921
    6  C   1.11907   0.85226   1.03755   1.02045
    7  C   1.11774   0.99033   1.09982   0.95789
    8  O   1.93696   1.25980   1.33596   1.39307
    9  H   0.85322
   10  H   0.85068
   11  H   0.82002
   12  H   0.83111
   13  H   0.82958
   14  H   0.81961
   15  H   0.81163
   16  H   0.82189
   17  H   0.66802
   18  H   0.78675
   19  H   0.78600
   20  H   0.79167


                    (SZ)    =    0.500000
                    (S**2)  =    0.759000


          ATOMIC ORBITAL SPIN POPULATIONS

    Atom   Total    s     px     py     pz   
         Atomic
    1  C  0.0002  0.000  0.000  0.000  0.000
    2  C -0.0049 -0.001 -0.003 -0.001 -0.000
    3  C  0.0368 -0.000  0.005  0.032  0.001
    4  C -0.0221 -0.003 -0.014 -0.002 -0.003
    5  O  0.3948  0.013  0.035  0.316  0.031
    6  C -0.0437 -0.003 -0.031 -0.008 -0.002
    7  C -0.0385 -0.002 -0.026 -0.005 -0.005
    8  O  0.6415  0.010  0.214  0.375  0.043
    9  H  0.0000  0.000
   10  H  0.0000  0.000
   11  H -0.0001 -0.000
   12  H  0.0009  0.001
   13  H  0.0009  0.001
   14  H -0.0014 -0.001
   15  H  0.0032  0.003
   16  H  0.0102  0.010
   17  H -0.0173 -0.017
   18  H  0.0158  0.016
   19  H  0.0135  0.014
   20  H  0.0102  0.010

 **********************
 *                    *
 * JOB ENDED NORMALLY *
 *                    *
 **********************



 TOTAL JOB TIME:             1.08 SECONDS

 == MOPAC DONE ==
