 *******************************************************************************
 **                                                                           **
 **                              MOPAC v23.2                                  **
 **                                                                           **
 *******************************************************************************
 **          Digital Object Identifier (DOI): 10.5281/zenodo.6511958          **
 **    Visit the DOI location for information on how to cite this program.    **
 *******************************************************************************

                              PM7 CALCULATION RESULTS

 *******************************************************************************
 *  CALCULATION DONE: (MAX THREADS = 40)             Fri Sep 19 21:32:45 2025  *
 *  PM7        - The PM7 Hamiltonian to be used
 *  EPS=37.5   - USE ANDREAS KLAMT'S COSMO IMPLICIT SOLVATION MODEL
 *  1SCF       - DO 1 SCF AND THEN STOP 
 *  T=         - A TIME OF 172800.0 SECONDS REQUESTED
 *  DUMP=N     - RESTART FILE WRITTEN EVERY 7200.0 SECONDS REQUESTED
 *  RELSCF     - DEFAULT SCF CRITERION MULTIPLIED BY 0.0001
 *              (DEFAULT SCF CRITERION = 0.00010)
 *  GRADIENTS  - ALL GRADIENTS TO BE PRINTED
 *  DISP       - PRINT DISPERSION AND HYDROGEN BOND ENERGIES
 *******************************************************************************
PM7 1SCF GRADIENTS EPS=37.5 DISP RELSCF=0.0001
 Title: ASE calculation

   ATOM   CHEMICAL          X               Y               Z
  NUMBER   SYMBOL      (ANGSTROMS)     (ANGSTROMS)     (ANGSTROMS)

     1       C         -1.70112802  *  -1.92928941  *   0.47761190  *
     2       C         -2.09302388  *  -0.50600622  *   0.09058958  *
     3       C         -0.87238693  *   0.32180234  *  -0.34809672  *
     4       C         -1.34854636  *   1.67009292  *  -0.92109027  *
     5       O         -2.14048576  *   2.38213267  *   0.00353356  *
     6       C          0.05650851  *   0.56646978  *   0.82487306  *
     7       C          1.38148583  *   1.27678847  *   0.62616273  *
     8       N          1.33906969  *  -0.14333970  *   1.02825152  *
     9       C          1.78788428  *  -1.13869357  *   0.05677185  *
    10       H         -2.57812856  *  -2.51304868  *   0.77916341  *
    11       H         -1.22493541  *  -2.45656276  *  -0.35515186  *
    12       H         -0.99754838  *  -1.93291337  *   1.32075036  *
    13       H         -2.84181752  *  -0.52802424  *  -0.72503517  *
    14       H         -2.60273119  *  -0.00337445  *   0.93652328  *
    15       H         -0.33853257  *  -0.22976867  *  -1.15888441  *
    16       H         -2.03886704  *   1.53335917  *  -1.77496757  *
    17       H         -0.50065497  *   2.30604459  *  -1.23199961  *
    18       H         -1.65345434  *   2.51304868  *   0.84094618  *
    19       H         -0.48491189  *   0.71705207  *   1.77496757  *
    20       H          1.70900526  *   1.56763393  *  -0.36933312  *
    21       H          1.76241102  *   1.96408538  *   1.38468215  *
    22       H          2.84181752  *  -1.37627646  *   0.29652417  *
    23       H          1.19713347  *  -2.06266290  *   0.18933230  *
    24       H          1.73973206  *  -0.84057771  *  -1.00014333  *



          CARTESIAN COORDINATES 

    NO.       ATOM           X           Y           Z

     1         C         -1.7011     -1.9293      0.4776
     2         C         -2.0930     -0.5060      0.0906
     3         C         -0.8724      0.3218     -0.3481
     4         C         -1.3485      1.6701     -0.9211
     5         O         -2.1405      2.3821      0.0035
     6         C          0.0565      0.5665      0.8249
     7         C          1.3815      1.2768      0.6262
     8         N          1.3391     -0.1433      1.0283
     9         C          1.7879     -1.1387      0.0568
    10         H         -2.5781     -2.5130      0.7792
    11         H         -1.2249     -2.4566     -0.3552
    12         H         -0.9975     -1.9329      1.3208
    13         H         -2.8418     -0.5280     -0.7250
    14         H         -2.6027     -0.0034      0.9365
    15         H         -0.3385     -0.2298     -1.1589
    16         H         -2.0389      1.5334     -1.7750
    17         H         -0.5007      2.3060     -1.2320
    18         H         -1.6535      2.5130      0.8409
    19         H         -0.4849      0.7171      1.7750
    20         H          1.7090      1.5676     -0.3693
    21         H          1.7624      1.9641      1.3847
    22         H          2.8418     -1.3763      0.2965
    23         H          1.1971     -2.0627      0.1893
    24         H          1.7397     -0.8406     -1.0001

 General Reference for PM7:
 "Optimization of Parameters for Semiempirical Methods VI: More Modifications to the 
 NDDO Approximations and Re-optimization of Parameters", J. J. P. Stewart, J. Mol. Mod., 1:32, 19 (2013)
 https://link.springer.com/article/10.1007/s00894-012-1667-x

           Empirical Formula: C7 H15 N O  =    24 atoms



      MOLECULAR POINT GROUP   :   C1  


      RHF CALCULATION, NO. OF DOUBLY OCCUPIED LEVELS = 27

  SCF CRITERION =    0.1000E-07

 -------------------------------------------------------------------------------
 PM7 1SCF GRADIENTS EPS=37.5 DISP RELSCF=0.0001
 Title: ASE calculation



     1SCF WAS SPECIFIED, SO BFGS WAS NOT USED                 
     SCF FIELD WAS ACHIEVED                                   


                              PM7 CALCULATION
                                                       MOPAC v23.2 Linux
                                                       Fri Sep 19 21:32:46 2025




          FINAL HEAT OF FORMATION =        -43.27003 KCAL/MOL =    -181.04180 KJ/MOL

          TOTAL ENERGY            =     -35593.84686 KCAL/MOL = ELECTRONIC ENERGY + CORE-CORE REPULSION + SOLVATION ENERGY
          ENERGY OF ATOMS         =      35553.47302 KCAL/MOL
                              SUM =        -40.37384 KCAL/MOL
          DISPERSION ENERGY       =         -2.77952 KCAL/MOL
          H-BOND ENERGY           =         -0.11667 KCAL/MOL
                              SUM =        -43.27003 KCAL/MOL = FINAL HEAT OF FORMATION

          VAN DER WAALS AREA      =        176.28 SQUARE ANGSTROMS


          TOTAL ENERGY            =      -1543.49529 EV
          ELECTRONIC ENERGY       =      -2500.09778 EV 
          CORE-CORE REPULSION     =        956.60249 EV

          DIELECTRIC ENERGY       =         -0.48944 EV
          COSMO AREA              =        176.28 SQUARE ANGSTROMS
          COSMO VOLUME            =        185.21 CUBIC ANGSTROMS

          GRADIENT NORM           =          9.66932          =       1.97374 PER ATOM
          IONIZATION POTENTIAL    =          9.989198 EV
          HOMO LUMO ENERGIES (EV) =         -9.989  2.236
          NO. OF FILLED LEVELS    =         27
          MOLECULAR WEIGHT        =        129.2016         POINT GROUP:  C1  

          MOLECULAR DIMENSIONS (Angstroms)

            Atom       Atom       Distance
            H    21    H    10     6.26512
            H    22    O     5     6.19709
            H    19    H    16     3.42425


          SCF CALCULATIONS        =          2

          WALL-CLOCK TIME         =      0.922 SECONDS
          COMPUTATION TIME        =      0.861 SECONDS

          LARGEST ATOMIC GRADIENTS

          Atom     Label                     Cartesian Gradients           Cartesian Coordinates       |Gradient|
                                           X          Y          Z        X          Y          Z

             4       C                  -0.120      2.818      2.859   -1.34855    1.67009   -0.92109      4.016
             9       C                  -0.960      0.626     -3.814    1.78788   -1.13869    0.05677      3.983
            18       H                  -0.662     -0.757     -3.639   -1.65345    2.51305    0.84095      3.776
             7       C                   0.965      0.744     -2.355    1.38149    1.27679    0.62616      2.652
             3       C                   1.198     -1.151     -1.497   -0.87239    0.32180   -0.34810      2.237
            22       H                  -0.630      0.834      1.756    2.84182   -1.37628    0.29652      2.044
             6       C                   0.536     -1.684      0.072    0.05651    0.56647    0.82487      1.769
            16       H                  -0.520      0.817      1.444   -2.03887    1.53336   -1.77497      1.739
            19       H                   1.052     -1.258     -0.434   -0.48491    0.71705    1.77497      1.697
            23       H                   0.079      0.524      1.611    1.19713   -2.06266    0.18933      1.696



       FINAL  POINT  AND  DERIVATIVES

   PARAMETER     ATOM    TYPE            VALUE        GRADIENT
      1          1  C    CARTESIAN X    -1.701128      0.453454  KCAL/ANGSTROM
      2          1  C    CARTESIAN Y    -1.929289     -1.024767  KCAL/ANGSTROM
      3          1  C    CARTESIAN Z     0.477612     -1.219086  KCAL/ANGSTROM
      4          2  C    CARTESIAN X    -2.093024      0.177780  KCAL/ANGSTROM
      5          2  C    CARTESIAN Y    -0.506006     -0.223958  KCAL/ANGSTROM
      6          2  C    CARTESIAN Z     0.090590     -0.597027  KCAL/ANGSTROM
      7          3  C    CARTESIAN X    -0.872387      1.197873  KCAL/ANGSTROM
      8          3  C    CARTESIAN Y     0.321802     -1.151440  KCAL/ANGSTROM
      9          3  C    CARTESIAN Z    -0.348097     -1.497131  KCAL/ANGSTROM
     10          4  C    CARTESIAN X    -1.348546     -0.119885  KCAL/ANGSTROM
     11          4  C    CARTESIAN Y     1.670093      2.818306  KCAL/ANGSTROM
     12          4  C    CARTESIAN Z    -0.921090      2.858558  KCAL/ANGSTROM
     13          5  O    CARTESIAN X    -2.140486      0.482982  KCAL/ANGSTROM
     14          5  O    CARTESIAN Y     2.382133     -1.349143  KCAL/ANGSTROM
     15          5  O    CARTESIAN Z     0.003534     -0.492641  KCAL/ANGSTROM
     16          6  C    CARTESIAN X     0.056509      0.536464  KCAL/ANGSTROM
     17          6  C    CARTESIAN Y     0.566470     -1.684042  KCAL/ANGSTROM
     18          6  C    CARTESIAN Z     0.824873      0.072120  KCAL/ANGSTROM
     19          7  C    CARTESIAN X     1.381486      0.965404  KCAL/ANGSTROM
     20          7  C    CARTESIAN Y     1.276788      0.743564  KCAL/ANGSTROM
     21          7  C    CARTESIAN Z     0.626163     -2.355194  KCAL/ANGSTROM
     22          8  N    CARTESIAN X     1.339070     -0.890115  KCAL/ANGSTROM
     23          8  N    CARTESIAN Y    -0.143340      0.808153  KCAL/ANGSTROM
     24          8  N    CARTESIAN Z     1.028252      1.137012  KCAL/ANGSTROM
     25          9  C    CARTESIAN X     1.787884     -0.960170  KCAL/ANGSTROM
     26          9  C    CARTESIAN Y    -1.138694      0.625528  KCAL/ANGSTROM
     27          9  C    CARTESIAN Z     0.056772     -3.814431  KCAL/ANGSTROM
     28         10  H    CARTESIAN X    -2.578129      0.200712  KCAL/ANGSTROM
     29         10  H    CARTESIAN Y    -2.513049      0.559401  KCAL/ANGSTROM
     30         10  H    CARTESIAN Z     0.779163     -0.188820  KCAL/ANGSTROM
     31         11  H    CARTESIAN X    -1.224935     -0.625616  KCAL/ANGSTROM
     32         11  H    CARTESIAN Y    -2.456563      0.656374  KCAL/ANGSTROM
     33         11  H    CARTESIAN Z    -0.355152      0.357470  KCAL/ANGSTROM
     34         12  H    CARTESIAN X    -0.997548      0.109393  KCAL/ANGSTROM
     35         12  H    CARTESIAN Y    -1.932913      0.601399  KCAL/ANGSTROM
     36         12  H    CARTESIAN Z     1.320750      0.774817  KCAL/ANGSTROM
     37         13  H    CARTESIAN X    -2.841818     -0.095442  KCAL/ANGSTROM
     38         13  H    CARTESIAN Y    -0.528024      0.208510  KCAL/ANGSTROM
     39         13  H    CARTESIAN Z    -0.725035      0.760588  KCAL/ANGSTROM
     40         14  H    CARTESIAN X    -2.602731      0.104453  KCAL/ANGSTROM
     41         14  H    CARTESIAN Y    -0.003374      0.059282  KCAL/ANGSTROM
     42         14  H    CARTESIAN Z     0.936523     -0.100221  KCAL/ANGSTROM
     43         15  H    CARTESIAN X    -0.338533     -0.797823  KCAL/ANGSTROM
     44         15  H    CARTESIAN Y    -0.229769      0.353156  KCAL/ANGSTROM
     45         15  H    CARTESIAN Z    -1.158884      1.449670  KCAL/ANGSTROM
     46         16  H    CARTESIAN X    -2.038867     -0.519999  KCAL/ANGSTROM
     47         16  H    CARTESIAN Y     1.533359      0.817348  KCAL/ANGSTROM
     48         16  H    CARTESIAN Z    -1.774968      1.444299  KCAL/ANGSTROM
     49         17  H    CARTESIAN X    -0.500655     -0.295060  KCAL/ANGSTROM
     50         17  H    CARTESIAN Y     2.306045     -0.524490  KCAL/ANGSTROM
     51         17  H    CARTESIAN Z    -1.232000     -0.336409  KCAL/ANGSTROM
     52         18  H    CARTESIAN X    -1.653454     -0.662091  KCAL/ANGSTROM
     53         18  H    CARTESIAN Y     2.513049     -0.757202  KCAL/ANGSTROM
     54         18  H    CARTESIAN Z     0.840946     -3.639418  KCAL/ANGSTROM
     55         19  H    CARTESIAN X    -0.484912      1.052329  KCAL/ANGSTROM
     56         19  H    CARTESIAN Y     0.717052     -1.258173  KCAL/ANGSTROM
     57         19  H    CARTESIAN Z     1.774968     -0.434164  KCAL/ANGSTROM
     58         20  H    CARTESIAN X     1.709005     -0.344071  KCAL/ANGSTROM
     59         20  H    CARTESIAN Y     1.567634     -0.527010  KCAL/ANGSTROM
     60         20  H    CARTESIAN Z    -0.369333      1.280032  KCAL/ANGSTROM
     61         21  H    CARTESIAN X     1.762411      0.243607  KCAL/ANGSTROM
     62         21  H    CARTESIAN Y     1.964085     -1.271422  KCAL/ANGSTROM
     63         21  H    CARTESIAN Z     1.384682      0.399007  KCAL/ANGSTROM
     64         22  H    CARTESIAN X     2.841818     -0.629562  KCAL/ANGSTROM
     65         22  H    CARTESIAN Y    -1.376276      0.833982  KCAL/ANGSTROM
     66         22  H    CARTESIAN Z     0.296524      1.756161  KCAL/ANGSTROM
     67         23  H    CARTESIAN X     1.197133      0.079424  KCAL/ANGSTROM
     68         23  H    CARTESIAN Y    -2.062663      0.523503  KCAL/ANGSTROM
     69         23  H    CARTESIAN Z     0.189332      1.611008  KCAL/ANGSTROM
     70         24  H    CARTESIAN X     1.739732      0.335965  KCAL/ANGSTROM
     71         24  H    CARTESIAN Y    -0.840578      0.163131  KCAL/ANGSTROM
     72         24  H    CARTESIAN Z    -1.000143      0.773792  KCAL/ANGSTROM




   ATOM   CHEMICAL          X               Y               Z
  NUMBER   SYMBOL      (ANGSTROMS)     (ANGSTROMS)     (ANGSTROMS)

     1       C         -1.70112802  *  -1.92928941  *   0.47761190  *
     2       C         -2.09302388  *  -0.50600622  *   0.09058958  *
     3       C         -0.87238693  *   0.32180234  *  -0.34809672  *
     4       C         -1.34854636  *   1.67009292  *  -0.92109027  *
     5       O         -2.14048576  *   2.38213267  *   0.00353356  *
     6       C          0.05650851  *   0.56646978  *   0.82487306  *
     7       C          1.38148583  *   1.27678847  *   0.62616273  *
     8       N          1.33906969  *  -0.14333970  *   1.02825152  *
     9       C          1.78788428  *  -1.13869357  *   0.05677185  *
    10       H         -2.57812856  *  -2.51304868  *   0.77916341  *
    11       H         -1.22493541  *  -2.45656276  *  -0.35515186  *
    12       H         -0.99754838  *  -1.93291337  *   1.32075036  *
    13       H         -2.84181752  *  -0.52802424  *  -0.72503517  *
    14       H         -2.60273119  *  -0.00337445  *   0.93652328  *
    15       H         -0.33853257  *  -0.22976867  *  -1.15888441  *
    16       H         -2.03886704  *   1.53335917  *  -1.77496757  *
    17       H         -0.50065497  *   2.30604459  *  -1.23199961  *
    18       H         -1.65345434  *   2.51304868  *   0.84094618  *
    19       H         -0.48491189  *   0.71705207  *   1.77496757  *
    20       H          1.70900526  *   1.56763393  *  -0.36933312  *
    21       H          1.76241102  *   1.96408538  *   1.38468215  *
    22       H          2.84181752  *  -1.37627646  *   0.29652417  *
    23       H          1.19713347  *  -2.06266290  *   0.18933230  *
    24       H          1.73973206  *  -0.84057771  *  -1.00014333  *

                             CARTESIAN COORDINATES

   1    C       -1.701128021    -1.929289409     0.477611903
   2    C       -2.093023876    -0.506006220     0.090589584
   3    C       -0.872386931     0.321802336    -0.348096724
   4    C       -1.348546357     1.670092924    -0.921090274
   5    O       -2.140485761     2.382132668     0.003533561
   6    C        0.056508508     0.566469777     0.824873058
   7    C        1.381485834     1.276788469     0.626162727
   8    N        1.339069688    -0.143339699     1.028251515
   9    C        1.787884276    -1.138693568     0.056771848
  10    H       -2.578128564    -2.513048680     0.779163410
  11    H       -1.224935414    -2.456562756    -0.355151862
  12    H       -0.997548382    -1.932913374     1.320750362
  13    H       -2.841817519    -0.528024244    -0.725035165
  14    H       -2.602731193    -0.003374449     0.936523284
  15    H       -0.338532569    -0.229768666    -1.158884406
  16    H       -2.038867041     1.533359173    -1.774967571
  17    H       -0.500654968     2.306044589    -1.231999612
  18    H       -1.653454342     2.513048680     0.840946184
  19    H       -0.484911892     0.717052067     1.774967571
  20    H        1.709005261     1.567633926    -0.369333125
  21    H        1.762411022     1.964085381     1.384682153
  22    H        2.841817519    -1.376276457     0.296524168
  23    H        1.197133469    -2.062662898     0.189332301
  24    H        1.739732059    -0.840577714    -1.000143334


           Empirical Formula: C7 H15 N O  =    24 atoms



      MOLECULAR POINT GROUP   :   C1  


                  EIGENVALUES  
 -36.53592 -30.15420 -28.17781 -26.22055 -25.16553 -22.46346 -22.00168 -21.03275
 -19.27884 -17.36177 -16.93021 -16.66225 -15.69405 -15.01816 -14.82267 -14.66651
 -14.12957 -13.69235 -12.83959 -12.74685 -12.42676 -12.15582 -11.89601 -11.59181
 -11.43715 -10.82533  -9.98920   2.23630   2.46721   2.81729   3.62799   3.70741
   3.96047   4.31707   4.55533   4.73652   5.40138   5.45447   5.54165   5.55737
   5.67515   5.73334   5.79311   5.90753   5.98100   6.01493   6.09946   6.21301
   6.45821   6.60748   7.07757


              NET ATOMIC CHARGES AND DIPOLE CONTRIBUTIONS

  ATOM NO.   TYPE          CHARGE      No. of ELECS.   s-Pop       p-Pop       
    1          C          -0.453352        4.4534     1.05310     3.40026
    2          C          -0.254881        4.2549     1.05731     3.19757
    3          C          -0.182466        4.1825     1.07074     3.11173
    4          C           0.002197        3.9978     1.09094     2.90686
    5          O          -0.613975        6.6140     1.84318     4.77080
    6          C          -0.061891        4.0619     1.07292     2.98898
    7          C          -0.244141        4.2441     1.07373     3.17041
    8          N          -0.417439        5.4174     1.74176     3.67568
    9          C          -0.296368        4.2964     1.06230     3.23407
   10          H           0.149334        0.8507     0.85067
   11          H           0.148154        0.8518     0.85185
   12          H           0.150244        0.8498     0.84976
   13          H           0.146524        0.8535     0.85348
   14          H           0.147668        0.8523     0.85233
   15          H           0.164366        0.8356     0.83563
   16          H           0.150453        0.8495     0.84955
   17          H           0.129593        0.8704     0.87041
   18          H           0.350545        0.6495     0.64945
   19          H           0.175295        0.8247     0.82470
   20          H           0.165888        0.8341     0.83411
   21          H           0.173296        0.8267     0.82670
   22          H           0.162821        0.8372     0.83718
   23          H           0.161274        0.8387     0.83873
   24          H           0.146863        0.8531     0.85314
 DIPOLE           X         Y         Z       TOTAL
 POINT-CHG.     1.137    -0.732    -2.097     2.495
 HYBRID         0.086     0.055    -0.232     0.253
 SUM            1.223    -0.677    -2.330     2.717


          ATOMIC ORBITAL ELECTRON POPULATIONS

     Atom    s        px        py        pz   
    1  C   1.05310   1.17156   1.05510   1.17359
    2  C   1.05731   1.04061   1.00118   1.15578
    3  C   1.07074   1.02770   1.03471   1.04932
    4  C   1.09094   1.03202   0.94774   0.92711
    5  O   1.84318   1.54362   1.80882   1.41836
    6  C   1.07292   0.88602   1.02172   1.08124
    7  C   1.07373   1.07001   0.93890   1.16150
    8  N   1.74176   1.17802   1.06505   1.43260
    9  C   1.06230   1.14875   1.03224   1.05308
   10  H   0.85067
   11  H   0.85185
   12  H   0.84976
   13  H   0.85348
   14  H   0.85233
   15  H   0.83563
   16  H   0.84955
   17  H   0.87041
   18  H   0.64945
   19  H   0.82470
   20  H   0.83411
   21  H   0.82670
   22  H   0.83718
   23  H   0.83873
   24  H   0.85314

 **********************
 *                    *
 * JOB ENDED NORMALLY *
 *                    *
 **********************



 TOTAL JOB TIME:             1.33 SECONDS

 == MOPAC DONE ==
