 *******************************************************************************
 **                                                                           **
 **                              MOPAC v23.2                                  **
 **                                                                           **
 *******************************************************************************
 **          Digital Object Identifier (DOI): 10.5281/zenodo.6511958          **
 **    Visit the DOI location for information on how to cite this program.    **
 *******************************************************************************

                              PM7 CALCULATION RESULTS

 *******************************************************************************
 *  CALCULATION DONE: (MAX THREADS = 40)             Fri Sep 19 21:38:16 2025  *
 *  PM7        - The PM7 Hamiltonian to be used
 *  1SCF       - DO 1 SCF AND THEN STOP 
 *  T=         - A TIME OF 172800.0 SECONDS REQUESTED
 *  DUMP=N     - RESTART FILE WRITTEN EVERY 7200.0 SECONDS REQUESTED
 *  RELSCF     - DEFAULT SCF CRITERION MULTIPLIED BY 0.0001
 *              (DEFAULT SCF CRITERION = 0.00010)
 *  GRADIENTS  - ALL GRADIENTS TO BE PRINTED
 *  DISP       - PRINT DISPERSION AND HYDROGEN BOND ENERGIES
 *******************************************************************************
PM7 1SCF GRADIENTS DISP RELSCF=0.0001
 Title: ASE calculation

   ATOM   CHEMICAL          X               Y               Z
  NUMBER   SYMBOL      (ANGSTROMS)     (ANGSTROMS)     (ANGSTROMS)

     1       C         -1.96374881  *  -0.23605029  *  -0.87830440  *
     2       C         -0.71730108  *  -0.11808713  *  -0.01930173  *
     3       O         -1.14456888  *  -0.47421954  *   1.27451565  *
     4       C         -0.12709431  *   1.33331913  *   0.01860183  *
     5       N          1.31912193  *   1.15610087  *  -0.13902366  *
     6       C          1.68539362  *  -0.14332589  *  -0.44782837  *
     7       O          2.82838049  *  -0.47264406  *  -0.65352614  *
     8       C          0.45360559  *  -1.02212595  *  -0.46521778  *
     9       H         -1.77461805  *   0.03529916  *  -1.92162083  *
    10       H         -2.76825478  *   0.40701966  *  -0.49376156  *
    11       H         -2.35741663  *  -1.26283857  *  -0.85567692  *
    12       H         -0.39906382  *  -0.50287579  *   1.90670560  *
    13       H         -0.36945635  *   1.82860600  *   0.98171833  *
    14       H         -0.54084059  *   1.96421941  *  -0.79384649  *
    15       H          1.94939997  *   1.92988804  *  -0.10400769  *
    16       H          0.57531395  *  -1.89527794  *   0.20290945  *
    17       H          0.29975848  *  -1.44904136  *  -1.47250363  *



          CARTESIAN COORDINATES 

    NO.       ATOM           X           Y           Z

     1         C         -1.9637     -0.2361     -0.8783
     2         C         -0.7173     -0.1181     -0.0193
     3         O         -1.1446     -0.4742      1.2745
     4         C         -0.1271      1.3333      0.0186
     5         N          1.3191      1.1561     -0.1390
     6         C          1.6854     -0.1433     -0.4478
     7         O          2.8284     -0.4726     -0.6535
     8         C          0.4536     -1.0221     -0.4652
     9         H         -1.7746      0.0353     -1.9216
    10         H         -2.7683      0.4070     -0.4938
    11         H         -2.3574     -1.2628     -0.8557
    12         H         -0.3991     -0.5029      1.9067
    13         H         -0.3695      1.8286      0.9817
    14         H         -0.5408      1.9642     -0.7938
    15         H          1.9494      1.9299     -0.1040
    16         H          0.5753     -1.8953      0.2029
    17         H          0.2998     -1.4490     -1.4725

 General Reference for PM7:
 "Optimization of Parameters for Semiempirical Methods VI: More Modifications to the 
 NDDO Approximations and Re-optimization of Parameters", J. J. P. Stewart, J. Mol. Mod., 1:32, 19 (2013)
 https://link.springer.com/article/10.1007/s00894-012-1667-x

           Empirical Formula: C5 H9 N O2  =    17 atoms



      MOLECULAR POINT GROUP   :   C1  


      RHF CALCULATION, NO. OF DOUBLY OCCUPIED LEVELS = 23

  SCF CRITERION =    0.1000E-07

 -------------------------------------------------------------------------------
 PM7 1SCF GRADIENTS DISP RELSCF=0.0001
 Title: ASE calculation



     1SCF WAS SPECIFIED, SO BFGS WAS NOT USED                 
     SCF FIELD WAS ACHIEVED                                   


                              PM7 CALCULATION
                                                       MOPAC v23.2 Linux
                                                       Fri Sep 19 21:38:17 2025




          FINAL HEAT OF FORMATION =       -101.26159 KCAL/MOL =    -423.67851 KJ/MOL

          TOTAL ENERGY            =     -34900.08968 KCAL/MOL = ELECTRONIC ENERGY + CORE-CORE REPULSION
          ENERGY OF ATOMS         =      34800.19765 KCAL/MOL
                              SUM =        -99.89203 KCAL/MOL
          DISPERSION ENERGY       =         -1.38116 KCAL/MOL
          H-BOND ENERGY           =         -0.00255 KCAL/MOL
          MM CORR. FOR -CO-NH-    =          0.01415 KCAL/MOL
                              SUM =       -101.26159 KCAL/MOL = FINAL HEAT OF FORMATION



          TOTAL ENERGY            =      -1513.41113 EV
          ELECTRONIC ENERGY       =      -6740.82321 EV 
          CORE-CORE REPULSION     =       5227.41208 EV
          COSMO AREA              =        145.72 SQUARE ANGSTROMS
          COSMO VOLUME            =        141.07 CUBIC ANGSTROMS

          GRADIENT NORM           =          0.96385          =       0.23377 PER ATOM
          IONIZATION POTENTIAL    =          9.898524 EV
          HOMO LUMO ENERGIES (EV) =         -9.899  1.260
          NO. OF FILLED LEVELS    =         23
          MOLECULAR WEIGHT        =        115.1316         POINT GROUP:  C1  

          MOLECULAR DIMENSIONS (Angstroms)

            Atom       Atom       Distance
            H    10    O     7     5.66760
            H    16    H    15     4.00231
            H     9    H    12     3.83496


          SCF CALCULATIONS        =          1

          WALL-CLOCK TIME         =      0.484 SECONDS
          COMPUTATION TIME        =      0.535 SECONDS

          LARGEST ATOMIC GRADIENTS

          Atom     Label                     Cartesian Gradients           Cartesian Coordinates       |Gradient|
                                           X          Y          Z        X          Y          Z

            12       H                   0.065     -0.267     -0.367   -0.39906   -0.50288    1.90671      0.459
             7       O                   0.181     -0.295     -0.159    2.82838   -0.47264   -0.65353      0.381
            14       H                   0.179      0.258     -0.197   -0.54084    1.96422   -0.79385      0.370
             5       N                  -0.258      0.104      0.077    1.31912    1.15610   -0.13902      0.289
            15       H                   0.240      0.155     -0.032    1.94940    1.92989   -0.10401      0.288
             3       O                  -0.199     -0.134      0.117   -1.14457   -0.47422    1.27452      0.267
             6       C                  -0.073      0.149      0.145    1.68539   -0.14333   -0.44783      0.220
            17       H                   0.108     -0.105      0.063    0.29976   -1.44904   -1.47250      0.163
            13       H                  -0.156      0.017     -0.026   -0.36946    1.82861    0.98172      0.159
            11       H                  -0.129      0.012      0.087   -2.35742   -1.26284   -0.85568      0.155



       FINAL  POINT  AND  DERIVATIVES

   PARAMETER     ATOM    TYPE            VALUE        GRADIENT
      1          1  C    CARTESIAN X    -1.963749      0.061638  KCAL/ANGSTROM
      2          1  C    CARTESIAN Y    -0.236050     -0.036578  KCAL/ANGSTROM
      3          1  C    CARTESIAN Z    -0.878304      0.052195  KCAL/ANGSTROM
      4          2  C    CARTESIAN X    -0.717301      0.098934  KCAL/ANGSTROM
      5          2  C    CARTESIAN Y    -0.118087      0.047236  KCAL/ANGSTROM
      6          2  C    CARTESIAN Z    -0.019302      0.058643  KCAL/ANGSTROM
      7          3  O    CARTESIAN X    -1.144569     -0.199125  KCAL/ANGSTROM
      8          3  O    CARTESIAN Y    -0.474220     -0.134140  KCAL/ANGSTROM
      9          3  O    CARTESIAN Z     1.274516      0.116825  KCAL/ANGSTROM
     10          4  C    CARTESIAN X    -0.127094     -0.117890  KCAL/ANGSTROM
     11          4  C    CARTESIAN Y     1.333319      0.034776  KCAL/ANGSTROM
     12          4  C    CARTESIAN Z     0.018602     -0.041348  KCAL/ANGSTROM
     13          5  N    CARTESIAN X     1.319122     -0.258338  KCAL/ANGSTROM
     14          5  N    CARTESIAN Y     1.156101      0.104401  KCAL/ANGSTROM
     15          5  N    CARTESIAN Z    -0.139024      0.076993  KCAL/ANGSTROM
     16          6  C    CARTESIAN X     1.685394     -0.073216  KCAL/ANGSTROM
     17          6  C    CARTESIAN Y    -0.143326      0.148724  KCAL/ANGSTROM
     18          6  C    CARTESIAN Z    -0.447828      0.144693  KCAL/ANGSTROM
     19          7  O    CARTESIAN X     2.828380      0.181292  KCAL/ANGSTROM
     20          7  O    CARTESIAN Y    -0.472644     -0.294886  KCAL/ANGSTROM
     21          7  O    CARTESIAN Z    -0.653526     -0.159340  KCAL/ANGSTROM
     22          8  C    CARTESIAN X     0.453606      0.023548  KCAL/ANGSTROM
     23          8  C    CARTESIAN Y    -1.022126      0.024585  KCAL/ANGSTROM
     24          8  C    CARTESIAN Z    -0.465218      0.064975  KCAL/ANGSTROM
     25          9  H    CARTESIAN X    -1.774618     -0.051892  KCAL/ANGSTROM
     26          9  H    CARTESIAN Y     0.035299      0.066887  KCAL/ANGSTROM
     27          9  H    CARTESIAN Z    -1.921621     -0.009869  KCAL/ANGSTROM
     28         10  H    CARTESIAN X    -2.768255     -0.007158  KCAL/ANGSTROM
     29         10  H    CARTESIAN Y     0.407020     -0.065762  KCAL/ANGSTROM
     30         10  H    CARTESIAN Z    -0.493762      0.081626  KCAL/ANGSTROM
     31         11  H    CARTESIAN X    -2.357417     -0.128545  KCAL/ANGSTROM
     32         11  H    CARTESIAN Y    -1.262839      0.011870  KCAL/ANGSTROM
     33         11  H    CARTESIAN Z    -0.855677      0.086619  KCAL/ANGSTROM
     34         12  H    CARTESIAN X    -0.399064      0.064525  KCAL/ANGSTROM
     35         12  H    CARTESIAN Y    -0.502876     -0.267366  KCAL/ANGSTROM
     36         12  H    CARTESIAN Z     1.906706     -0.367156  KCAL/ANGSTROM
     37         13  H    CARTESIAN X    -0.369456     -0.156329  KCAL/ANGSTROM
     38         13  H    CARTESIAN Y     1.828606      0.016530  KCAL/ANGSTROM
     39         13  H    CARTESIAN Z     0.981718     -0.026032  KCAL/ANGSTROM
     40         14  H    CARTESIAN X    -0.540841      0.178972  KCAL/ANGSTROM
     41         14  H    CARTESIAN Y     1.964219      0.257868  KCAL/ANGSTROM
     42         14  H    CARTESIAN Z    -0.793846     -0.196615  KCAL/ANGSTROM
     43         15  H    CARTESIAN X     1.949400      0.240431  KCAL/ANGSTROM
     44         15  H    CARTESIAN Y     1.929888      0.155330  KCAL/ANGSTROM
     45         15  H    CARTESIAN Z    -0.104008     -0.031522  KCAL/ANGSTROM
     46         16  H    CARTESIAN X     0.575314      0.034727  KCAL/ANGSTROM
     47         16  H    CARTESIAN Y    -1.895278      0.035148  KCAL/ANGSTROM
     48         16  H    CARTESIAN Z     0.202909      0.086550  KCAL/ANGSTROM
     49         17  H    CARTESIAN X     0.299758      0.108421  KCAL/ANGSTROM
     50         17  H    CARTESIAN Y    -1.449041     -0.104629  KCAL/ANGSTROM
     51         17  H    CARTESIAN Z    -1.472504      0.062759  KCAL/ANGSTROM




   ATOM   CHEMICAL          X               Y               Z
  NUMBER   SYMBOL      (ANGSTROMS)     (ANGSTROMS)     (ANGSTROMS)

     1       C         -1.96374881  *  -0.23605029  *  -0.87830440  *
     2       C         -0.71730108  *  -0.11808713  *  -0.01930173  *
     3       O         -1.14456888  *  -0.47421954  *   1.27451565  *
     4       C         -0.12709431  *   1.33331913  *   0.01860183  *
     5       N          1.31912193  *   1.15610087  *  -0.13902366  *
     6       C          1.68539362  *  -0.14332589  *  -0.44782837  *
     7       O          2.82838049  *  -0.47264406  *  -0.65352614  *
     8       C          0.45360559  *  -1.02212595  *  -0.46521778  *
     9       H         -1.77461805  *   0.03529916  *  -1.92162083  *
    10       H         -2.76825478  *   0.40701966  *  -0.49376156  *
    11       H         -2.35741663  *  -1.26283857  *  -0.85567692  *
    12       H         -0.39906382  *  -0.50287579  *   1.90670560  *
    13       H         -0.36945635  *   1.82860600  *   0.98171833  *
    14       H         -0.54084059  *   1.96421941  *  -0.79384649  *
    15       H          1.94939997  *   1.92988804  *  -0.10400769  *
    16       H          0.57531395  *  -1.89527794  *   0.20290945  *
    17       H          0.29975848  *  -1.44904136  *  -1.47250363  *

                             CARTESIAN COORDINATES

   1    C       -1.963748807    -0.236050293    -0.878304403
   2    C       -0.717301078    -0.118087134    -0.019301725
   3    O       -1.144568881    -0.474219539     1.274515652
   4    C       -0.127094307     1.333319131     0.018601830
   5    N        1.319121928     1.156100866    -0.139023662
   6    C        1.685393621    -0.143325894    -0.447828374
   7    O        2.828380494    -0.472644064    -0.653526137
   8    C        0.453605592    -1.022125945    -0.465217781
   9    H       -1.774618054     0.035299155    -1.921620834
  10    H       -2.768254782     0.407019658    -0.493761562
  11    H       -2.357416633    -1.262838570    -0.855676918
  12    H       -0.399063824    -0.502875786     1.906705601
  13    H       -0.369456350     1.828606001     0.981718325
  14    H       -0.540840585     1.964219413    -0.793846493
  15    H        1.949399968     1.929888036    -0.104007687
  16    H        0.575313952    -1.895277936     0.202909455
  17    H        0.299758484    -1.449041361    -1.472503628


           Empirical Formula: C5 H9 N O2  =    17 atoms



      MOLECULAR POINT GROUP   :   C1  


                  EIGENVALUES  
 -37.21010 -30.58591 -30.28572 -27.80851 -25.70991 -24.15728 -20.76488 -20.26327
 -18.01576 -17.13870 -16.67099 -15.53963 -15.09743 -14.81259 -14.48395 -13.85303
 -13.81804 -13.03972 -12.76539 -12.53309 -11.23807 -10.53109  -9.89852   1.25996
   1.89338   2.37857   2.74674   2.89610   3.34265   3.65687   4.68003   4.89059
   4.94913   5.14077   5.30020   5.30427   5.45899   5.67329   5.90455   6.49343
   6.52424


              NET ATOMIC CHARGES AND DIPOLE CONTRIBUTIONS

  ATOM NO.   TYPE          CHARGE      No. of ELECS.   s-Pop       p-Pop       
    1          C          -0.477163        4.4772     1.05797     3.41919
    2          C           0.335042        3.6650     1.08186     2.58310
    3          O          -0.563741        6.5637     1.84713     4.71661
    4          C          -0.145512        4.1455     1.08412     3.06139
    5          N          -0.619084        5.6191     1.56030     4.05879
    6          C           0.592788        3.4072     1.08026     2.32695
    7          O          -0.511433        6.5114     1.87844     4.63299
    8          C          -0.441823        4.4418     1.08351     3.35831
    9          H           0.157016        0.8430     0.84298
   10          H           0.167287        0.8327     0.83271
   11          H           0.170338        0.8297     0.82966
   12          H           0.324658        0.6753     0.67534
   13          H           0.156544        0.8435     0.84346
   14          H           0.147085        0.8529     0.85291
   15          H           0.327093        0.6729     0.67291
   16          H           0.192221        0.8078     0.80778
   17          H           0.188682        0.8113     0.81132
 DIPOLE           X         Y         Z       TOTAL
 POINT-CHG.    -3.408     1.455    -0.457     3.734
 HYBRID         0.687     0.342     0.308     0.827
 SUM           -2.721     1.798    -0.149     3.265


          ATOMIC ORBITAL ELECTRON POPULATIONS

     Atom    s        px        py        pz   
    1  C   1.05797   1.09031   1.20563   1.12325
    2  C   1.08186   0.91344   0.89011   0.77955
    3  O   1.84713   1.47751   1.92578   1.31332
    4  C   1.08412   0.82810   1.07341   1.15987
    5  N   1.56030   1.13633   1.19151   1.73094
    6  C   1.08026   0.83669   0.77650   0.71377
    7  O   1.87844   1.29968   1.79336   1.53995
    8  C   1.08351   1.04924   1.10783   1.20125
    9  H   0.84298
   10  H   0.83271
   11  H   0.82966
   12  H   0.67534
   13  H   0.84346
   14  H   0.85291
   15  H   0.67291
   16  H   0.80778
   17  H   0.81132

 **********************
 *                    *
 * JOB ENDED NORMALLY *
 *                    *
 **********************



 TOTAL JOB TIME:             0.90 SECONDS

 == MOPAC DONE ==
