 *******************************************************************************
 **                                                                           **
 **                              MOPAC v23.2                                  **
 **                                                                           **
 *******************************************************************************
 **          Digital Object Identifier (DOI): 10.5281/zenodo.6511958          **
 **    Visit the DOI location for information on how to cite this program.    **
 *******************************************************************************

                              PM7 CALCULATION RESULTS

 *******************************************************************************
 *  CALCULATION DONE: (MAX THREADS = 40)             Fri Sep 19 21:34:23 2025  *
 *  PM7        - The PM7 Hamiltonian to be used
 *  EPS=37.5   - USE ANDREAS KLAMT'S COSMO IMPLICIT SOLVATION MODEL
 *  1SCF       - DO 1 SCF AND THEN STOP 
 *  T=         - A TIME OF 172800.0 SECONDS REQUESTED
 *  DUMP=N     - RESTART FILE WRITTEN EVERY 7200.0 SECONDS REQUESTED
 *  RELSCF     - DEFAULT SCF CRITERION MULTIPLIED BY 0.0001
 *              (DEFAULT SCF CRITERION = 0.00010)
 *  GRADIENTS  - ALL GRADIENTS TO BE PRINTED
 *  DISP       - PRINT DISPERSION AND HYDROGEN BOND ENERGIES
 *******************************************************************************
PM7 1SCF GRADIENTS EPS=37.5 DISP RELSCF=0.0001
 Title: ASE calculation

   ATOM   CHEMICAL          X               Y               Z
  NUMBER   SYMBOL      (ANGSTROMS)     (ANGSTROMS)     (ANGSTROMS)

     1       C         -2.65526158  *  -0.67850092  *   1.62263176  *
     2       C         -2.20806914  *  -0.65426867  *   0.49886023  *
     3       C         -1.67457323  *  -0.63467623  *  -0.84595363  *
     4       C         -2.05624528  *   0.69486376  *  -1.52358216  *
     5       N         -0.23721917  *  -0.96719171  *  -0.78876065  *
     6       C          0.74339115  *  -0.25386119  *  -1.62617089  *
     7       C          0.70159339  *  -0.03672225  *  -0.12821682  *
     8       C          1.71163347  *  -0.69870443  *   0.78862409  *
     9       O          2.66093233  *   0.25341377  *   1.21974596  *
    10       H         -3.03692824  *  -0.69958706  *   2.57721137  *
    11       H         -2.12677493  *  -1.48753539  *  -1.44504293  *
    12       H         -1.75977942  *   0.71093292  *  -2.57721137  *
    13       H         -3.14330852  *   0.84359992  *  -1.49092689  *
    14       H         -1.59708398  *   1.55508715  *  -1.02388424  *
    15       H          1.50155252  *  -0.89754644  *  -2.07980974  *
    16       H          0.45517283  *   0.54741201  *  -2.30261910  *
    17       H          0.34506349  *   0.92676253  *   0.26307490  *
    18       H          1.24002908  *  -1.03261428  *   1.73555202  *
    19       H          2.22624152  *  -1.55508715  *   0.31804937  *
    20       H          3.14330852  *   0.63160601  *   0.45949325  *



          CARTESIAN COORDINATES 

    NO.       ATOM           X           Y           Z

     1         C         -2.6553     -0.6785      1.6226
     2         C         -2.2081     -0.6543      0.4989
     3         C         -1.6746     -0.6347     -0.8460
     4         C         -2.0562      0.6949     -1.5236
     5         N         -0.2372     -0.9672     -0.7888
     6         C          0.7434     -0.2539     -1.6262
     7         C          0.7016     -0.0367     -0.1282
     8         C          1.7116     -0.6987      0.7886
     9         O          2.6609      0.2534      1.2197
    10         H         -3.0369     -0.6996      2.5772
    11         H         -2.1268     -1.4875     -1.4450
    12         H         -1.7598      0.7109     -2.5772
    13         H         -3.1433      0.8436     -1.4909
    14         H         -1.5971      1.5551     -1.0239
    15         H          1.5016     -0.8975     -2.0798
    16         H          0.4552      0.5474     -2.3026
    17         H          0.3451      0.9268      0.2631
    18         H          1.2400     -1.0326      1.7356
    19         H          2.2262     -1.5551      0.3180
    20         H          3.1433      0.6316      0.4595

 General Reference for PM7:
 "Optimization of Parameters for Semiempirical Methods VI: More Modifications to the 
 NDDO Approximations and Re-optimization of Parameters", J. J. P. Stewart, J. Mol. Mod., 1:32, 19 (2013)
 https://link.springer.com/article/10.1007/s00894-012-1667-x

           Empirical Formula: C7 H11 N O  =    20 atoms



      MOLECULAR POINT GROUP   :   C1  


      RHF CALCULATION, NO. OF DOUBLY OCCUPIED LEVELS = 25

  SCF CRITERION =    0.1000E-07

 -------------------------------------------------------------------------------
 PM7 1SCF GRADIENTS EPS=37.5 DISP RELSCF=0.0001
 Title: ASE calculation



     1SCF WAS SPECIFIED, SO BFGS WAS NOT USED                 
     SCF FIELD WAS ACHIEVED                                   


                              PM7 CALCULATION
                                                       MOPAC v23.2 Linux
                                                       Fri Sep 19 21:34:24 2025




          FINAL HEAT OF FORMATION =         29.29786 KCAL/MOL =     122.58223 KJ/MOL

          TOTAL ENERGY            =     -34304.50566 KCAL/MOL = ELECTRONIC ENERGY + CORE-CORE REPULSION + SOLVATION ENERGY
          ENERGY OF ATOMS         =      34323.93363 KCAL/MOL
                              SUM =         19.42797 KCAL/MOL
          DISPERSION ENERGY       =         -2.13011 KCAL/MOL
                              SUM =         17.29786 KCAL/MOL = FINAL HEAT OF FORMATION

     *    WARNING - An energy term is incorrect or missing!

     *    FINAL HEAT OF FORMATION     =     29.29786 KCAL/MOL
     *    SUM OF CONTRIBUTIONS TO HoF =     17.29786 KCAL/MOL
     *                     DIFFERENCE =     12.00000 KCAL/MOL

          VAN DER WAALS AREA      =        175.73 SQUARE ANGSTROMS


          TOTAL ENERGY            =      -1487.58416 EV
          ELECTRONIC ENERGY       =      -2175.07144 EV 
          CORE-CORE REPULSION     =        687.48728 EV

          DIELECTRIC ENERGY       =         -0.45839 EV
          COSMO AREA              =        175.73 SQUARE ANGSTROMS
          COSMO VOLUME            =        176.26 CUBIC ANGSTROMS

          GRADIENT NORM           =         10.46727          =       2.34055 PER ATOM
          IONIZATION POTENTIAL    =         10.165670 EV
          HOMO LUMO ENERGIES (EV) =        -10.166  1.075
          NO. OF FILLED LEVELS    =         25
          MOLECULAR WEIGHT        =        125.1700         POINT GROUP:  C1  

          MOLECULAR DIMENSIONS (Angstroms)

            Atom       Atom       Distance
            H    20    H    10     6.66724
            H    18    H    12     5.43225
            H    14    H    11     2.91460


          SCF CALCULATIONS        =          2

          WALL-CLOCK TIME         =      0.898 SECONDS
          COMPUTATION TIME        =      0.444 SECONDS

          LARGEST ATOMIC GRADIENTS

          Atom     Label                     Cartesian Gradients           Cartesian Coordinates       |Gradient|
                                           X          Y          Z        X          Y          Z

            20       H                  -3.067     -2.580      3.783    3.14331    0.63161    0.45949      5.511
             4       C                  -0.663      2.677     -2.638   -2.05625    0.69486   -1.52358      3.816
             9       O                   1.570      1.932     -2.354    2.66093    0.25341    1.21975      3.426
             8       C                   2.612      0.914     -1.704    1.71163   -0.69870    0.78862      3.249
             6       C                  -0.022      1.221     -2.750    0.74339   -0.25386   -1.62617      3.009
             3       C                   1.765     -1.435      0.479   -1.67457   -0.63468   -0.84595      2.325
            10       H                   0.945     -0.127     -1.977   -3.03693   -0.69959    2.57721      2.195
             7       C                  -2.154     -0.088      0.161    0.70159   -0.03672   -0.12822      2.162
            16       H                   0.641     -1.206      1.431    0.45517    0.54741   -2.30262      1.978
            15       H                  -1.683     -0.372      0.736    1.50155   -0.89755   -2.07981      1.874



       FINAL  POINT  AND  DERIVATIVES

   PARAMETER     ATOM    TYPE            VALUE        GRADIENT
      1          1  C    CARTESIAN X    -2.655262     -0.547167  KCAL/ANGSTROM
      2          1  C    CARTESIAN Y    -0.678501     -0.045969  KCAL/ANGSTROM
      3          1  C    CARTESIAN Z     1.622632      1.122279  KCAL/ANGSTROM
      4          2  C    CARTESIAN X    -2.208069     -0.434764  KCAL/ANGSTROM
      5          2  C    CARTESIAN Y    -0.654269      0.389496  KCAL/ANGSTROM
      6          2  C    CARTESIAN Z     0.498860      0.171508  KCAL/ANGSTROM
      7          3  C    CARTESIAN X    -1.674573      1.764614  KCAL/ANGSTROM
      8          3  C    CARTESIAN Y    -0.634676     -1.435434  KCAL/ANGSTROM
      9          3  C    CARTESIAN Z    -0.845954      0.478649  KCAL/ANGSTROM
     10          4  C    CARTESIAN X    -2.056245     -0.662575  KCAL/ANGSTROM
     11          4  C    CARTESIAN Y     0.694864      2.676839  KCAL/ANGSTROM
     12          4  C    CARTESIAN Z    -1.523582     -2.638362  KCAL/ANGSTROM
     13          5  N    CARTESIAN X    -0.237219      0.701216  KCAL/ANGSTROM
     14          5  N    CARTESIAN Y    -0.967192      0.249840  KCAL/ANGSTROM
     15          5  N    CARTESIAN Z    -0.788761     -0.171673  KCAL/ANGSTROM
     16          6  C    CARTESIAN X     0.743391     -0.022448  KCAL/ANGSTROM
     17          6  C    CARTESIAN Y    -0.253861      1.220501  KCAL/ANGSTROM
     18          6  C    CARTESIAN Z    -1.626171     -2.750417  KCAL/ANGSTROM
     19          7  C    CARTESIAN X     0.701593     -2.154316  KCAL/ANGSTROM
     20          7  C    CARTESIAN Y    -0.036722     -0.088323  KCAL/ANGSTROM
     21          7  C    CARTESIAN Z    -0.128217      0.161481  KCAL/ANGSTROM
     22          8  C    CARTESIAN X     1.711633      2.611512  KCAL/ANGSTROM
     23          8  C    CARTESIAN Y    -0.698704      0.913598  KCAL/ANGSTROM
     24          8  C    CARTESIAN Z     0.788624     -1.704140  KCAL/ANGSTROM
     25          9  O    CARTESIAN X     2.660932      1.570045  KCAL/ANGSTROM
     26          9  O    CARTESIAN Y     0.253414      1.932455  KCAL/ANGSTROM
     27          9  O    CARTESIAN Z     1.219746     -2.353752  KCAL/ANGSTROM
     28         10  H    CARTESIAN X    -3.036928      0.944899  KCAL/ANGSTROM
     29         10  H    CARTESIAN Y    -0.699587     -0.126511  KCAL/ANGSTROM
     30         10  H    CARTESIAN Z     2.577211     -1.977376  KCAL/ANGSTROM
     31         11  H    CARTESIAN X    -2.126775      0.967134  KCAL/ANGSTROM
     32         11  H    CARTESIAN Y    -1.487535      0.125876  KCAL/ANGSTROM
     33         11  H    CARTESIAN Z    -1.445043      1.104379  KCAL/ANGSTROM
     34         12  H    CARTESIAN X    -1.759779     -0.417718  KCAL/ANGSTROM
     35         12  H    CARTESIAN Y     0.710933     -0.205035  KCAL/ANGSTROM
     36         12  H    CARTESIAN Z    -2.577211      1.014199  KCAL/ANGSTROM
     37         13  H    CARTESIAN X    -3.143309      0.587808  KCAL/ANGSTROM
     38         13  H    CARTESIAN Y     0.843600     -0.582383  KCAL/ANGSTROM
     39         13  H    CARTESIAN Z    -1.490927      0.430952  KCAL/ANGSTROM
     40         14  H    CARTESIAN X    -1.597084     -0.366616  KCAL/ANGSTROM
     41         14  H    CARTESIAN Y     1.555087     -0.567182  KCAL/ANGSTROM
     42         14  H    CARTESIAN Z    -1.023884      0.304959  KCAL/ANGSTROM
     43         15  H    CARTESIAN X     1.501553     -1.682521  KCAL/ANGSTROM
     44         15  H    CARTESIAN Y    -0.897546     -0.371822  KCAL/ANGSTROM
     45         15  H    CARTESIAN Z    -2.079810      0.736247  KCAL/ANGSTROM
     46         16  H    CARTESIAN X     0.455173      0.641172  KCAL/ANGSTROM
     47         16  H    CARTESIAN Y     0.547412     -1.206155  KCAL/ANGSTROM
     48         16  H    CARTESIAN Z    -2.302619      1.431090  KCAL/ANGSTROM
     49         17  H    CARTESIAN X     0.345063      0.570370  KCAL/ANGSTROM
     50         17  H    CARTESIAN Y     0.926763     -0.572604  KCAL/ANGSTROM
     51         17  H    CARTESIAN Z     0.263075      0.413157  KCAL/ANGSTROM
     52         18  H    CARTESIAN X     1.240029      0.345404  KCAL/ANGSTROM
     53         18  H    CARTESIAN Y    -1.032614      0.674031  KCAL/ANGSTROM
     54         18  H    CARTESIAN Z     1.735552     -0.026813  KCAL/ANGSTROM
     55         19  H    CARTESIAN X     2.226242     -1.349098  KCAL/ANGSTROM
     56         19  H    CARTESIAN Y    -1.555087     -0.401054  KCAL/ANGSTROM
     57         19  H    CARTESIAN Z     0.318049      0.471034  KCAL/ANGSTROM
     58         20  H    CARTESIAN X     3.143309     -3.066950  KCAL/ANGSTROM
     59         20  H    CARTESIAN Y     0.631606     -2.580169  KCAL/ANGSTROM
     60         20  H    CARTESIAN Z     0.459493      3.782595  KCAL/ANGSTROM




   ATOM   CHEMICAL          X               Y               Z
  NUMBER   SYMBOL      (ANGSTROMS)     (ANGSTROMS)     (ANGSTROMS)

     1       C         -2.65526158  *  -0.67850092  *   1.62263176  *
     2       C         -2.20806914  *  -0.65426867  *   0.49886023  *
     3       C         -1.67457323  *  -0.63467623  *  -0.84595363  *
     4       C         -2.05624528  *   0.69486376  *  -1.52358216  *
     5       N         -0.23721917  *  -0.96719171  *  -0.78876065  *
     6       C          0.74339115  *  -0.25386119  *  -1.62617089  *
     7       C          0.70159339  *  -0.03672225  *  -0.12821682  *
     8       C          1.71163347  *  -0.69870443  *   0.78862409  *
     9       O          2.66093233  *   0.25341377  *   1.21974596  *
    10       H         -3.03692824  *  -0.69958706  *   2.57721137  *
    11       H         -2.12677493  *  -1.48753539  *  -1.44504293  *
    12       H         -1.75977942  *   0.71093292  *  -2.57721137  *
    13       H         -3.14330852  *   0.84359992  *  -1.49092689  *
    14       H         -1.59708398  *   1.55508715  *  -1.02388424  *
    15       H          1.50155252  *  -0.89754644  *  -2.07980974  *
    16       H          0.45517283  *   0.54741201  *  -2.30261910  *
    17       H          0.34506349  *   0.92676253  *   0.26307490  *
    18       H          1.24002908  *  -1.03261428  *   1.73555202  *
    19       H          2.22624152  *  -1.55508715  *   0.31804937  *
    20       H          3.14330852  *   0.63160601  *   0.45949325  *

                             CARTESIAN COORDINATES

   1    C       -2.655261584    -0.678500921     1.622631763
   2    C       -2.208069137    -0.654268672     0.498860226
   3    C       -1.674573227    -0.634676226    -0.845953635
   4    C       -2.056245284     0.694863758    -1.523582160
   5    N       -0.237219173    -0.967191711    -0.788760651
   6    C        0.743391146    -0.253861189    -1.626170887
   7    C        0.701593391    -0.036722253    -0.128216820
   8    C        1.711633466    -0.698704434     0.788624091
   9    O        2.660932334     0.253413774     1.219745963
  10    H       -3.036928242    -0.699587062     2.577211370
  11    H       -2.126774926    -1.487535392    -1.445042927
  12    H       -1.759779417     0.710932923    -2.577211370
  13    H       -3.143308523     0.843599924    -1.490926887
  14    H       -1.597083977     1.555087152    -1.023884242
  15    H        1.501552521    -0.897546435    -2.079809743
  16    H        0.455172829     0.547412009    -2.302619104
  17    H        0.345063487     0.926762532     0.263074895
  18    H        1.240029079    -1.032614281     1.735552021
  19    H        2.226241524    -1.555087152     0.318049373
  20    H        3.143308523     0.631606014     0.459493251


           Empirical Formula: C7 H11 N O  =    20 atoms



      MOLECULAR POINT GROUP   :   C1  


                  EIGENVALUES  
 -36.74482 -29.75405 -28.23641 -25.98054 -25.15214 -23.97401 -21.06823 -20.65838
 -18.64571 -17.93915 -16.80093 -16.28409 -15.82727 -15.27672 -14.59785 -13.78798
 -13.47892 -13.27983 -12.77512 -12.23564 -12.01769 -11.33503 -11.22495 -10.99615
 -10.16567   1.07549   1.32778   1.94326   2.34023   2.94672   3.51123   3.63851
   3.98092   4.26713   4.49096   5.22386   5.31578   5.45678   5.53976   5.64969
   5.72100   5.82949   5.89693   6.07736   6.09430   6.78151   6.79820


              NET ATOMIC CHARGES AND DIPOLE CONTRIBUTIONS

  ATOM NO.   TYPE          CHARGE      No. of ELECS.   s-Pop       p-Pop       
    1          C          -0.206585        4.2066     1.14144     3.06515
    2          C          -0.101278        4.1013     1.11619     2.98509
    3          C           0.083474        3.9165     1.04992     2.86661
    4          C          -0.486369        4.4864     1.06105     3.42532
    5          N          -0.435563        5.4356     1.74598     3.68959
    6          C          -0.208115        4.2081     1.07507     3.13305
    7          C          -0.107697        4.1077     1.07631     3.03138
    8          C           0.015296        3.9847     1.08404     2.90066
    9          O          -0.612620        6.6126     1.84320     4.76942
   10          H           0.200657        0.7993     0.79934
   11          H           0.181855        0.8181     0.81814
   12          H           0.166203        0.8338     0.83380
   13          H           0.170009        0.8300     0.82999
   14          H           0.164249        0.8358     0.83575
   15          H           0.178368        0.8216     0.82163
   16          H           0.169809        0.8302     0.83019
   17          H           0.174659        0.8253     0.82534
   18          H           0.155238        0.8448     0.84476
   19          H           0.141036        0.8590     0.85896
   20          H           0.357376        0.6426     0.64262
 DIPOLE           X         Y         Z       TOTAL
 POINT-CHG.    -0.714     0.838    -2.824     3.031
 HYBRID        -0.083     0.926    -0.206     0.952
 SUM           -0.796     1.764    -3.030     3.595


          ATOMIC ORBITAL ELECTRON POPULATIONS

     Atom    s        px        py        pz   
    1  C   1.14144   1.00582   1.02562   1.03372
    2  C   1.11619   1.00239   0.99301   0.98969
    3  C   1.04992   0.85071   1.04540   0.97049
    4  C   1.06105   1.19052   1.07276   1.16203
    5  N   1.74598   1.06242   1.41272   1.21445
    6  C   1.07507   1.03911   1.10232   0.99162
    7  C   1.07631   1.01219   1.04477   0.97442
    8  C   1.08404   0.90689   0.92234   1.07143
    9  O   1.84320   1.61901   1.65969   1.49071
   10  H   0.79934
   11  H   0.81814
   12  H   0.83380
   13  H   0.82999
   14  H   0.83575
   15  H   0.82163
   16  H   0.83019
   17  H   0.82534
   18  H   0.84476
   19  H   0.85896
   20  H   0.64262

 **********************
 *                    *
 * JOB ENDED NORMALLY *
 *                    *
 **********************



 TOTAL JOB TIME:             1.36 SECONDS

 == MOPAC DONE ==
