 *******************************************************************************
 **                                                                           **
 **                              MOPAC v23.2                                  **
 **                                                                           **
 *******************************************************************************
 **          Digital Object Identifier (DOI): 10.5281/zenodo.6511958          **
 **    Visit the DOI location for information on how to cite this program.    **
 *******************************************************************************

                              PM7 CALCULATION RESULTS

 *******************************************************************************
 *  CALCULATION DONE: (MAX THREADS = 40)             Fri Sep 19 21:32:24 2025  *
 *  PM7        - The PM7 Hamiltonian to be used
 *
 *
 *
 *                 CHARGE ON SYSTEM = +1
 *
 *
 *
 *  1SCF       - DO 1 SCF AND THEN STOP 
 *  T=         - A TIME OF 172800.0 SECONDS REQUESTED
 *  DUMP=N     - RESTART FILE WRITTEN EVERY 7200.0 SECONDS REQUESTED
 *  RELSCF     - DEFAULT SCF CRITERION MULTIPLIED BY 0.0001
 *              (DEFAULT SCF CRITERION = 0.00010)
 *  GRADIENTS  - ALL GRADIENTS TO BE PRINTED
 *  DISP       - PRINT DISPERSION AND HYDROGEN BOND ENERGIES
 *******************************************************************************
PM7 1SCF GRADIENTS DISP RELSCF=0.0001 CHARGE=1
 Title: ASE calculation

   ATOM   CHEMICAL          X               Y               Z
  NUMBER   SYMBOL      (ANGSTROMS)     (ANGSTROMS)     (ANGSTROMS)

     1       C         -1.61380073  *  -0.46101595  *   2.09862811  *
     2       C         -1.50207604  *  -0.34718322  *   0.89715146  *
     3       C         -1.38763093  *  -0.22276320  *  -0.52877020  *
     4       C         -2.02183777  *   1.08354277  *  -1.04431793  *
     5       N          0.00861241  *  -0.20698772  *  -0.90047928  *
     6       C          0.99618464  *  -0.65484295  *  -1.82590874  *
     7       C          1.36258676  *  -0.00353801  *  -0.47373468  *
     8       C          1.89368347  *  -0.83174471  *   0.69934495  *
     9       O          1.40079528  *  -0.25038172  *   1.87237490  *
    10       H         -1.71431528  *  -0.56473825  *   3.12882115  *
    11       H         -1.87550416  *  -1.11084207  *  -1.05754101  *
    12       H         -1.98892066  *   1.16978203  *  -2.13810573  *
    13       H         -3.08916518  *   1.11817261  *  -0.75020754  *
    14       H         -1.55832885  *   1.98012430  *  -0.60787002  *
    15       H          1.12115184  *  -1.73863802  *  -2.00273749  *
    16       H          1.14481705  *  -0.10954722  *  -2.77668963  *
    17       H          1.73025116  *   1.04587445  *  -0.45431551  *
    18       H          1.48999472  *  -1.86724667  *   0.71381636  *
    19       H          3.00226501  *  -0.87458835  *   0.67366523  *
    20       H          2.05265799  *   0.37368075  *   2.27453213  *



          CARTESIAN COORDINATES 

    NO.       ATOM           X           Y           Z

     1         C         -1.6138     -0.4610      2.0986
     2         C         -1.5021     -0.3472      0.8972
     3         C         -1.3876     -0.2228     -0.5288
     4         C         -2.0218      1.0835     -1.0443
     5         N          0.0086     -0.2070     -0.9005
     6         C          0.9962     -0.6548     -1.8259
     7         C          1.3626     -0.0035     -0.4737
     8         C          1.8937     -0.8317      0.6993
     9         O          1.4008     -0.2504      1.8724
    10         H         -1.7143     -0.5647      3.1288
    11         H         -1.8755     -1.1108     -1.0575
    12         H         -1.9889      1.1698     -2.1381
    13         H         -3.0892      1.1182     -0.7502
    14         H         -1.5583      1.9801     -0.6079
    15         H          1.1212     -1.7386     -2.0027
    16         H          1.1448     -0.1095     -2.7767
    17         H          1.7303      1.0459     -0.4543
    18         H          1.4900     -1.8672      0.7138
    19         H          3.0023     -0.8746      0.6737
    20         H          2.0527      0.3737      2.2745

 General Reference for PM7:
 "Optimization of Parameters for Semiempirical Methods VI: More Modifications to the 
 NDDO Approximations and Re-optimization of Parameters", J. J. P. Stewart, J. Mol. Mod., 1:32, 19 (2013)
 https://link.springer.com/article/10.1007/s00894-012-1667-x

           Empirical Formula: C7 H11 N O  =    20 atoms



      MOLECULAR POINT GROUP   :   C1  


          UHF CALCULATION, NO. OF ALPHA ELECTRONS =   25
                           NO. OF BETA  ELECTRONS =   24
  SCF CRITERION =    0.1000E-07

 -------------------------------------------------------------------------------
 PM7 1SCF GRADIENTS DISP RELSCF=0.0001 CHARGE=1
 Title: ASE calculation



     1SCF WAS SPECIFIED, SO BFGS WAS NOT USED                 
     SCF FIELD WAS ACHIEVED                                   


                              PM7 CALCULATION
                                                       MOPAC v23.2 Linux
                                                       Fri Sep 19 21:32:25 2025




          FINAL HEAT OF FORMATION =        229.85624 KCAL/MOL =     961.71853 KJ/MOL

          TOTAL ENERGY            =     -34103.77916 KCAL/MOL = ELECTRONIC ENERGY + CORE-CORE REPULSION
          ENERGY OF ATOMS         =      34323.93363 KCAL/MOL
                              SUM =        220.15447 KCAL/MOL
          DISPERSION ENERGY       =         -2.29742 KCAL/MOL
                              SUM =        217.85705 KCAL/MOL = FINAL HEAT OF FORMATION

     *    WARNING - An energy term is incorrect or missing!

     *    FINAL HEAT OF FORMATION     =    229.85625 KCAL/MOL
     *    SUM OF CONTRIBUTIONS TO HoF =    217.85705 KCAL/MOL
     *                     DIFFERENCE =     11.99920 KCAL/MOL



          TOTAL ENERGY            =      -1478.87983 EV
          ELECTRONIC ENERGY       =      -7273.01120 EV 
          CORE-CORE REPULSION     =       5794.13136 EV
          COSMO AREA              =        174.08 SQUARE ANGSTROMS
          COSMO VOLUME            =        175.66 CUBIC ANGSTROMS

          GRADIENT NORM           =          1.15609          =       0.25851 PER ATOM
          IONIZATION POTENTIAL    =         14.877202 EV
          ALPHA SOMO LUMO (EV)    =        -14.877 -4.775
          BETA  SOMO LUMO (EV)    =        -14.972 -6.406
          NO. OF ALPHA ELECTRONS  =         25
          NO. OF BETA  ELECTRONS  =         24
          MOLECULAR WEIGHT        =        125.1700         POINT GROUP:  C1  

          MOLECULAR DIMENSIONS (Angstroms)

            Atom       Atom       Distance
            H    16    H    10     6.57700
            H    19    H    13     6.44881
            H    17    H    11     3.10205


          SCF CALCULATIONS        =          1

          WALL-CLOCK TIME         =      0.969 SECONDS
          COMPUTATION TIME        =      0.599 SECONDS

          LARGEST ATOMIC GRADIENTS

          Atom     Label                     Cartesian Gradients           Cartesian Coordinates       |Gradient|
                                           X          Y          Z        X          Y          Z

             9       O                  -0.272      0.182      0.324    1.40080   -0.25038    1.87237      0.460
            13       H                  -0.305      0.264      0.016   -3.08917    1.11817   -0.75021      0.403
            19       H                   0.258      0.178      0.124    3.00227   -0.87459    0.67367      0.336
             4       C                   0.163     -0.046      0.244   -2.02184    1.08354   -1.04432      0.297
             3       C                   0.056      0.241     -0.132   -1.38763   -0.22276   -0.52877      0.280
             5       N                   0.142      0.183      0.147    0.00861   -0.20699   -0.90048      0.274
            10       H                  -0.088     -0.252      0.042   -1.71432   -0.56474    3.12882      0.270
            20       H                   0.216      0.000     -0.160    2.05266    0.37368    2.27453      0.269
             8       C                  -0.226     -0.007     -0.134    1.89368   -0.83174    0.69934      0.263
             1       C                   0.196      0.008     -0.173   -1.61380   -0.46102    2.09863      0.262



       FINAL  POINT  AND  DERIVATIVES

   PARAMETER     ATOM    TYPE            VALUE        GRADIENT
      1          1  C    CARTESIAN X    -1.613801      0.196034  KCAL/ANGSTROM
      2          1  C    CARTESIAN Y    -0.461016      0.007670  KCAL/ANGSTROM
      3          1  C    CARTESIAN Z     2.098628     -0.173023  KCAL/ANGSTROM
      4          2  C    CARTESIAN X    -1.502076      0.028640  KCAL/ANGSTROM
      5          2  C    CARTESIAN Y    -0.347183     -0.111906  KCAL/ANGSTROM
      6          2  C    CARTESIAN Z     0.897151     -0.005953  KCAL/ANGSTROM
      7          3  C    CARTESIAN X    -1.387631      0.055970  KCAL/ANGSTROM
      8          3  C    CARTESIAN Y    -0.222763      0.240981  KCAL/ANGSTROM
      9          3  C    CARTESIAN Z    -0.528770     -0.131533  KCAL/ANGSTROM
     10          4  C    CARTESIAN X    -2.021838      0.163310  KCAL/ANGSTROM
     11          4  C    CARTESIAN Y     1.083543     -0.045554  KCAL/ANGSTROM
     12          4  C    CARTESIAN Z    -1.044318      0.244219  KCAL/ANGSTROM
     13          5  N    CARTESIAN X     0.008612      0.141675  KCAL/ANGSTROM
     14          5  N    CARTESIAN Y    -0.206988      0.182783  KCAL/ANGSTROM
     15          5  N    CARTESIAN Z    -0.900479      0.147314  KCAL/ANGSTROM
     16          6  C    CARTESIAN X     0.996185     -0.063747  KCAL/ANGSTROM
     17          6  C    CARTESIAN Y    -0.654843     -0.011076  KCAL/ANGSTROM
     18          6  C    CARTESIAN Z    -1.825909      0.181851  KCAL/ANGSTROM
     19          7  C    CARTESIAN X     1.362587     -0.223736  KCAL/ANGSTROM
     20          7  C    CARTESIAN Y    -0.003538      0.027148  KCAL/ANGSTROM
     21          7  C    CARTESIAN Z    -0.473735     -0.131617  KCAL/ANGSTROM
     22          8  C    CARTESIAN X     1.893683     -0.225628  KCAL/ANGSTROM
     23          8  C    CARTESIAN Y    -0.831745     -0.006806  KCAL/ANGSTROM
     24          8  C    CARTESIAN Z     0.699345     -0.134050  KCAL/ANGSTROM
     25          9  O    CARTESIAN X     1.400795     -0.271963  KCAL/ANGSTROM
     26          9  O    CARTESIAN Y    -0.250382      0.181620  KCAL/ANGSTROM
     27          9  O    CARTESIAN Z     1.872375      0.324033  KCAL/ANGSTROM
     28         10  H    CARTESIAN X    -1.714315     -0.087951  KCAL/ANGSTROM
     29         10  H    CARTESIAN Y    -0.564738     -0.251785  KCAL/ANGSTROM
     30         10  H    CARTESIAN Z     3.128821      0.041981  KCAL/ANGSTROM
     31         11  H    CARTESIAN X    -1.875504      0.102132  KCAL/ANGSTROM
     32         11  H    CARTESIAN Y    -1.110842      0.100061  KCAL/ANGSTROM
     33         11  H    CARTESIAN Z    -1.057541     -0.054388  KCAL/ANGSTROM
     34         12  H    CARTESIAN X    -1.988921     -0.059870  KCAL/ANGSTROM
     35         12  H    CARTESIAN Y     1.169782     -0.225087  KCAL/ANGSTROM
     36         12  H    CARTESIAN Z    -2.138106     -0.058665  KCAL/ANGSTROM
     37         13  H    CARTESIAN X    -3.089165     -0.304542  KCAL/ANGSTROM
     38         13  H    CARTESIAN Y     1.118173      0.263519  KCAL/ANGSTROM
     39         13  H    CARTESIAN Z    -0.750208      0.016199  KCAL/ANGSTROM
     40         14  H    CARTESIAN X    -1.558329      0.036917  KCAL/ANGSTROM
     41         14  H    CARTESIAN Y     1.980124      0.000094  KCAL/ANGSTROM
     42         14  H    CARTESIAN Z    -0.607870     -0.025850  KCAL/ANGSTROM
     43         15  H    CARTESIAN X     1.121152     -0.060515  KCAL/ANGSTROM
     44         15  H    CARTESIAN Y    -1.738638     -0.081662  KCAL/ANGSTROM
     45         15  H    CARTESIAN Z    -2.002737      0.018239  KCAL/ANGSTROM
     46         16  H    CARTESIAN X     1.144817      0.142875  KCAL/ANGSTROM
     47         16  H    CARTESIAN Y    -0.109547     -0.118276  KCAL/ANGSTROM
     48         16  H    CARTESIAN Z    -2.776690     -0.130030  KCAL/ANGSTROM
     49         17  H    CARTESIAN X     1.730251     -0.042496  KCAL/ANGSTROM
     50         17  H    CARTESIAN Y     1.045874     -0.157942  KCAL/ANGSTROM
     51         17  H    CARTESIAN Z    -0.454316     -0.058075  KCAL/ANGSTROM
     52         18  H    CARTESIAN X     1.489995     -0.000270  KCAL/ANGSTROM
     53         18  H    CARTESIAN Y    -1.867247     -0.171337  KCAL/ANGSTROM
     54         18  H    CARTESIAN Z     0.713816     -0.034114  KCAL/ANGSTROM
     55         19  H    CARTESIAN X     3.002265      0.257554  KCAL/ANGSTROM
     56         19  H    CARTESIAN Y    -0.874588      0.177518  KCAL/ANGSTROM
     57         19  H    CARTESIAN Z     0.673665      0.123747  KCAL/ANGSTROM
     58         20  H    CARTESIAN X     2.052658      0.215608  KCAL/ANGSTROM
     59         20  H    CARTESIAN Y     0.373681      0.000031  KCAL/ANGSTROM
     60         20  H    CARTESIAN Z     2.274532     -0.160292  KCAL/ANGSTROM




   ATOM   CHEMICAL          X               Y               Z
  NUMBER   SYMBOL      (ANGSTROMS)     (ANGSTROMS)     (ANGSTROMS)

     1       C         -1.61380073  *  -0.46101595  *   2.09862811  *
     2       C         -1.50207604  *  -0.34718322  *   0.89715146  *
     3       C         -1.38763093  *  -0.22276320  *  -0.52877020  *
     4       C         -2.02183777  *   1.08354277  *  -1.04431793  *
     5       N          0.00861241  *  -0.20698772  *  -0.90047928  *
     6       C          0.99618464  *  -0.65484295  *  -1.82590874  *
     7       C          1.36258676  *  -0.00353801  *  -0.47373468  *
     8       C          1.89368347  *  -0.83174471  *   0.69934495  *
     9       O          1.40079528  *  -0.25038172  *   1.87237490  *
    10       H         -1.71431528  *  -0.56473825  *   3.12882115  *
    11       H         -1.87550416  *  -1.11084207  *  -1.05754101  *
    12       H         -1.98892066  *   1.16978203  *  -2.13810573  *
    13       H         -3.08916518  *   1.11817261  *  -0.75020754  *
    14       H         -1.55832885  *   1.98012430  *  -0.60787002  *
    15       H          1.12115184  *  -1.73863802  *  -2.00273749  *
    16       H          1.14481705  *  -0.10954722  *  -2.77668963  *
    17       H          1.73025116  *   1.04587445  *  -0.45431551  *
    18       H          1.48999472  *  -1.86724667  *   0.71381636  *
    19       H          3.00226501  *  -0.87458835  *   0.67366523  *
    20       H          2.05265799  *   0.37368075  *   2.27453213  *

                             CARTESIAN COORDINATES

   1    C       -1.613800732    -0.461015946     2.098628111
   2    C       -1.502076043    -0.347183216     0.897151460
   3    C       -1.387630930    -0.222763199    -0.528770205
   4    C       -2.021837765     1.083542773    -1.044317927
   5    N        0.008612411    -0.206987715    -0.900479280
   6    C        0.996184643    -0.654842950    -1.825908742
   7    C        1.362586757    -0.003538014    -0.473734679
   8    C        1.893683475    -0.831744707     0.699344946
   9    O        1.400795281    -0.250381716     1.872374900
  10    H       -1.714315277    -0.564738250     3.128821151
  11    H       -1.875504158    -1.110842073    -1.057541008
  12    H       -1.988920658     1.169782026    -2.138105729
  13    H       -3.089165176     1.118172610    -0.750207544
  14    H       -1.558328847     1.980124297    -0.607870022
  15    H        1.121151840    -1.738638024    -2.002737490
  16    H        1.144817048    -0.109547220    -2.776689626
  17    H        1.730251159     1.045874449    -0.454315508
  18    H        1.489994722    -1.867246667     0.713816360
  19    H        3.002265012    -0.874588349     0.673665230
  20    H        2.052657988     0.373680749     2.274532130


           Empirical Formula: C7 H11 N O  =    20 atoms



      MOLECULAR POINT GROUP   :   C1  


          ALPHA EIGENVALUES  
 -43.61708 -34.27895 -33.66971 -30.31528 -29.52865 -28.66723 -26.69002 -25.45846
 -23.56212 -22.39568 -22.05324 -21.66362 -20.65134 -19.48896 -19.17935 -18.77018
 -18.52512 -17.93797 -17.33804 -17.11223 -16.50731 -16.29332 -15.32234 -15.03853
 -14.87720  -4.77523  -3.48151  -2.48948  -2.31903  -2.06913  -1.44188  -1.21715
  -0.85619  -0.59314  -0.12609  -0.07466   0.27055   0.34470   0.42685   0.84907
   1.29478   1.44084   1.48586   1.98398   2.01630   2.57811   3.10078


           BETA EIGENVALUES 
 -42.05725 -34.11227 -33.58576 -30.16254 -29.39893 -28.43216 -26.44748 -25.25899
 -23.18624 -22.09663 -21.66786 -21.45917 -20.50690 -19.39135 -18.84375 -18.52177
 -18.37410 -17.85624 -17.23789 -17.06976 -16.32903 -15.27738 -15.05605 -14.97166
  -6.40580  -4.16570  -3.34657  -2.46221  -2.24268  -1.86639  -1.38600  -1.18370
  -0.75421  -0.26377   0.04501   0.08906   0.31744   0.42399   0.48302   0.85965
   1.29665   1.45512   1.49551   1.98972   2.01478   2.58189   3.09979


              NET ATOMIC CHARGES AND DIPOLE CONTRIBUTIONS

  ATOM NO.   TYPE          CHARGE      No. of ELECS.   s-Pop       p-Pop       
    1          C           0.039786        3.9602     1.16134     2.79887
    2          C          -0.263045        4.2630     1.07890     3.18415
    3          C           0.149050        3.8510     1.06000     2.79095
    4          C          -0.448611        4.4486     1.06365     3.38496
    5          N          -0.047895        5.0479     1.57970     3.46819
    6          C          -0.191882        4.1919     1.09428     3.09760
    7          C          -0.057088        4.0571     1.10902     2.94807
    8          C          -0.004278        4.0043     1.08939     2.91489
    9          O          -0.503370        6.5034     1.85108     4.65229
   10          H           0.216140        0.7839     0.78386
   11          H           0.203848        0.7962     0.79615
   12          H           0.175764        0.8242     0.82424
   13          H           0.206461        0.7935     0.79354
   14          H           0.181786        0.8182     0.81821
   15          H           0.222890        0.7771     0.77711
   16          H           0.227586        0.7724     0.77241
   17          H           0.218809        0.7812     0.78119
   18          H           0.170462        0.8295     0.82954
   19          H           0.165871        0.8341     0.83413
   20          H           0.337715        0.6623     0.66228
 DIPOLE           X         Y         Z       TOTAL
 POINT-CHG.     1.896    -0.269    -3.563     4.045
 HYBRID        -0.089     0.368     0.061     0.384
 SUM            1.807     0.099    -3.502     3.942


          ATOMIC ORBITAL ELECTRON POPULATIONS

     Atom    s        px        py        pz   
    1  C   1.16134   0.85498   0.91891   1.02497
    2  C   1.07890   1.12041   1.09052   0.97321
    3  C   1.06000   0.71989   1.08012   0.99095
    4  C   1.06365   1.17953   1.02937   1.17607
    5  N   1.57970   1.10142   1.15512   1.21165
    6  C   1.09428   0.90569   1.17052   1.02139
    7  C   1.10902   0.82093   1.13112   0.99602
    8  C   1.08939   1.09702   1.01988   0.79798
    9  O   1.85108   1.52518   1.68462   1.44250
   10  H   0.78386
   11  H   0.79615
   12  H   0.82424
   13  H   0.79354
   14  H   0.81821
   15  H   0.77711
   16  H   0.77241
   17  H   0.78119
   18  H   0.82954
   19  H   0.83413
   20  H   0.66228


                    (SZ)    =    0.500000
                    (S**2)  =    0.764001


          ATOMIC ORBITAL SPIN POPULATIONS

    Atom   Total    s     px     py     pz   
         Atomic
    1  C -0.0122 -0.000 -0.009 -0.003  0.000
    2  C  0.0199  0.004  0.006  0.003  0.006
    3  C -0.0489 -0.004 -0.038 -0.002 -0.006
    4  C  0.0587  0.008  0.014  0.032  0.005
    5  N  0.9759  0.049  0.048  0.685  0.195
    6  C -0.0567 -0.005 -0.048  0.001 -0.004
    7  C -0.0660 -0.006 -0.055  0.000 -0.005
    8  C  0.0319  0.003  0.006  0.009  0.014
    9  O  0.0045  0.000  0.001  0.003  0.000
   10  H  0.0006  0.001
   11  H  0.0185  0.019
   12  H -0.0018 -0.002
   13  H -0.0011 -0.001
   14  H -0.0019 -0.002
   15  H  0.0277  0.028
   16  H  0.0271  0.027
   17  H  0.0250  0.025
   18  H -0.0008 -0.001
   19  H -0.0003 -0.000
   20  H -0.0001 -0.000

 **********************
 *                    *
 * JOB ENDED NORMALLY *
 *                    *
 **********************



 TOTAL JOB TIME:             1.41 SECONDS

 == MOPAC DONE ==
