 *******************************************************************************
 **                                                                           **
 **                              MOPAC v23.2                                  **
 **                                                                           **
 *******************************************************************************
 **          Digital Object Identifier (DOI): 10.5281/zenodo.6511958          **
 **    Visit the DOI location for information on how to cite this program.    **
 *******************************************************************************

                              PM7 CALCULATION RESULTS

 *******************************************************************************
 *  CALCULATION DONE: (MAX THREADS = 40)             Fri Sep 19 21:56:39 2025  *
 *  PM7        - The PM7 Hamiltonian to be used
 *  1SCF       - DO 1 SCF AND THEN STOP 
 *  T=         - A TIME OF 172800.0 SECONDS REQUESTED
 *  DUMP=N     - RESTART FILE WRITTEN EVERY 7200.0 SECONDS REQUESTED
 *  RELSCF     - DEFAULT SCF CRITERION MULTIPLIED BY 0.0001
 *              (DEFAULT SCF CRITERION = 0.00010)
 *  GRADIENTS  - ALL GRADIENTS TO BE PRINTED
 *  DISP       - PRINT DISPERSION AND HYDROGEN BOND ENERGIES
 *******************************************************************************
PM7 1SCF GRADIENTS DISP RELSCF=0.0001
 Title: ASE calculation

   ATOM   CHEMICAL          X               Y               Z
  NUMBER   SYMBOL      (ANGSTROMS)     (ANGSTROMS)     (ANGSTROMS)

     1       C         -2.65954274  *   1.42639251  *   0.54996093  *
     2       C         -2.03816816  *   0.05711386  *   0.27177066  *
     3       C         -0.53707448  *   0.19847790  *  -0.01453700  *
     4       C          0.11800759  *  -1.17010186  *  -0.23477113  *
     5       C          1.53356948  *  -1.05698847  *  -0.81443475  *
     6       C          2.57248045  *  -0.47129916  *   0.15337274  *
     7       O          2.25036124  *  -0.71881826  *   1.51167075  *
     8       C          2.66818425  *   1.06316316  *   0.07788829  *
     9       O          3.78675080  *   1.50212183  *   0.81808831  *
    10       H         -2.19964844  *   1.90300495  *   1.42320263  *
    11       H         -2.53089398  *   2.10515615  *  -0.30028632  *
    12       H         -3.73381087  *   1.34520948  *   0.74756243  *
    13       H         -2.54820142  *  -0.42226959  *  -0.58419386  *
    14       H         -2.20023396  *  -0.61455824  *   1.13552759  *
    15       H         -0.04427528  *   0.71123115  *   0.83640580  *
    16       H         -0.38537061  *   0.84317827  *  -0.89892694  *
    17       H          0.13177956  *  -1.72995950  *   0.71943589  *
    18       H         -0.50362235  *  -1.77559668  *  -0.92389721  *
    19       H          1.50627975  *  -0.45128750  *  -1.74200754  *
    20       H          1.86492481  *  -2.06354569  *  -1.13888485  *
    21       H          3.57782437  *  -0.92172465  *  -0.02573775  *
    22       H          2.04581636  *  -1.66139670  *   1.65582639  *
    23       H          1.76155815  *   1.55117267  *   0.47656890  *
    24       H          2.87639092  *   1.41988471  *  -0.94630806  *
    25       H          3.72563365  *   1.15822572  *   1.73743237  *



          CARTESIAN COORDINATES 

    NO.       ATOM           X           Y           Z

     1         C         -2.6595      1.4264      0.5500
     2         C         -2.0382      0.0571      0.2718
     3         C         -0.5371      0.1985     -0.0145
     4         C          0.1180     -1.1701     -0.2348
     5         C          1.5336     -1.0570     -0.8144
     6         C          2.5725     -0.4713      0.1534
     7         O          2.2504     -0.7188      1.5117
     8         C          2.6682      1.0632      0.0779
     9         O          3.7868      1.5021      0.8181
    10         H         -2.1996      1.9030      1.4232
    11         H         -2.5309      2.1052     -0.3003
    12         H         -3.7338      1.3452      0.7476
    13         H         -2.5482     -0.4223     -0.5842
    14         H         -2.2002     -0.6146      1.1355
    15         H         -0.0443      0.7112      0.8364
    16         H         -0.3854      0.8432     -0.8989
    17         H          0.1318     -1.7300      0.7194
    18         H         -0.5036     -1.7756     -0.9239
    19         H          1.5063     -0.4513     -1.7420
    20         H          1.8649     -2.0635     -1.1389
    21         H          3.5778     -0.9217     -0.0257
    22         H          2.0458     -1.6614      1.6558
    23         H          1.7616      1.5512      0.4766
    24         H          2.8764      1.4199     -0.9463
    25         H          3.7256      1.1582      1.7374

 General Reference for PM7:
 "Optimization of Parameters for Semiempirical Methods VI: More Modifications to the 
 NDDO Approximations and Re-optimization of Parameters", J. J. P. Stewart, J. Mol. Mod., 1:32, 19 (2013)
 https://link.springer.com/article/10.1007/s00894-012-1667-x

           Empirical Formula: C7 H16 O2  =    25 atoms



      MOLECULAR POINT GROUP   :   C1  


      RHF CALCULATION, NO. OF DOUBLY OCCUPIED LEVELS = 28

  SCF CRITERION =    0.1000E-07

 -------------------------------------------------------------------------------
 PM7 1SCF GRADIENTS DISP RELSCF=0.0001
 Title: ASE calculation



     1SCF WAS SPECIFIED, SO BFGS WAS NOT USED                 
     SCF FIELD WAS ACHIEVED                                   


                              PM7 CALCULATION
                                                       MOPAC v23.2 Linux
                                                       Fri Sep 19 21:56:39 2025




          FINAL HEAT OF FORMATION =       -122.54581 KCAL/MOL =    -512.73168 KJ/MOL

          TOTAL ENERGY            =     -38446.78973 KCAL/MOL = ELECTRONIC ENERGY + CORE-CORE REPULSION
          ENERGY OF ATOMS         =      38326.81232 KCAL/MOL
                              SUM =       -119.97741 KCAL/MOL
          DISPERSION ENERGY       =         -2.46398 KCAL/MOL
          H-BOND ENERGY           =         -0.10442 KCAL/MOL
                              SUM =       -122.54581 KCAL/MOL = FINAL HEAT OF FORMATION



          TOTAL ENERGY            =      -1667.21060 EV
          ELECTRONIC ENERGY       =      -8571.09267 EV 
          CORE-CORE REPULSION     =       6903.88207 EV
          COSMO AREA              =        187.30 SQUARE ANGSTROMS
          COSMO VOLUME            =        187.99 CUBIC ANGSTROMS

          GRADIENT NORM           =          1.31359          =       0.26272 PER ATOM
          IONIZATION POTENTIAL    =         10.361255 EV
          HOMO LUMO ENERGIES (EV) =        -10.361  2.570
          NO. OF FILLED LEVELS    =         28
          MOLECULAR WEIGHT        =        132.2022         POINT GROUP:  C1  

          MOLECULAR DIMENSIONS (Angstroms)

            Atom       Atom       Distance
            H    21    H    12     7.69396
            H    25    H    18     5.02401
            H    24    H    22     3.98214


          SCF CALCULATIONS        =          1

          WALL-CLOCK TIME         =      0.828 SECONDS
          COMPUTATION TIME        =      0.535 SECONDS

          LARGEST ATOMIC GRADIENTS

          Atom     Label                     Cartesian Gradients           Cartesian Coordinates       |Gradient|
                                           X          Y          Z        X          Y          Z

            24       H                   0.247      0.235     -0.230    2.87639    1.41988   -0.94631      0.411
            25       H                  -0.144      0.137      0.340    3.72563    1.15823    1.73743      0.393
             9       O                  -0.276     -0.246     -0.098    3.78675    1.50212    0.81809      0.383
            23       H                   0.165     -0.328     -0.103    1.76156    1.55117    0.47657      0.381
             7       O                   0.261      0.117      0.149    2.25036   -0.71882    1.51167      0.323
            18       H                   0.136     -0.172      0.224   -0.50362   -1.77560   -0.92390      0.314
            19       H                  -0.151      0.213     -0.163    1.50628   -0.45129   -1.74201      0.308
            14       H                  -0.263     -0.057     -0.091   -2.20023   -0.61456    1.13553      0.284
             4       C                   0.266      0.082      0.016    0.11801   -1.17010   -0.23477      0.279
             5       C                   0.077      0.243      0.065    1.53357   -1.05699   -0.81443      0.263



       FINAL  POINT  AND  DERIVATIVES

   PARAMETER     ATOM    TYPE            VALUE        GRADIENT
      1          1  C    CARTESIAN X    -2.659543      0.009475  KCAL/ANGSTROM
      2          1  C    CARTESIAN Y     1.426393     -0.039536  KCAL/ANGSTROM
      3          1  C    CARTESIAN Z     0.549961     -0.086928  KCAL/ANGSTROM
      4          2  C    CARTESIAN X    -2.038168      0.111994  KCAL/ANGSTROM
      5          2  C    CARTESIAN Y     0.057114     -0.059103  KCAL/ANGSTROM
      6          2  C    CARTESIAN Z     0.271771     -0.045857  KCAL/ANGSTROM
      7          3  C    CARTESIAN X    -0.537074      0.140714  KCAL/ANGSTROM
      8          3  C    CARTESIAN Y     0.198478     -0.114267  KCAL/ANGSTROM
      9          3  C    CARTESIAN Z    -0.014537      0.057997  KCAL/ANGSTROM
     10          4  C    CARTESIAN X     0.118008      0.266077  KCAL/ANGSTROM
     11          4  C    CARTESIAN Y    -1.170102      0.082246  KCAL/ANGSTROM
     12          4  C    CARTESIAN Z    -0.234771      0.015799  KCAL/ANGSTROM
     13          5  C    CARTESIAN X     1.533569      0.077145  KCAL/ANGSTROM
     14          5  C    CARTESIAN Y    -1.056988      0.242736  KCAL/ANGSTROM
     15          5  C    CARTESIAN Z    -0.814435      0.065285  KCAL/ANGSTROM
     16          6  C    CARTESIAN X     2.572480     -0.097087  KCAL/ANGSTROM
     17          6  C    CARTESIAN Y    -0.471299      0.108123  KCAL/ANGSTROM
     18          6  C    CARTESIAN Z     0.153373      0.068837  KCAL/ANGSTROM
     19          7  O    CARTESIAN X     2.250361      0.261077  KCAL/ANGSTROM
     20          7  O    CARTESIAN Y    -0.718818      0.117322  KCAL/ANGSTROM
     21          7  O    CARTESIAN Z     1.511671      0.149368  KCAL/ANGSTROM
     22          8  C    CARTESIAN X     2.668184     -0.067851  KCAL/ANGSTROM
     23          8  C    CARTESIAN Y     1.063163     -0.074861  KCAL/ANGSTROM
     24          8  C    CARTESIAN Z     0.077888     -0.210420  KCAL/ANGSTROM
     25          9  O    CARTESIAN X     3.786751     -0.276499  KCAL/ANGSTROM
     26          9  O    CARTESIAN Y     1.502122     -0.246374  KCAL/ANGSTROM
     27          9  O    CARTESIAN Z     0.818088     -0.098177  KCAL/ANGSTROM
     28         10  H    CARTESIAN X    -2.199648      0.015565  KCAL/ANGSTROM
     29         10  H    CARTESIAN Y     1.903005     -0.057088  KCAL/ANGSTROM
     30         10  H    CARTESIAN Z     1.423203     -0.247940  KCAL/ANGSTROM
     31         11  H    CARTESIAN X    -2.530894      0.122029  KCAL/ANGSTROM
     32         11  H    CARTESIAN Y     2.105156      0.059995  KCAL/ANGSTROM
     33         11  H    CARTESIAN Z    -0.300286      0.141104  KCAL/ANGSTROM
     34         12  H    CARTESIAN X    -3.733811     -0.026699  KCAL/ANGSTROM
     35         12  H    CARTESIAN Y     1.345209      0.228309  KCAL/ANGSTROM
     36         12  H    CARTESIAN Z     0.747562      0.046695  KCAL/ANGSTROM
     37         13  H    CARTESIAN X    -2.548201     -0.220422  KCAL/ANGSTROM
     38         13  H    CARTESIAN Y    -0.422270      0.074526  KCAL/ANGSTROM
     39         13  H    CARTESIAN Z    -0.584194      0.117737  KCAL/ANGSTROM
     40         14  H    CARTESIAN X    -2.200234     -0.263142  KCAL/ANGSTROM
     41         14  H    CARTESIAN Y    -0.614558     -0.057237  KCAL/ANGSTROM
     42         14  H    CARTESIAN Z     1.135528     -0.090682  KCAL/ANGSTROM
     43         15  H    CARTESIAN X    -0.044275     -0.117917  KCAL/ANGSTROM
     44         15  H    CARTESIAN Y     0.711231      0.018598  KCAL/ANGSTROM
     45         15  H    CARTESIAN Z     0.836406      0.207273  KCAL/ANGSTROM
     46         16  H    CARTESIAN X    -0.385371     -0.064373  KCAL/ANGSTROM
     47         16  H    CARTESIAN Y     0.843178     -0.243207  KCAL/ANGSTROM
     48         16  H    CARTESIAN Z    -0.898927      0.009058  KCAL/ANGSTROM
     49         17  H    CARTESIAN X     0.131780     -0.129289  KCAL/ANGSTROM
     50         17  H    CARTESIAN Y    -1.729960      0.023172  KCAL/ANGSTROM
     51         17  H    CARTESIAN Z     0.719436     -0.077064  KCAL/ANGSTROM
     52         18  H    CARTESIAN X    -0.503622      0.136399  KCAL/ANGSTROM
     53         18  H    CARTESIAN Y    -1.775597     -0.172111  KCAL/ANGSTROM
     54         18  H    CARTESIAN Z    -0.923897      0.223750  KCAL/ANGSTROM
     55         19  H    CARTESIAN X     1.506280     -0.150872  KCAL/ANGSTROM
     56         19  H    CARTESIAN Y    -0.451287      0.213385  KCAL/ANGSTROM
     57         19  H    CARTESIAN Z    -1.742008     -0.162801  KCAL/ANGSTROM
     58         20  H    CARTESIAN X     1.864925     -0.084129  KCAL/ANGSTROM
     59         20  H    CARTESIAN Y    -2.063546      0.052632  KCAL/ANGSTROM
     60         20  H    CARTESIAN Z    -1.138885     -0.076330  KCAL/ANGSTROM
     61         21  H    CARTESIAN X     3.577824     -0.028001  KCAL/ANGSTROM
     62         21  H    CARTESIAN Y    -0.921725     -0.000942  KCAL/ANGSTROM
     63         21  H    CARTESIAN Z    -0.025738     -0.001935  KCAL/ANGSTROM
     64         22  H    CARTESIAN X     2.045816      0.117286  KCAL/ANGSTROM
     65         22  H    CARTESIAN Y    -1.661397     -0.200134  KCAL/ANGSTROM
     66         22  H    CARTESIAN Z     1.655826     -0.011621  KCAL/ANGSTROM
     67         23  H    CARTESIAN X     1.761558      0.164567  KCAL/ANGSTROM
     68         23  H    CARTESIAN Y     1.551173     -0.327773  KCAL/ANGSTROM
     69         23  H    CARTESIAN Z     0.476569     -0.102872  KCAL/ANGSTROM
     70         24  H    CARTESIAN X     2.876391      0.247486  KCAL/ANGSTROM
     71         24  H    CARTESIAN Y     1.419885      0.234692  KCAL/ANGSTROM
     72         24  H    CARTESIAN Z    -0.946308     -0.230119  KCAL/ANGSTROM
     73         25  H    CARTESIAN X     3.725634     -0.143543  KCAL/ANGSTROM
     74         25  H    CARTESIAN Y     1.158226      0.136886  KCAL/ANGSTROM
     75         25  H    CARTESIAN Z     1.737432      0.339824  KCAL/ANGSTROM




   ATOM   CHEMICAL          X               Y               Z
  NUMBER   SYMBOL      (ANGSTROMS)     (ANGSTROMS)     (ANGSTROMS)

     1       C         -2.65954274  *   1.42639251  *   0.54996093  *
     2       C         -2.03816816  *   0.05711386  *   0.27177066  *
     3       C         -0.53707448  *   0.19847790  *  -0.01453700  *
     4       C          0.11800759  *  -1.17010186  *  -0.23477113  *
     5       C          1.53356948  *  -1.05698847  *  -0.81443475  *
     6       C          2.57248045  *  -0.47129916  *   0.15337274  *
     7       O          2.25036124  *  -0.71881826  *   1.51167075  *
     8       C          2.66818425  *   1.06316316  *   0.07788829  *
     9       O          3.78675080  *   1.50212183  *   0.81808831  *
    10       H         -2.19964844  *   1.90300495  *   1.42320263  *
    11       H         -2.53089398  *   2.10515615  *  -0.30028632  *
    12       H         -3.73381087  *   1.34520948  *   0.74756243  *
    13       H         -2.54820142  *  -0.42226959  *  -0.58419386  *
    14       H         -2.20023396  *  -0.61455824  *   1.13552759  *
    15       H         -0.04427528  *   0.71123115  *   0.83640580  *
    16       H         -0.38537061  *   0.84317827  *  -0.89892694  *
    17       H          0.13177956  *  -1.72995950  *   0.71943589  *
    18       H         -0.50362235  *  -1.77559668  *  -0.92389721  *
    19       H          1.50627975  *  -0.45128750  *  -1.74200754  *
    20       H          1.86492481  *  -2.06354569  *  -1.13888485  *
    21       H          3.57782437  *  -0.92172465  *  -0.02573775  *
    22       H          2.04581636  *  -1.66139670  *   1.65582639  *
    23       H          1.76155815  *   1.55117267  *   0.47656890  *
    24       H          2.87639092  *   1.41988471  *  -0.94630806  *
    25       H          3.72563365  *   1.15822572  *   1.73743237  *

                             CARTESIAN COORDINATES

   1    C       -2.659542736     1.426392506     0.549960931
   2    C       -2.038168155     0.057113857     0.271770663
   3    C       -0.537074476     0.198477902    -0.014537003
   4    C        0.118007593    -1.170101858    -0.234771134
   5    C        1.533569475    -1.056988467    -0.814434748
   6    C        2.572480454    -0.471299158     0.153372742
   7    O        2.250361244    -0.718818259     1.511670754
   8    C        2.668184246     1.063163163     0.077888291
   9    O        3.786750797     1.502121831     0.818088309
  10    H       -2.199648438     1.903004949     1.423202633
  11    H       -2.530893982     2.105156149    -0.300286322
  12    H       -3.733810865     1.345209482     0.747562429
  13    H       -2.548201420    -0.422269593    -0.584193859
  14    H       -2.200233964    -0.614558245     1.135527593
  15    H       -0.044275281     0.711231149     0.836405802
  16    H       -0.385370613     0.843178266    -0.898926941
  17    H        0.131779562    -1.729959504     0.719435887
  18    H       -0.503622348    -1.775596676    -0.923897207
  19    H        1.506279751    -0.451287498    -1.742007541
  20    H        1.864924811    -2.063545691    -1.138884851
  21    H        3.577824375    -0.921724654    -0.025737751
  22    H        2.045816364    -1.661396704     1.655826395
  23    H        1.761558153     1.551172674     0.476568897
  24    H        2.876390916     1.419884710    -0.946308060
  25    H        3.725633651     1.158225722     1.737432371


           Empirical Formula: C7 H16 O2  =    25 atoms



      MOLECULAR POINT GROUP   :   C1  


                  EIGENVALUES  
 -30.53402 -29.03881 -28.63307 -27.15342 -25.25239 -23.44810 -21.20796 -20.14320
 -19.77123 -17.80116 -16.97827 -16.37513 -15.67803 -15.55405 -14.65688 -14.32482
 -14.04138 -13.94334 -13.17265 -12.86722 -12.62936 -12.16533 -11.95906 -11.61932
 -11.52175 -11.21174 -10.75826 -10.36125   2.56961   3.07589   3.73195   3.83153
   3.93554   4.19914   4.45875   4.75268   5.23433   5.28964   5.46182   5.54461
   5.61666   5.83272   5.85539   5.90006   6.01962   6.13728   6.19845   6.41385
   6.47556   6.61337   6.74923   7.01459


              NET ATOMIC CHARGES AND DIPOLE CONTRIBUTIONS

  ATOM NO.   TYPE          CHARGE      No. of ELECS.   s-Pop       p-Pop       
    1          C          -0.438537        4.4385     1.05203     3.38651
    2          C          -0.252862        4.2529     1.05556     3.19730
    3          C          -0.270954        4.2710     1.06085     3.21010
    4          C          -0.253415        4.2534     1.05687     3.19654
    5          C          -0.340848        4.3408     1.06841     3.27244
    6          C           0.106762        3.8932     1.09679     2.79645
    7          O          -0.570876        6.5709     1.84745     4.72343
    8          C          -0.024927        4.0249     1.09189     2.93303
    9          O          -0.544585        6.5446     1.85226     4.69232
   10          H           0.145425        0.8546     0.85457
   11          H           0.141871        0.8581     0.85813
   12          H           0.140066        0.8599     0.85993
   13          H           0.131138        0.8689     0.86886
   14          H           0.134546        0.8655     0.86545
   15          H           0.150201        0.8498     0.84980
   16          H           0.134315        0.8657     0.86569
   17          H           0.136623        0.8634     0.86338
   18          H           0.134107        0.8659     0.86589
   19          H           0.151648        0.8484     0.84835
   20          H           0.141037        0.8590     0.85896
   21          H           0.127242        0.8728     0.87276
   22          H           0.320154        0.6798     0.67985
   23          H           0.132610        0.8674     0.86739
   24          H           0.140832        0.8592     0.85917
   25          H           0.328427        0.6716     0.67157
 DIPOLE           X         Y         Z       TOTAL
 POINT-CHG.    -1.634    -1.790    -1.613     2.912
 HYBRID        -0.033    -0.407     0.569     0.700
 SUM           -1.667    -2.197    -1.044     2.949


          ATOMIC ORBITAL ELECTRON POPULATIONS

     Atom    s        px        py        pz   
    1  C   1.05203   1.14746   1.06864   1.17041
    2  C   1.05556   1.01069   1.03687   1.14975
    3  C   1.06085   1.01036   1.03994   1.15980
    4  C   1.05687   1.00253   1.05727   1.13675
    5  C   1.06841   1.02933   1.15127   1.09184
    6  C   1.09679   1.01905   1.00139   0.77601
    7  O   1.84745   1.93542   1.42732   1.36069
    8  C   1.09189   0.93159   0.97169   1.02975
    9  O   1.85226   1.50574   1.79273   1.39385
   10  H   0.85457
   11  H   0.85813
   12  H   0.85993
   13  H   0.86886
   14  H   0.86545
   15  H   0.84980
   16  H   0.86569
   17  H   0.86338
   18  H   0.86589
   19  H   0.84835
   20  H   0.85896
   21  H   0.87276
   22  H   0.67985
   23  H   0.86739
   24  H   0.85917
   25  H   0.67157

 **********************
 *                    *
 * JOB ENDED NORMALLY *
 *                    *
 **********************



 TOTAL JOB TIME:             1.28 SECONDS

 == MOPAC DONE ==
