 *******************************************************************************
 **                                                                           **
 **                              MOPAC v23.2                                  **
 **                                                                           **
 *******************************************************************************
 **          Digital Object Identifier (DOI): 10.5281/zenodo.6511958          **
 **    Visit the DOI location for information on how to cite this program.    **
 *******************************************************************************

                              PM7 CALCULATION RESULTS

 *******************************************************************************
 *  CALCULATION DONE: (MAX THREADS = 40)             Fri Sep 19 21:31:50 2025  *
 *  PM7        - The PM7 Hamiltonian to be used
 *  EPS=37.5   - USE ANDREAS KLAMT'S COSMO IMPLICIT SOLVATION MODEL
 *  1SCF       - DO 1 SCF AND THEN STOP 
 *  T=         - A TIME OF 172800.0 SECONDS REQUESTED
 *  DUMP=N     - RESTART FILE WRITTEN EVERY 7200.0 SECONDS REQUESTED
 *  RELSCF     - DEFAULT SCF CRITERION MULTIPLIED BY 0.0001
 *              (DEFAULT SCF CRITERION = 0.00010)
 *  GRADIENTS  - ALL GRADIENTS TO BE PRINTED
 *  DISP       - PRINT DISPERSION AND HYDROGEN BOND ENERGIES
 *******************************************************************************
PM7 1SCF GRADIENTS EPS=37.5 DISP RELSCF=0.0001
 Title: ASE calculation

   ATOM   CHEMICAL          X               Y               Z
  NUMBER   SYMBOL      (ANGSTROMS)     (ANGSTROMS)     (ANGSTROMS)

     1       C         -3.26778173  *   1.72959262  *  -1.00776300  *
     2       C         -2.60742464  *   0.37443601  *  -0.75493758  *
     3       C         -1.82438846  *   0.39518639  *   0.56406830  *
     4       C         -1.29993532  *  -0.99239826  *   0.95056001  *
     5       C         -0.19584927  *  -1.49772519  *  -0.00313761  *
     6       C          0.93629501  *  -0.63273639  *   0.02513930  *
     7       C          1.94953559  *   0.15994115  *   0.05860611  *
     8       C          3.03817054  *   1.06527610  *   0.08972263  *
     9       O          2.91564517  *   2.24368933  *  -0.16534704  *
    10       H         -4.02668792  *   1.95283332  *  -0.25018138  *
    11       H         -2.53184765  *   2.54241748  *  -0.98732831  *
    12       H         -3.76081230  *   1.75692008  *  -1.98535327  *
    13       H         -1.93105323  *   0.12470550  *  -1.59401510  *
    14       H         -3.37340343  *  -0.42221054  *  -0.73356078  *
    15       H         -0.98245754  *   1.11256445  *   0.48852317  *
    16       H         -2.47066953  *   0.78162238  *   1.37594658  *
    17       H         -0.90524293  *  -0.96258192  *   1.98535327  *
    18       H         -2.13192080  *  -1.72168910  *   0.96408194  *
    19       H          0.08590663  *  -2.54241748  *   0.27320138  *
    20       H         -0.60533954  *  -1.57249277  *  -1.04151984  *
    21       H          4.02668792  *   0.65668146  *   0.36233366  *



          CARTESIAN COORDINATES 

    NO.       ATOM           X           Y           Z

     1         C         -3.2678      1.7296     -1.0078
     2         C         -2.6074      0.3744     -0.7549
     3         C         -1.8244      0.3952      0.5641
     4         C         -1.2999     -0.9924      0.9506
     5         C         -0.1958     -1.4977     -0.0031
     6         C          0.9363     -0.6327      0.0251
     7         C          1.9495      0.1599      0.0586
     8         C          3.0382      1.0653      0.0897
     9         O          2.9156      2.2437     -0.1653
    10         H         -4.0267      1.9528     -0.2502
    11         H         -2.5318      2.5424     -0.9873
    12         H         -3.7608      1.7569     -1.9854
    13         H         -1.9311      0.1247     -1.5940
    14         H         -3.3734     -0.4222     -0.7336
    15         H         -0.9825      1.1126      0.4885
    16         H         -2.4707      0.7816      1.3759
    17         H         -0.9052     -0.9626      1.9854
    18         H         -2.1319     -1.7217      0.9641
    19         H          0.0859     -2.5424      0.2732
    20         H         -0.6053     -1.5725     -1.0415
    21         H          4.0267      0.6567      0.3623

 General Reference for PM7:
 "Optimization of Parameters for Semiempirical Methods VI: More Modifications to the 
 NDDO Approximations and Re-optimization of Parameters", J. J. P. Stewart, J. Mol. Mod., 1:32, 19 (2013)
 https://link.springer.com/article/10.1007/s00894-012-1667-x

           Empirical Formula: C8 H12 O  =    21 atoms



      MOLECULAR POINT GROUP   :   C1  


      RHF CALCULATION, NO. OF DOUBLY OCCUPIED LEVELS = 25

  SCF CRITERION =    0.1000E-07

 -------------------------------------------------------------------------------
 PM7 1SCF GRADIENTS EPS=37.5 DISP RELSCF=0.0001
 Title: ASE calculation



     1SCF WAS SPECIFIED, SO BFGS WAS NOT USED                 
     SCF FIELD WAS ACHIEVED                                   


                              PM7 CALCULATION
                                                       MOPAC v23.2 Linux
                                                       Fri Sep 19 21:31:51 2025




          FINAL HEAT OF FORMATION =         -9.19816 KCAL/MOL =     -38.48512 KJ/MOL

          TOTAL ENERGY            =     -33179.24549 KCAL/MOL = ELECTRONIC ENERGY + CORE-CORE REPULSION + SOLVATION ENERGY
          ENERGY OF ATOMS         =      33167.45855 KCAL/MOL
                              SUM =        -11.78694 KCAL/MOL
          DISPERSION ENERGY       =         -2.01848 KCAL/MOL
                              SUM =        -13.80542 KCAL/MOL = FINAL HEAT OF FORMATION

     *    WARNING - An energy term is incorrect or missing!

     *    FINAL HEAT OF FORMATION     =     -9.19816 KCAL/MOL
     *    SUM OF CONTRIBUTIONS TO HoF =    -13.80542 KCAL/MOL
     *                     DIFFERENCE =      4.60725 KCAL/MOL

          VAN DER WAALS AREA      =        188.21 SQUARE ANGSTROMS


          TOTAL ENERGY            =      -1438.78826 EV
          ELECTRONIC ENERGY       =      -1921.87938 EV 
          CORE-CORE REPULSION     =        483.09112 EV

          DIELECTRIC ENERGY       =         -0.44157 EV
          COSMO AREA              =        188.21 SQUARE ANGSTROMS
          COSMO VOLUME            =        181.10 CUBIC ANGSTROMS

          GRADIENT NORM           =         28.82986          =       6.29119 PER ATOM
          IONIZATION POTENTIAL    =         10.562323 EV
          HOMO LUMO ENERGIES (EV) =        -10.562 -0.516
          NO. OF FILLED LEVELS    =         25
          MOLECULAR WEIGHT        =        124.1822         POINT GROUP:  C1  

          MOLECULAR DIMENSIONS (Angstroms)

            Atom       Atom       Distance
            H    21    H    12     8.20776
            O     9    H    19     5.23722
            H    20    H    16     3.28871


          SCF CALCULATIONS        =          2

          WALL-CLOCK TIME         =      1.055 SECONDS
          COMPUTATION TIME        =      0.343 SECONDS

          LARGEST ATOMIC GRADIENTS

          Atom     Label                     Cartesian Gradients           Cartesian Coordinates       |Gradient|
                                           X          Y          Z        X          Y          Z

             8       C                   3.841     19.544     -3.266    3.03817    1.06528    0.08972     20.184
             9       O                   1.817    -12.253      2.804    2.91565    2.24369   -0.16535     12.701
             7       C                  -7.206    -10.049      0.676    1.94954    0.15994    0.05861     12.384
             6       C                   5.835      4.945     -0.214    0.93630   -0.63274    0.02514      7.652
             5       C                  -1.970     -4.455     -1.750   -0.19585   -1.49773   -0.00314      5.176
            21       H                  -1.993     -0.721     -0.036    4.02669    0.65668    0.36233      2.119
             4       C                  -1.169     -1.477      0.613   -1.29994   -0.99240    0.95056      1.981
            20       H                   0.298      1.252      1.501   -0.60534   -1.57249   -1.04152      1.977
            19       H                  -0.148      1.811      0.318    0.08591   -2.54242    0.27320      1.845
             3       C                  -0.949     -0.113      0.686   -1.82439    0.39519    0.56407      1.176



       FINAL  POINT  AND  DERIVATIVES

   PARAMETER     ATOM    TYPE            VALUE        GRADIENT
      1          1  C    CARTESIAN X    -3.267782     -0.735670  KCAL/ANGSTROM
      2          1  C    CARTESIAN Y     1.729593      0.110787  KCAL/ANGSTROM
      3          1  C    CARTESIAN Z    -1.007763      0.111242  KCAL/ANGSTROM
      4          2  C    CARTESIAN X    -2.607425     -0.104325  KCAL/ANGSTROM
      5          2  C    CARTESIAN Y     0.374436     -1.081635  KCAL/ANGSTROM
      6          2  C    CARTESIAN Z    -0.754938     -0.281301  KCAL/ANGSTROM
      7          3  C    CARTESIAN X    -1.824388     -0.948566  KCAL/ANGSTROM
      8          3  C    CARTESIAN Y     0.395186     -0.112975  KCAL/ANGSTROM
      9          3  C    CARTESIAN Z     0.564068      0.686430  KCAL/ANGSTROM
     10          4  C    CARTESIAN X    -1.299935     -1.169249  KCAL/ANGSTROM
     11          4  C    CARTESIAN Y    -0.992398     -1.477133  KCAL/ANGSTROM
     12          4  C    CARTESIAN Z     0.950560      0.613311  KCAL/ANGSTROM
     13          5  C    CARTESIAN X    -0.195849     -1.970178  KCAL/ANGSTROM
     14          5  C    CARTESIAN Y    -1.497725     -4.455208  KCAL/ANGSTROM
     15          5  C    CARTESIAN Z    -0.003138     -1.750429  KCAL/ANGSTROM
     16          6  C    CARTESIAN X     0.936295      5.835144  KCAL/ANGSTROM
     17          6  C    CARTESIAN Y    -0.632736      4.945381  KCAL/ANGSTROM
     18          6  C    CARTESIAN Z     0.025139     -0.214361  KCAL/ANGSTROM
     19          7  C    CARTESIAN X     1.949536     -7.206045  KCAL/ANGSTROM
     20          7  C    CARTESIAN Y     0.159941    -10.048824  KCAL/ANGSTROM
     21          7  C    CARTESIAN Z     0.058606      0.676000  KCAL/ANGSTROM
     22          8  C    CARTESIAN X     3.038171      3.840707  KCAL/ANGSTROM
     23          8  C    CARTESIAN Y     1.065276     19.544459  KCAL/ANGSTROM
     24          8  C    CARTESIAN Z     0.089723     -3.265808  KCAL/ANGSTROM
     25          9  O    CARTESIAN X     2.915645      1.817468  KCAL/ANGSTROM
     26          9  O    CARTESIAN Y     2.243689    -12.253367  KCAL/ANGSTROM
     27          9  O    CARTESIAN Z    -0.165347      2.804027  KCAL/ANGSTROM
     28         10  H    CARTESIAN X    -4.026688      0.243006  KCAL/ANGSTROM
     29         10  H    CARTESIAN Y     1.952833     -0.430727  KCAL/ANGSTROM
     30         10  H    CARTESIAN Z    -0.250181     -0.258853  KCAL/ANGSTROM
     31         11  H    CARTESIAN X    -2.531848      0.263732  KCAL/ANGSTROM
     32         11  H    CARTESIAN Y     2.542417     -0.298603  KCAL/ANGSTROM
     33         11  H    CARTESIAN Z    -0.987328      0.099572  KCAL/ANGSTROM
     34         12  H    CARTESIAN X    -3.760812      0.369054  KCAL/ANGSTROM
     35         12  H    CARTESIAN Y     1.756920     -0.039436  KCAL/ANGSTROM
     36         12  H    CARTESIAN Z    -1.985353      0.321829  KCAL/ANGSTROM
     37         13  H    CARTESIAN X    -1.931053      0.031600  KCAL/ANGSTROM
     38         13  H    CARTESIAN Y     0.124706      0.821483  KCAL/ANGSTROM
     39         13  H    CARTESIAN Z    -1.594015      0.206227  KCAL/ANGSTROM
     40         14  H    CARTESIAN X    -3.373403      0.054158  KCAL/ANGSTROM
     41         14  H    CARTESIAN Y    -0.422211      0.680407  KCAL/ANGSTROM
     42         14  H    CARTESIAN Z    -0.733561      0.050554  KCAL/ANGSTROM
     43         15  H    CARTESIAN X    -0.982458      0.751677  KCAL/ANGSTROM
     44         15  H    CARTESIAN Y     1.112564      0.267050  KCAL/ANGSTROM
     45         15  H    CARTESIAN Z     0.488523     -0.324268  KCAL/ANGSTROM
     46         16  H    CARTESIAN X    -2.470670      0.322097  KCAL/ANGSTROM
     47         16  H    CARTESIAN Y     0.781622     -0.009513  KCAL/ANGSTROM
     48         16  H    CARTESIAN Z     1.375947     -0.468790  KCAL/ANGSTROM
     49         17  H    CARTESIAN X    -0.905243      0.303820  KCAL/ANGSTROM
     50         17  H    CARTESIAN Y    -0.962582      0.647261  KCAL/ANGSTROM
     51         17  H    CARTESIAN Z     1.985353     -0.755425  KCAL/ANGSTROM
     52         18  H    CARTESIAN X    -2.131921      0.144066  KCAL/ANGSTROM
     53         18  H    CARTESIAN Y    -1.721689      0.848959  KCAL/ANGSTROM
     54         18  H    CARTESIAN Z     0.964082     -0.033982  KCAL/ANGSTROM
     55         19  H    CARTESIAN X     0.085907     -0.148257  KCAL/ANGSTROM
     56         19  H    CARTESIAN Y    -2.542417      1.811074  KCAL/ANGSTROM
     57         19  H    CARTESIAN Z     0.273201      0.318474  KCAL/ANGSTROM
     58         20  H    CARTESIAN X    -0.605340      0.298318  KCAL/ANGSTROM
     59         20  H    CARTESIAN Y    -1.572493      1.252008  KCAL/ANGSTROM
     60         20  H    CARTESIAN Z    -1.041520      1.501254  KCAL/ANGSTROM
     61         21  H    CARTESIAN X     4.026688     -1.992562  KCAL/ANGSTROM
     62         21  H    CARTESIAN Y     0.656681     -0.721451  KCAL/ANGSTROM
     63         21  H    CARTESIAN Z     0.362334     -0.035704  KCAL/ANGSTROM




   ATOM   CHEMICAL          X               Y               Z
  NUMBER   SYMBOL      (ANGSTROMS)     (ANGSTROMS)     (ANGSTROMS)

     1       C         -3.26778173  *   1.72959262  *  -1.00776300  *
     2       C         -2.60742464  *   0.37443601  *  -0.75493758  *
     3       C         -1.82438846  *   0.39518639  *   0.56406830  *
     4       C         -1.29993532  *  -0.99239826  *   0.95056001  *
     5       C         -0.19584927  *  -1.49772519  *  -0.00313761  *
     6       C          0.93629501  *  -0.63273639  *   0.02513930  *
     7       C          1.94953559  *   0.15994115  *   0.05860611  *
     8       C          3.03817054  *   1.06527610  *   0.08972263  *
     9       O          2.91564517  *   2.24368933  *  -0.16534704  *
    10       H         -4.02668792  *   1.95283332  *  -0.25018138  *
    11       H         -2.53184765  *   2.54241748  *  -0.98732831  *
    12       H         -3.76081230  *   1.75692008  *  -1.98535327  *
    13       H         -1.93105323  *   0.12470550  *  -1.59401510  *
    14       H         -3.37340343  *  -0.42221054  *  -0.73356078  *
    15       H         -0.98245754  *   1.11256445  *   0.48852317  *
    16       H         -2.47066953  *   0.78162238  *   1.37594658  *
    17       H         -0.90524293  *  -0.96258192  *   1.98535327  *
    18       H         -2.13192080  *  -1.72168910  *   0.96408194  *
    19       H          0.08590663  *  -2.54241748  *   0.27320138  *
    20       H         -0.60533954  *  -1.57249277  *  -1.04151984  *
    21       H          4.02668792  *   0.65668146  *   0.36233366  *

                             CARTESIAN COORDINATES

   1    C       -3.267781733     1.729592621    -1.007763003
   2    C       -2.607424639     0.374436012    -0.754937582
   3    C       -1.824388464     0.395186391     0.564068300
   4    C       -1.299935322    -0.992398264     0.950560013
   5    C       -0.195849269    -1.497725191    -0.003137609
   6    C        0.936295007    -0.632736392     0.025139302
   7    C        1.949535587     0.159941152     0.058606112
   8    C        3.038170541     1.065276105     0.089722634
   9    O        2.915645167     2.243689329    -0.165347040
  10    H       -4.026687917     1.952833316    -0.250181380
  11    H       -2.531847651     2.542417478    -0.987328305
  12    H       -3.760812295     1.756920079    -1.985353267
  13    H       -1.931053230     0.124705502    -1.594015098
  14    H       -3.373403427    -0.422210544    -0.733560782
  15    H       -0.982457543     1.112564447     0.488523175
  16    H       -2.470669531     0.781622384     1.375946578
  17    H       -0.905242934    -0.962581923     1.985353267
  18    H       -2.131920796    -1.721689105     0.964081937
  19    H        0.085906625    -2.542417478     0.273201382
  20    H       -0.605339538    -1.572492774    -1.041519842
  21    H        4.026687917     0.656681457     0.362333663


           Empirical Formula: C8 H12 O  =    21 atoms



      MOLECULAR POINT GROUP   :   C1  


                  EIGENVALUES  
 -31.12561 -29.63346 -27.42468 -25.86722 -24.37877 -22.73941 -21.12466 -19.75743
 -17.69445 -16.57734 -16.11397 -15.76610 -15.30753 -14.82470 -14.52997 -14.20542
 -13.60316 -12.87056 -12.43387 -12.02779 -11.53482 -11.36257 -10.97113 -10.76373
 -10.56232  -0.51634   0.65888   1.72775   3.34491   3.74320   3.94716   4.26934
   4.45660   4.64015   4.69183   5.15831   5.23212   5.43274   5.51809   5.70559
   5.85452   5.91775   6.13114   6.26925   6.39821   6.61361   6.68396   7.07320


              NET ATOMIC CHARGES AND DIPOLE CONTRIBUTIONS

  ATOM NO.   TYPE          CHARGE      No. of ELECS.   s-Pop       p-Pop       
    1          C          -0.450617        4.4506     1.05299     3.39762
    2          C          -0.256396        4.2564     1.05563     3.20077
    3          C          -0.279241        4.2792     1.06072     3.21852
    4          C          -0.256359        4.2564     1.06101     3.19535
    5          C          -0.292919        4.2929     1.04701     3.24591
    6          C           0.153896        3.8461     1.14502     2.70109
    7          C          -0.370387        4.3704     1.11347     3.25692
    8          C           0.469284        3.5307     1.11296     2.41776
    9          O          -0.566895        6.5669     1.87511     4.69178
   10          H           0.145840        0.8542     0.85416
   11          H           0.150193        0.8498     0.84981
   12          H           0.145095        0.8549     0.85490
   13          H           0.137019        0.8630     0.86298
   14          H           0.137925        0.8621     0.86207
   15          H           0.144314        0.8557     0.85569
   16          H           0.146034        0.8540     0.85397
   17          H           0.150230        0.8498     0.84977
   18          H           0.153453        0.8465     0.84655
   19          H           0.191448        0.8086     0.80855
   20          H           0.197487        0.8025     0.80251
   21          H           0.150596        0.8494     0.84940
 DIPOLE           X         Y         Z       TOTAL
 POINT-CHG.    -2.255    -5.636     0.921     6.140
 HYBRID        -0.122     0.211    -0.141     0.281
 SUM           -2.377    -5.425     0.780     5.974


          ATOMIC ORBITAL ELECTRON POPULATIONS

     Atom    s        px        py        pz   
    1  C   1.05299   1.15323   1.07234   1.17205
    2  C   1.05563   1.10254   1.04406   1.05417
    3  C   1.06072   1.12048   1.03328   1.06476
    4  C   1.06101   1.06019   1.05545   1.07971
    5  C   1.04701   1.00231   1.09328   1.15031
    6  C   1.14502   0.93667   0.94591   0.81851
    7  C   1.11347   1.04138   1.05733   1.15821
    8  C   1.11296   0.96994   0.81054   0.63727
    9  O   1.87511   1.91894   1.30987   1.46297
   10  H   0.85416
   11  H   0.84981
   12  H   0.85490
   13  H   0.86298
   14  H   0.86207
   15  H   0.85569
   16  H   0.85397
   17  H   0.84977
   18  H   0.84655
   19  H   0.80855
   20  H   0.80251
   21  H   0.84940

 **********************
 *                    *
 * JOB ENDED NORMALLY *
 *                    *
 **********************



 TOTAL JOB TIME:             1.45 SECONDS

 == MOPAC DONE ==
