 *******************************************************************************
 **                                                                           **
 **                              MOPAC v23.2                                  **
 **                                                                           **
 *******************************************************************************
 **          Digital Object Identifier (DOI): 10.5281/zenodo.6511958          **
 **    Visit the DOI location for information on how to cite this program.    **
 *******************************************************************************

                              PM7 CALCULATION RESULTS

 *******************************************************************************
 *  CALCULATION DONE: (MAX THREADS = 40)             Fri Sep 19 21:33:04 2025  *
 *  PM7        - The PM7 Hamiltonian to be used
 *
 *
 *
 *                 CHARGE ON SYSTEM = +1
 *
 *
 *
 *  1SCF       - DO 1 SCF AND THEN STOP 
 *  T=         - A TIME OF 172800.0 SECONDS REQUESTED
 *  DUMP=N     - RESTART FILE WRITTEN EVERY 7200.0 SECONDS REQUESTED
 *  RELSCF     - DEFAULT SCF CRITERION MULTIPLIED BY 0.0001
 *              (DEFAULT SCF CRITERION = 0.00010)
 *  GRADIENTS  - ALL GRADIENTS TO BE PRINTED
 *  DISP       - PRINT DISPERSION AND HYDROGEN BOND ENERGIES
 *******************************************************************************
PM7 1SCF GRADIENTS DISP RELSCF=0.0001 CHARGE=1
 Title: ASE calculation

   ATOM   CHEMICAL          X               Y               Z
  NUMBER   SYMBOL      (ANGSTROMS)     (ANGSTROMS)     (ANGSTROMS)

     1       C          3.38745012  *  -0.48026090  *   0.75919882  *
     2       C          1.94912823  *  -0.96714747  *   0.61596807  *
     3       C          1.02884601  *   0.19379997  *   0.17001846  *
     4       C         -0.34397653  *  -0.25329415  *   0.07939044  *
     5       C         -1.19057334  *  -0.66206391  *  -1.07418891  *
     6       C         -2.41742237  *  -0.90124500  *  -0.01279294  *
     7       C         -1.39048242  *  -0.52638508  *   1.10649362  *
     8       C         -3.45187200  *   0.01960157  *  -0.36528331  *
     9       C         -3.47136829  *   1.40432438  *   0.02435847  *
    10       H          3.47682195  *   0.32103869  *   1.50265280  *
    11       H          4.04981795  *  -1.29555022  *   1.08243932  *
    12       H          3.78600628  *  -0.09807656  *  -0.18832052  *
    13       H          1.89645384  *  -1.79370000  *  -0.11806800  *
    14       H          1.59129334  *  -1.38693055  *   1.57476614  *
    15       H          1.13108714  *   1.03480308  *   0.89599401  *
    16       H          1.39787839  *   0.59968010  *  -0.79876087  *
    17       H         -1.36174323  *   0.09015240  *  -1.85003235  *
    18       H         -0.90398329  *  -1.61065458  *  -1.55926290  *
    19       H         -2.71457472  *  -1.97164317  *   0.01031236  *
    20       H         -1.15218594  *  -1.37311219  *   1.77819254  *
    21       H         -1.66621156  *   0.31514823  *   1.75337652  *
    22       H         -4.27605089  *  -0.35013989  *  -1.01392845  *
    23       H         -3.53610172  *   1.54726236  *   1.13755746  *
    24       H         -4.29167270  *   2.01424523  *  -0.40991618  *
    25       H         -2.51215389  *   1.94388614  *  -0.19528801  *



          CARTESIAN COORDINATES 

    NO.       ATOM           X           Y           Z

     1         C          3.3875     -0.4803      0.7592
     2         C          1.9491     -0.9671      0.6160
     3         C          1.0288      0.1938      0.1700
     4         C         -0.3440     -0.2533      0.0794
     5         C         -1.1906     -0.6621     -1.0742
     6         C         -2.4174     -0.9012     -0.0128
     7         C         -1.3905     -0.5264      1.1065
     8         C         -3.4519      0.0196     -0.3653
     9         C         -3.4714      1.4043      0.0244
    10         H          3.4768      0.3210      1.5027
    11         H          4.0498     -1.2956      1.0824
    12         H          3.7860     -0.0981     -0.1883
    13         H          1.8965     -1.7937     -0.1181
    14         H          1.5913     -1.3869      1.5748
    15         H          1.1311      1.0348      0.8960
    16         H          1.3979      0.5997     -0.7988
    17         H         -1.3617      0.0902     -1.8500
    18         H         -0.9040     -1.6107     -1.5593
    19         H         -2.7146     -1.9716      0.0103
    20         H         -1.1522     -1.3731      1.7782
    21         H         -1.6662      0.3151      1.7534
    22         H         -4.2761     -0.3501     -1.0139
    23         H         -3.5361      1.5473      1.1376
    24         H         -4.2917      2.0142     -0.4099
    25         H         -2.5122      1.9439     -0.1953

 General Reference for PM7:
 "Optimization of Parameters for Semiempirical Methods VI: More Modifications to the 
 NDDO Approximations and Re-optimization of Parameters", J. J. P. Stewart, J. Mol. Mod., 1:32, 19 (2013)
 https://link.springer.com/article/10.1007/s00894-012-1667-x

           Empirical Formula: C9 H16  =    25 atoms



      MOLECULAR POINT GROUP   :   C1  


          UHF CALCULATION, NO. OF ALPHA ELECTRONS =   26
                           NO. OF BETA  ELECTRONS =   25
  SCF CRITERION =    0.1000E-07

 -------------------------------------------------------------------------------
 PM7 1SCF GRADIENTS DISP RELSCF=0.0001 CHARGE=1
 Title: ASE calculation



     1SCF WAS SPECIFIED, SO BFGS WAS NOT USED                 
     SCF FIELD WAS ACHIEVED                                   


                              PM7 CALCULATION
                                                       MOPAC v23.2 Linux
                                                       Fri Sep 19 21:33:05 2025




          FINAL HEAT OF FORMATION =        205.47396 KCAL/MOL =     859.70304 KJ/MOL

          TOTAL ENERGY            =     -30259.27961 KCAL/MOL = ELECTRONIC ENERGY + CORE-CORE REPULSION
          ENERGY OF ATOMS         =      30467.18356 KCAL/MOL
                              SUM =        207.90395 KCAL/MOL
          DISPERSION ENERGY       =         -2.42999 KCAL/MOL
                              SUM =        205.47396 KCAL/MOL = FINAL HEAT OF FORMATION



          TOTAL ENERGY            =      -1312.16656 EV
          ELECTRONIC ENERGY       =      -7291.12931 EV 
          CORE-CORE REPULSION     =       5978.96276 EV
          COSMO AREA              =        189.64 SQUARE ANGSTROMS
          COSMO VOLUME            =        192.10 CUBIC ANGSTROMS

          GRADIENT NORM           =          1.33775          =       0.26755 PER ATOM
          IONIZATION POTENTIAL    =         12.553070 EV
          ALPHA SOMO LUMO (EV)    =        -12.553 -6.807
          BETA  SOMO LUMO (EV)    =        -14.259 -6.796
          NO. OF ALPHA ELECTRONS  =         26
          NO. OF BETA  ELECTRONS  =         25
          MOLECULAR WEIGHT        =        124.2254         POINT GROUP:  C1  

          MOLECULAR DIMENSIONS (Angstroms)

            Atom       Atom       Distance
            H    24    H    11     9.09738
            H    10    H    19     4.46461
            H    20    H    17     3.61139


          SCF CALCULATIONS        =          1

          WALL-CLOCK TIME         =      1.156 SECONDS
          COMPUTATION TIME        =      1.204 SECONDS

          LARGEST ATOMIC GRADIENTS

          Atom     Label                     Cartesian Gradients           Cartesian Coordinates       |Gradient|
                                           X          Y          Z        X          Y          Z

            23       H                   0.406      0.051      0.163   -3.53610    1.54726    1.13756      0.440
             8       C                  -0.075      0.019      0.417   -3.45187    0.01960   -0.36528      0.424
             9       C                   0.361      0.114     -0.124   -3.47137    1.40432    0.02436      0.398
            25       H                   0.095     -0.156     -0.342   -2.51215    1.94389   -0.19529      0.388
             5       C                  -0.267     -0.174     -0.169   -1.19057   -0.66206   -1.07419      0.361
             6       C                   0.113     -0.036     -0.332   -2.41742   -0.90124   -0.01279      0.352
            24       H                  -0.313      0.058     -0.053   -4.29167    2.01425   -0.40992      0.323
            18       H                   0.188      0.221     -0.106   -0.90398   -1.61065   -1.55926      0.309
            15       H                  -0.091      0.282      0.067    1.13109    1.03480    0.89599      0.303
             2       C                   0.270      0.065     -0.061    1.94913   -0.96715    0.61597      0.285



       FINAL  POINT  AND  DERIVATIVES

   PARAMETER     ATOM    TYPE            VALUE        GRADIENT
      1          1  C    CARTESIAN X     3.387450      0.194979  KCAL/ANGSTROM
      2          1  C    CARTESIAN Y    -0.480261      0.012422  KCAL/ANGSTROM
      3          1  C    CARTESIAN Z     0.759199      0.080378  KCAL/ANGSTROM
      4          2  C    CARTESIAN X     1.949128      0.270325  KCAL/ANGSTROM
      5          2  C    CARTESIAN Y    -0.967147      0.064869  KCAL/ANGSTROM
      6          2  C    CARTESIAN Z     0.615968     -0.060906  KCAL/ANGSTROM
      7          3  C    CARTESIAN X     1.028846     -0.007266  KCAL/ANGSTROM
      8          3  C    CARTESIAN Y     0.193800     -0.025488  KCAL/ANGSTROM
      9          3  C    CARTESIAN Z     0.170018      0.090877  KCAL/ANGSTROM
     10          4  C    CARTESIAN X    -0.343977     -0.165306  KCAL/ANGSTROM
     11          4  C    CARTESIAN Y    -0.253294     -0.075808  KCAL/ANGSTROM
     12          4  C    CARTESIAN Z     0.079390     -0.062955  KCAL/ANGSTROM
     13          5  C    CARTESIAN X    -1.190573     -0.266735  KCAL/ANGSTROM
     14          5  C    CARTESIAN Y    -0.662064     -0.174071  KCAL/ANGSTROM
     15          5  C    CARTESIAN Z    -1.074189     -0.169213  KCAL/ANGSTROM
     16          6  C    CARTESIAN X    -2.417422      0.113408  KCAL/ANGSTROM
     17          6  C    CARTESIAN Y    -0.901245     -0.036398  KCAL/ANGSTROM
     18          6  C    CARTESIAN Z    -0.012793     -0.331681  KCAL/ANGSTROM
     19          7  C    CARTESIAN X    -1.390482      0.003547  KCAL/ANGSTROM
     20          7  C    CARTESIAN Y    -0.526385     -0.024877  KCAL/ANGSTROM
     21          7  C    CARTESIAN Z     1.106494      0.159032  KCAL/ANGSTROM
     22          8  C    CARTESIAN X    -3.451872     -0.075047  KCAL/ANGSTROM
     23          8  C    CARTESIAN Y     0.019602      0.018995  KCAL/ANGSTROM
     24          8  C    CARTESIAN Z    -0.365283      0.417268  KCAL/ANGSTROM
     25          9  C    CARTESIAN X    -3.471368      0.361011  KCAL/ANGSTROM
     26          9  C    CARTESIAN Y     1.404324      0.114094  KCAL/ANGSTROM
     27          9  C    CARTESIAN Z     0.024358     -0.123661  KCAL/ANGSTROM
     28         10  H    CARTESIAN X     3.476822     -0.025783  KCAL/ANGSTROM
     29         10  H    CARTESIAN Y     0.321039      0.008083  KCAL/ANGSTROM
     30         10  H    CARTESIAN Z     1.502653     -0.064062  KCAL/ANGSTROM
     31         11  H    CARTESIAN X     4.049818     -0.079347  KCAL/ANGSTROM
     32         11  H    CARTESIAN Y    -1.295550      0.109187  KCAL/ANGSTROM
     33         11  H    CARTESIAN Z     1.082439     -0.010925  KCAL/ANGSTROM
     34         12  H    CARTESIAN X     3.786006     -0.088285  KCAL/ANGSTROM
     35         12  H    CARTESIAN Y    -0.098077     -0.061715  KCAL/ANGSTROM
     36         12  H    CARTESIAN Z    -0.188321      0.144869  KCAL/ANGSTROM
     37         13  H    CARTESIAN X     1.896454     -0.030249  KCAL/ANGSTROM
     38         13  H    CARTESIAN Y    -1.793700     -0.184097  KCAL/ANGSTROM
     39         13  H    CARTESIAN Z    -0.118068      0.098354  KCAL/ANGSTROM
     40         14  H    CARTESIAN X     1.591293      0.031936  KCAL/ANGSTROM
     41         14  H    CARTESIAN Y    -1.386931     -0.085994  KCAL/ANGSTROM
     42         14  H    CARTESIAN Z     1.574766     -0.223335  KCAL/ANGSTROM
     43         15  H    CARTESIAN X     1.131087     -0.090982  KCAL/ANGSTROM
     44         15  H    CARTESIAN Y     1.034803      0.281557  KCAL/ANGSTROM
     45         15  H    CARTESIAN Z     0.895994      0.067150  KCAL/ANGSTROM
     46         16  H    CARTESIAN X     1.397878     -0.059129  KCAL/ANGSTROM
     47         16  H    CARTESIAN Y     0.599680      0.065949  KCAL/ANGSTROM
     48         16  H    CARTESIAN Z    -0.798761     -0.031941  KCAL/ANGSTROM
     49         17  H    CARTESIAN X    -1.361743      0.083076  KCAL/ANGSTROM
     50         17  H    CARTESIAN Y     0.090152     -0.055146  KCAL/ANGSTROM
     51         17  H    CARTESIAN Z    -1.850032      0.183988  KCAL/ANGSTROM
     52         18  H    CARTESIAN X    -0.903983      0.188209  KCAL/ANGSTROM
     53         18  H    CARTESIAN Y    -1.610655      0.220832  KCAL/ANGSTROM
     54         18  H    CARTESIAN Z    -1.559263     -0.105584  KCAL/ANGSTROM
     55         19  H    CARTESIAN X    -2.714575     -0.077950  KCAL/ANGSTROM
     56         19  H    CARTESIAN Y    -1.971643      0.103454  KCAL/ANGSTROM
     57         19  H    CARTESIAN Z     0.010312     -0.063614  KCAL/ANGSTROM
     58         20  H    CARTESIAN X    -1.152186     -0.150870  KCAL/ANGSTROM
     59         20  H    CARTESIAN Y    -1.373112     -0.010063  KCAL/ANGSTROM
     60         20  H    CARTESIAN Z     1.778193      0.019416  KCAL/ANGSTROM
     61         21  H    CARTESIAN X    -1.666212     -0.226353  KCAL/ANGSTROM
     62         21  H    CARTESIAN Y     0.315148     -0.116136  KCAL/ANGSTROM
     63         21  H    CARTESIAN Z     1.753377      0.117574  KCAL/ANGSTROM
     64         22  H    CARTESIAN X    -4.276051     -0.090344  KCAL/ANGSTROM
     65         22  H    CARTESIAN Y    -0.350140     -0.102915  KCAL/ANGSTROM
     66         22  H    CARTESIAN Z    -1.013928      0.100780  KCAL/ANGSTROM
     67         23  H    CARTESIAN X    -3.536102      0.405668  KCAL/ANGSTROM
     68         23  H    CARTESIAN Y     1.547262      0.051128  KCAL/ANGSTROM
     69         23  H    CARTESIAN Z     1.137557      0.163436  KCAL/ANGSTROM
     70         24  H    CARTESIAN X    -4.291673     -0.313189  KCAL/ANGSTROM
     71         24  H    CARTESIAN Y     2.014245      0.058456  KCAL/ANGSTROM
     72         24  H    CARTESIAN Z    -0.409916     -0.052758  KCAL/ANGSTROM
     73         25  H    CARTESIAN X    -2.512154      0.094675  KCAL/ANGSTROM
     74         25  H    CARTESIAN Y     1.943886     -0.156323  KCAL/ANGSTROM
     75         25  H    CARTESIAN Z    -0.195288     -0.342491  KCAL/ANGSTROM




   ATOM   CHEMICAL          X               Y               Z
  NUMBER   SYMBOL      (ANGSTROMS)     (ANGSTROMS)     (ANGSTROMS)

     1       C          3.38745012  *  -0.48026090  *   0.75919882  *
     2       C          1.94912823  *  -0.96714747  *   0.61596807  *
     3       C          1.02884601  *   0.19379997  *   0.17001846  *
     4       C         -0.34397653  *  -0.25329415  *   0.07939044  *
     5       C         -1.19057334  *  -0.66206391  *  -1.07418891  *
     6       C         -2.41742237  *  -0.90124500  *  -0.01279294  *
     7       C         -1.39048242  *  -0.52638508  *   1.10649362  *
     8       C         -3.45187200  *   0.01960157  *  -0.36528331  *
     9       C         -3.47136829  *   1.40432438  *   0.02435847  *
    10       H          3.47682195  *   0.32103869  *   1.50265280  *
    11       H          4.04981795  *  -1.29555022  *   1.08243932  *
    12       H          3.78600628  *  -0.09807656  *  -0.18832052  *
    13       H          1.89645384  *  -1.79370000  *  -0.11806800  *
    14       H          1.59129334  *  -1.38693055  *   1.57476614  *
    15       H          1.13108714  *   1.03480308  *   0.89599401  *
    16       H          1.39787839  *   0.59968010  *  -0.79876087  *
    17       H         -1.36174323  *   0.09015240  *  -1.85003235  *
    18       H         -0.90398329  *  -1.61065458  *  -1.55926290  *
    19       H         -2.71457472  *  -1.97164317  *   0.01031236  *
    20       H         -1.15218594  *  -1.37311219  *   1.77819254  *
    21       H         -1.66621156  *   0.31514823  *   1.75337652  *
    22       H         -4.27605089  *  -0.35013989  *  -1.01392845  *
    23       H         -3.53610172  *   1.54726236  *   1.13755746  *
    24       H         -4.29167270  *   2.01424523  *  -0.40991618  *
    25       H         -2.51215389  *   1.94388614  *  -0.19528801  *

                             CARTESIAN COORDINATES

   1    C        3.387450120    -0.480260901     0.759198821
   2    C        1.949128233    -0.967147467     0.615968066
   3    C        1.028846008     0.193799974     0.170018457
   4    C       -0.343976533    -0.253294145     0.079390436
   5    C       -1.190573343    -0.662063906    -1.074188910
   6    C       -2.417422366    -0.901244997    -0.012792942
   7    C       -1.390482418    -0.526385077     1.106493616
   8    C       -3.451871998     0.019601573    -0.365283308
   9    C       -3.471368288     1.404324380     0.024358467
  10    H        3.476821950     0.321038686     1.502652805
  11    H        4.049817954    -1.295550223     1.082439324
  12    H        3.786006282    -0.098076559    -0.188320520
  13    H        1.896453837    -1.793699997    -0.118068000
  14    H        1.591293340    -1.386930549     1.574766145
  15    H        1.131087144     1.034803081     0.895994006
  16    H        1.397878388     0.599680104    -0.798760865
  17    H       -1.361743227     0.090152402    -1.850032349
  18    H       -0.903983288    -1.610654577    -1.559262895
  19    H       -2.714574715    -1.971643168     0.010312358
  20    H       -1.152185943    -1.373112191     1.778192538
  21    H       -1.666211561     0.315148226     1.753376524
  22    H       -4.276050894    -0.350139892    -1.013928451
  23    H       -3.536101719     1.547262356     1.137557459
  24    H       -4.291672698     2.014245234    -0.409916183
  25    H       -2.512153889     1.943886135    -0.195288006


           Empirical Formula: C9 H16  =    25 atoms



      MOLECULAR POINT GROUP   :   C1  


          ALPHA EIGENVALUES  
 -36.13476 -32.90451 -31.30896 -28.84588 -27.99976 -27.08886 -24.06238 -23.31986
 -22.47268 -22.09468 -20.54791 -20.25291 -19.53552 -19.23124 -18.68212 -18.12618
 -17.88355 -17.72855 -17.05384 -16.76084 -16.62138 -15.52333 -15.29458 -14.93730
 -14.27225 -12.55307  -6.80698  -2.42742  -1.95977  -1.55380  -1.43663  -0.73335
  -0.50658  -0.24429   0.19293   0.50770   0.61869   0.82012   0.94008   1.17368
   1.30879   1.36237   1.51115   1.87147   2.04383   2.30839   2.91911   3.24756
   3.40784   3.50956   3.73800   4.55752


           BETA EIGENVALUES 
 -36.07556 -32.82925 -31.26578 -28.79642 -27.92914 -27.03766 -24.00549 -23.24600
 -22.42637 -21.93691 -20.48841 -20.18031 -19.43344 -19.18209 -18.59292 -18.03923
 -17.71192 -17.62559 -16.96221 -16.69862 -16.54424 -15.47776 -15.21637 -14.80146
 -14.25943  -6.79592  -3.32692  -2.42406  -1.95232  -1.54995  -1.41868  -0.71787
  -0.24649  -0.23838   0.19727   0.64122   0.82419   0.94510   1.03943   1.18856
   1.39605   1.52626   1.57429   1.92159   2.09468   2.34216   2.92709   3.27586
   3.41814   3.51214   3.74249   4.55850


              NET ATOMIC CHARGES AND DIPOLE CONTRIBUTIONS

  ATOM NO.   TYPE          CHARGE      No. of ELECS.   s-Pop       p-Pop       
    1          C          -0.436696        4.4367     1.05193     3.38477
    2          C          -0.227597        4.2276     1.05697     3.17062
    3          C          -0.291935        4.2919     1.04966     3.24228
    4          C          -0.071237        4.0712     1.09510     2.97614
    5          C          -0.179076        4.1791     1.08805     3.09103
    6          C          -0.310341        4.3103     1.08978     3.22057
    7          C          -0.248211        4.2482     1.06640     3.18181
    8          C           0.397825        3.6022     1.18529     2.41688
    9          C          -0.564476        4.5645     1.06021     3.50426
   10          H           0.151627        0.8484     0.84837
   11          H           0.162168        0.8378     0.83783
   12          H           0.152801        0.8472     0.84720
   13          H           0.141094        0.8589     0.85891
   14          H           0.138874        0.8611     0.86113
   15          H           0.171579        0.8284     0.82842
   16          H           0.168454        0.8315     0.83155
   17          H           0.163137        0.8369     0.83686
   18          H           0.195132        0.8049     0.80487
   19          H           0.216573        0.7834     0.78343
   20          H           0.193074        0.8069     0.80693
   21          H           0.166341        0.8337     0.83366
   22          H           0.180594        0.8194     0.81941
   23          H           0.256651        0.7433     0.74335
   24          H           0.222128        0.7779     0.77787
   25          H           0.251514        0.7485     0.74849
 DIPOLE           X         Y         Z       TOTAL
 POINT-CHG.    -8.466     1.677    -1.556     8.770
 HYBRID        -0.735     0.020    -0.081     0.740
 SUM           -9.201     1.696    -1.637     9.498


          ATOMIC ORBITAL ELECTRON POPULATIONS

     Atom    s        px        py        pz   
    1  C   1.05193   1.02943   1.17222   1.18311
    2  C   1.05697   0.99383   1.02900   1.14779
    3  C   1.04966   0.96939   1.09126   1.18162
    4  C   1.09510   0.98167   1.06630   0.92817
    5  C   1.08805   0.89900   1.17436   1.01767
    6  C   1.08978   1.00455   1.11823   1.09778
    7  C   1.06640   0.99002   1.17436   1.01744
    8  C   1.18529   0.84068   0.96037   0.61582
    9  C   1.06021   1.24532   1.04313   1.21581
   10  H   0.84837
   11  H   0.83783
   12  H   0.84720
   13  H   0.85891
   14  H   0.86113
   15  H   0.82842
   16  H   0.83155
   17  H   0.83686
   18  H   0.80487
   19  H   0.78343
   20  H   0.80693
   21  H   0.83366
   22  H   0.81941
   23  H   0.74335
   24  H   0.77787
   25  H   0.74849


                    (SZ)    =    0.500000
                    (S**2)  =    0.754264


          ATOMIC ORBITAL SPIN POPULATIONS

    Atom   Total    s     px     py     pz   
         Atomic
    1  C  0.0000 -0.000  0.001 -0.000  0.000
    2  C  0.0498  0.008  0.017  0.020  0.005
    3  C -0.0448 -0.006 -0.027 -0.007 -0.005
    4  C  0.9715  0.028  0.117  0.785  0.042
    5  C -0.0473 -0.007 -0.017 -0.007 -0.017
    6  C  0.0051  0.001  0.002  0.001  0.002
    7  C -0.0450 -0.006 -0.019 -0.006 -0.014
    8  C  0.0052 -0.000  0.000  0.001  0.004
    9  C -0.0003 -0.000 -0.000 -0.000 -0.000
   10  H  0.0001  0.000
   11  H  0.0010  0.001
   12  H  0.0001  0.000
   13  H -0.0016 -0.002
   14  H -0.0015 -0.002
   15  H  0.0172  0.017
   16  H  0.0049  0.005
   17  H  0.0197  0.020
   18  H  0.0218  0.022
   19  H -0.0001 -0.000
   20  H  0.0242  0.024
   21  H  0.0197  0.020
   22  H -0.0001 -0.000
   23  H  0.0002  0.000
   24  H  0.0000  0.000
   25  H  0.0002  0.000

 **********************
 *                    *
 * JOB ENDED NORMALLY *
 *                    *
 **********************



 TOTAL JOB TIME:             1.31 SECONDS

 == MOPAC DONE ==
