 *******************************************************************************
 **                                                                           **
 **                              MOPAC v23.2                                  **
 **                                                                           **
 *******************************************************************************
 **          Digital Object Identifier (DOI): 10.5281/zenodo.6511958          **
 **    Visit the DOI location for information on how to cite this program.    **
 *******************************************************************************

                              PM7 CALCULATION RESULTS

 *******************************************************************************
 *  CALCULATION DONE: (MAX THREADS = 40)             Fri Sep 19 21:39:39 2025  *
 *  PM7        - The PM7 Hamiltonian to be used
 *
 *
 *
 *                 CHARGE ON SYSTEM = +1
 *
 *
 *
 *  1SCF       - DO 1 SCF AND THEN STOP 
 *  T=         - A TIME OF 172800.0 SECONDS REQUESTED
 *  DUMP=N     - RESTART FILE WRITTEN EVERY 7200.0 SECONDS REQUESTED
 *  RELSCF     - DEFAULT SCF CRITERION MULTIPLIED BY 0.0001
 *              (DEFAULT SCF CRITERION = 0.00010)
 *  GRADIENTS  - ALL GRADIENTS TO BE PRINTED
 *  DISP       - PRINT DISPERSION AND HYDROGEN BOND ENERGIES
 *******************************************************************************
PM7 1SCF GRADIENTS DISP RELSCF=0.0001 CHARGE=1
 Title: ASE calculation

   ATOM   CHEMICAL          X               Y               Z
  NUMBER   SYMBOL      (ANGSTROMS)     (ANGSTROMS)     (ANGSTROMS)

     1       C         -2.37932128  *  -0.55436491  *   0.99102009  *
     2       O         -1.07058618  *  -0.03958852  *   1.16529716  *
     3       C         -0.26264812  *   0.10339608  *   0.03301063  *
     4       C         -0.92146318  *   0.84710564  *  -1.13927378  *
     5       O         -0.82354102  *   2.22831443  *  -0.90054992  *
     6       C          0.33476054  *  -1.28208965  *  -0.38110045  *
     7       C          1.75048717  *  -1.23376420  *  -0.04386620  *
     8       C          2.10138367  *   0.02151010  *   0.52879851  *
     9       C          0.95847181  *   0.89783389  *   0.59316663  *
    10       H         -2.69416805  *  -0.73144615  *   2.03460911  *
    11       H         -3.03410784  *   0.19421209  *   0.53234403  *
    12       H         -2.38532896  *  -1.49111544  *   0.43019172  *
    13       H         -1.97020027  *   0.54310603  *  -1.30633870  *
    14       H         -0.36175305  *   0.71424365  *  -2.08869815  *
    15       H         -1.55009803  *   2.54279288  *  -0.31301174  *
    16       H         -0.19860890  *  -2.11604775  *   0.15644929  *
    17       H          0.13906412  *  -1.55273204  *  -1.44732988  *
    18       H          2.43889259  *  -2.06153949  *  -0.21472531  *
    19       H          3.09999063  *   0.29777121  *   0.87494294  *
    20       H          1.09555183  *   1.89314806  *   0.06365351  *
    21       H          0.73651719  *   1.30247560  *   1.62615259  *



          CARTESIAN COORDINATES 

    NO.       ATOM           X           Y           Z

     1         C         -2.3793     -0.5544      0.9910
     2         O         -1.0706     -0.0396      1.1653
     3         C         -0.2626      0.1034      0.0330
     4         C         -0.9215      0.8471     -1.1393
     5         O         -0.8235      2.2283     -0.9005
     6         C          0.3348     -1.2821     -0.3811
     7         C          1.7505     -1.2338     -0.0439
     8         C          2.1014      0.0215      0.5288
     9         C          0.9585      0.8978      0.5932
    10         H         -2.6942     -0.7314      2.0346
    11         H         -3.0341      0.1942      0.5323
    12         H         -2.3853     -1.4911      0.4302
    13         H         -1.9702      0.5431     -1.3063
    14         H         -0.3618      0.7142     -2.0887
    15         H         -1.5501      2.5428     -0.3130
    16         H         -0.1986     -2.1160      0.1564
    17         H          0.1391     -1.5527     -1.4473
    18         H          2.4389     -2.0615     -0.2147
    19         H          3.1000      0.2978      0.8749
    20         H          1.0956      1.8931      0.0637
    21         H          0.7365      1.3025      1.6262

 General Reference for PM7:
 "Optimization of Parameters for Semiempirical Methods VI: More Modifications to the 
 NDDO Approximations and Re-optimization of Parameters", J. J. P. Stewart, J. Mol. Mod., 1:32, 19 (2013)
 https://link.springer.com/article/10.1007/s00894-012-1667-x

           Empirical Formula: C7 H12 O2  =    21 atoms



      MOLECULAR POINT GROUP   :   C1  


          UHF CALCULATION, NO. OF ALPHA ELECTRONS =   26
                           NO. OF BETA  ELECTRONS =   25
  SCF CRITERION =    0.1000E-07

 -------------------------------------------------------------------------------
 PM7 1SCF GRADIENTS DISP RELSCF=0.0001 CHARGE=1
 Title: ASE calculation



     1SCF WAS SPECIFIED, SO BFGS WAS NOT USED                 
     SCF FIELD WAS ACHIEVED                                   


                              PM7 CALCULATION
                                                       MOPAC v23.2 Linux
                                                       Fri Sep 19 21:39:39 2025




          FINAL HEAT OF FORMATION =        125.13285 KCAL/MOL =     523.55586 KJ/MOL

          TOTAL ENERGY            =     -36969.84960 KCAL/MOL = ELECTRONIC ENERGY + CORE-CORE REPULSION
          ENERGY OF ATOMS         =      37097.27293 KCAL/MOL
                              SUM =        127.42333 KCAL/MOL
          DISPERSION ENERGY       =         -2.29048 KCAL/MOL
                              SUM =        125.13285 KCAL/MOL = FINAL HEAT OF FORMATION



          TOTAL ENERGY            =      -1603.16441 EV
          ELECTRONIC ENERGY       =      -8114.20375 EV 
          CORE-CORE REPULSION     =       6511.03934 EV
          COSMO AREA              =        164.26 SQUARE ANGSTROMS
          COSMO VOLUME            =        167.42 CUBIC ANGSTROMS

          GRADIENT NORM           =          1.08820          =       0.23746 PER ATOM
          IONIZATION POTENTIAL    =         14.116422 EV
          ALPHA SOMO LUMO (EV)    =        -14.121 -6.023
          BETA  SOMO LUMO (EV)    =        -14.116 -7.887
          NO. OF ALPHA ELECTRONS  =         26
          NO. OF BETA  ELECTRONS  =         25
          MOLECULAR WEIGHT        =        128.1706         POINT GROUP:  C1  

          MOLECULAR DIMENSIONS (Angstroms)

            Atom       Atom       Distance
            H    19    H    11     6.14453
            H    16    H    15     4.69786
            H    10    H    14     4.11397


          SCF CALCULATIONS        =          1

          WALL-CLOCK TIME         =      0.164 SECONDS
          COMPUTATION TIME        =      0.619 SECONDS

          LARGEST ATOMIC GRADIENTS

          Atom     Label                     Cartesian Gradients           Cartesian Coordinates       |Gradient|
                                           X          Y          Z        X          Y          Z

            19       H                   0.034      0.297      0.216    3.09999    0.29777    0.87494      0.369
             5       O                   0.337     -0.131     -0.053   -0.82354    2.22831   -0.90055      0.365
            16       H                   0.222      0.075     -0.270   -0.19861   -2.11605    0.15645      0.357
            12       H                   0.199      0.260      0.091   -2.38533   -1.49112    0.43019      0.340
            13       H                  -0.098      0.182      0.194   -1.97020    0.54311   -1.30634      0.284
             6       C                  -0.188      0.090     -0.124    0.33476   -1.28209   -0.38110      0.242
            11       H                   0.159     -0.143     -0.103   -3.03411    0.19421    0.53234      0.237
            21       H                  -0.083     -0.128     -0.177    0.73652    1.30248    1.62615      0.233
            15       H                   0.020      0.135      0.186   -1.55010    2.54279   -0.31301      0.231
             2       O                  -0.106     -0.204     -0.008   -1.07059   -0.03959    1.16530      0.231



       FINAL  POINT  AND  DERIVATIVES

   PARAMETER     ATOM    TYPE            VALUE        GRADIENT
      1          1  C    CARTESIAN X    -2.379321     -0.168760  KCAL/ANGSTROM
      2          1  C    CARTESIAN Y    -0.554365     -0.010956  KCAL/ANGSTROM
      3          1  C    CARTESIAN Z     0.991020      0.155494  KCAL/ANGSTROM
      4          2  O    CARTESIAN X    -1.070586     -0.106204  KCAL/ANGSTROM
      5          2  O    CARTESIAN Y    -0.039589     -0.204449  KCAL/ANGSTROM
      6          2  O    CARTESIAN Z     1.165297     -0.007772  KCAL/ANGSTROM
      7          3  C    CARTESIAN X    -0.262648     -0.102234  KCAL/ANGSTROM
      8          3  C    CARTESIAN Y     0.103396      0.009593  KCAL/ANGSTROM
      9          3  C    CARTESIAN Z     0.033011     -0.027356  KCAL/ANGSTROM
     10          4  C    CARTESIAN X    -0.921463     -0.039194  KCAL/ANGSTROM
     11          4  C    CARTESIAN Y     0.847106     -0.167313  KCAL/ANGSTROM
     12          4  C    CARTESIAN Z    -1.139274     -0.065108  KCAL/ANGSTROM
     13          5  O    CARTESIAN X    -0.823541      0.336764  KCAL/ANGSTROM
     14          5  O    CARTESIAN Y     2.228314     -0.131091  KCAL/ANGSTROM
     15          5  O    CARTESIAN Z    -0.900550     -0.052577  KCAL/ANGSTROM
     16          6  C    CARTESIAN X     0.334761     -0.187720  KCAL/ANGSTROM
     17          6  C    CARTESIAN Y    -1.282090      0.089673  KCAL/ANGSTROM
     18          6  C    CARTESIAN Z    -0.381100     -0.124059  KCAL/ANGSTROM
     19          7  C    CARTESIAN X     1.750487     -0.193642  KCAL/ANGSTROM
     20          7  C    CARTESIAN Y    -1.233764     -0.108186  KCAL/ANGSTROM
     21          7  C    CARTESIAN Z    -0.043866     -0.000748  KCAL/ANGSTROM
     22          8  C    CARTESIAN X     2.101384      0.029361  KCAL/ANGSTROM
     23          8  C    CARTESIAN Y     0.021510      0.059708  KCAL/ANGSTROM
     24          8  C    CARTESIAN Z     0.528799     -0.078923  KCAL/ANGSTROM
     25          9  C    CARTESIAN X     0.958472     -0.053301  KCAL/ANGSTROM
     26          9  C    CARTESIAN Y     0.897834      0.129831  KCAL/ANGSTROM
     27          9  C    CARTESIAN Z     0.593167     -0.087776  KCAL/ANGSTROM
     28         10  H    CARTESIAN X    -2.694168     -0.116421  KCAL/ANGSTROM
     29         10  H    CARTESIAN Y    -0.731446      0.062414  KCAL/ANGSTROM
     30         10  H    CARTESIAN Z     2.034609      0.062061  KCAL/ANGSTROM
     31         11  H    CARTESIAN X    -3.034108      0.158923  KCAL/ANGSTROM
     32         11  H    CARTESIAN Y     0.194212     -0.143110  KCAL/ANGSTROM
     33         11  H    CARTESIAN Z     0.532344     -0.102727  KCAL/ANGSTROM
     34         12  H    CARTESIAN X    -2.385329      0.198908  KCAL/ANGSTROM
     35         12  H    CARTESIAN Y    -1.491115      0.260339  KCAL/ANGSTROM
     36         12  H    CARTESIAN Z     0.430192      0.090647  KCAL/ANGSTROM
     37         13  H    CARTESIAN X    -1.970200     -0.098076  KCAL/ANGSTROM
     38         13  H    CARTESIAN Y     0.543106      0.182150  KCAL/ANGSTROM
     39         13  H    CARTESIAN Z    -1.306339      0.193895  KCAL/ANGSTROM
     40         14  H    CARTESIAN X    -0.361753     -0.058512  KCAL/ANGSTROM
     41         14  H    CARTESIAN Y     0.714244     -0.103792  KCAL/ANGSTROM
     42         14  H    CARTESIAN Z    -2.088698      0.011165  KCAL/ANGSTROM
     43         15  H    CARTESIAN X    -1.550098      0.019763  KCAL/ANGSTROM
     44         15  H    CARTESIAN Y     2.542793      0.134830  KCAL/ANGSTROM
     45         15  H    CARTESIAN Z    -0.313012      0.186000  KCAL/ANGSTROM
     46         16  H    CARTESIAN X    -0.198609      0.221717  KCAL/ANGSTROM
     47         16  H    CARTESIAN Y    -2.116048      0.075124  KCAL/ANGSTROM
     48         16  H    CARTESIAN Z     0.156449     -0.269932  KCAL/ANGSTROM
     49         17  H    CARTESIAN X     0.139064      0.184725  KCAL/ANGSTROM
     50         17  H    CARTESIAN Y    -1.552732      0.001123  KCAL/ANGSTROM
     51         17  H    CARTESIAN Z    -1.447330      0.090195  KCAL/ANGSTROM
     52         18  H    CARTESIAN X     2.438893      0.034605  KCAL/ANGSTROM
     53         18  H    CARTESIAN Y    -2.061539     -0.117032  KCAL/ANGSTROM
     54         18  H    CARTESIAN Z    -0.214725      0.027041  KCAL/ANGSTROM
     55         19  H    CARTESIAN X     3.099991      0.033753  KCAL/ANGSTROM
     56         19  H    CARTESIAN Y     0.297771      0.296701  KCAL/ANGSTROM
     57         19  H    CARTESIAN Z     0.874943      0.216306  KCAL/ANGSTROM
     58         20  H    CARTESIAN X     1.095552     -0.011538  KCAL/ANGSTROM
     59         20  H    CARTESIAN Y     1.893148     -0.187873  KCAL/ANGSTROM
     60         20  H    CARTESIAN Z     0.063654     -0.039123  KCAL/ANGSTROM
     61         21  H    CARTESIAN X     0.736517     -0.082918  KCAL/ANGSTROM
     62         21  H    CARTESIAN Y     1.302476     -0.127688  KCAL/ANGSTROM
     63         21  H    CARTESIAN Z     1.626153     -0.176705  KCAL/ANGSTROM




   ATOM   CHEMICAL          X               Y               Z
  NUMBER   SYMBOL      (ANGSTROMS)     (ANGSTROMS)     (ANGSTROMS)

     1       C         -2.37932128  *  -0.55436491  *   0.99102009  *
     2       O         -1.07058618  *  -0.03958852  *   1.16529716  *
     3       C         -0.26264812  *   0.10339608  *   0.03301063  *
     4       C         -0.92146318  *   0.84710564  *  -1.13927378  *
     5       O         -0.82354102  *   2.22831443  *  -0.90054992  *
     6       C          0.33476054  *  -1.28208965  *  -0.38110045  *
     7       C          1.75048717  *  -1.23376420  *  -0.04386620  *
     8       C          2.10138367  *   0.02151010  *   0.52879851  *
     9       C          0.95847181  *   0.89783389  *   0.59316663  *
    10       H         -2.69416805  *  -0.73144615  *   2.03460911  *
    11       H         -3.03410784  *   0.19421209  *   0.53234403  *
    12       H         -2.38532896  *  -1.49111544  *   0.43019172  *
    13       H         -1.97020027  *   0.54310603  *  -1.30633870  *
    14       H         -0.36175305  *   0.71424365  *  -2.08869815  *
    15       H         -1.55009803  *   2.54279288  *  -0.31301174  *
    16       H         -0.19860890  *  -2.11604775  *   0.15644929  *
    17       H          0.13906412  *  -1.55273204  *  -1.44732988  *
    18       H          2.43889259  *  -2.06153949  *  -0.21472531  *
    19       H          3.09999063  *   0.29777121  *   0.87494294  *
    20       H          1.09555183  *   1.89314806  *   0.06365351  *
    21       H          0.73651719  *   1.30247560  *   1.62615259  *

                             CARTESIAN COORDINATES

   1    C       -2.379321279    -0.554364911     0.991020089
   2    O       -1.070586176    -0.039588521     1.165297158
   3    C       -0.262648118     0.103396076     0.033010630
   4    C       -0.921463175     0.847105639    -1.139273782
   5    O       -0.823541019     2.228314429    -0.900549915
   6    C        0.334760535    -1.282089646    -0.381100453
   7    C        1.750487166    -1.233764199    -0.043866197
   8    C        2.101383673     0.021510102     0.528798507
   9    C        0.958471808     0.897833889     0.593166626
  10    H       -2.694168053    -0.731446147     2.034609108
  11    H       -3.034107838     0.194212089     0.532344033
  12    H       -2.385328960    -1.491115443     0.430191717
  13    H       -1.970200272     0.543106029    -1.306338703
  14    H       -0.361753047     0.714243655    -2.088698154
  15    H       -1.550098026     2.542792880    -0.313011737
  16    H       -0.198608903    -2.116047754     0.156449287
  17    H        0.139064122    -1.552732040    -1.447329880
  18    H        2.438892589    -2.061539487    -0.214725308
  19    H        3.099990633     0.297771214     0.874942941
  20    H        1.095551833     1.893148061     0.063653510
  21    H        0.736517193     1.302475596     1.626152585


           Empirical Formula: C7 H12 O2  =    21 atoms



      MOLECULAR POINT GROUP   :   C1  


          ALPHA EIGENVALUES  
 -36.53502 -33.92515 -33.11780 -30.67640 -30.21307 -28.33492 -27.06771 -24.48354
 -24.21019 -22.83416 -21.58089 -21.24279 -19.82489 -19.47755 -19.29684 -19.06863
 -18.67921 -18.57965 -18.25135 -17.68038 -16.96432 -16.24597 -15.93805 -15.42949
 -14.98022 -14.12055  -6.02335  -2.23156  -2.12027  -1.90950  -1.53651  -1.19383
  -0.96432  -0.88668  -0.51066  -0.15989   0.04823   0.14280   0.22578   0.68289
   1.03712   1.29022   1.31999   1.74712   1.91195   1.99039   2.37758   2.65557


           BETA EIGENVALUES 
 -36.39502 -33.85948 -33.10951 -30.57563 -30.08984 -28.31827 -26.94573 -24.35197
 -24.13040 -22.74309 -21.39118 -21.22027 -19.76465 -19.37995 -18.95908 -18.85539
 -18.56662 -18.37445 -18.01189 -17.54668 -16.94584 -16.20285 -15.90808 -14.97395
 -14.11642  -7.88733  -4.63798  -2.17647  -2.01646  -1.85781  -1.48454  -1.05451
  -0.90754  -0.84042  -0.47926  -0.06677   0.14104   0.22847   0.34042   0.70993
   1.09254   1.29437   1.37414   1.74751   1.91352   1.99122   2.37851   2.65615


              NET ATOMIC CHARGES AND DIPOLE CONTRIBUTIONS

  ATOM NO.   TYPE          CHARGE      No. of ELECS.   s-Pop       p-Pop       
    1          C          -0.190058        4.1901     1.08729     3.10276
    2          O          -0.402730        6.4027     1.87244     4.53029
    3          C           0.244773        3.7552     1.10126     2.65397
    4          C          -0.066320        4.0663     1.09479     2.97153
    5          O          -0.520439        6.5204     1.85082     4.66962
    6          C          -0.420976        4.4210     1.07955     3.34143
    7          C           0.106307        3.8937     1.16201     2.73168
    8          C           0.130193        3.8698     1.16256     2.70725
    9          C          -0.391193        4.3912     1.07565     3.31554
   10          H           0.177333        0.8227     0.82267
   11          H           0.142249        0.8578     0.85775
   12          H           0.128192        0.8718     0.87181
   13          H           0.151828        0.8482     0.84817
   14          H           0.163680        0.8363     0.83632
   15          H           0.335970        0.6640     0.66403
   16          H           0.244292        0.7557     0.75571
   17          H           0.227648        0.7724     0.77235
   18          H           0.198402        0.8016     0.80160
   19          H           0.201267        0.7987     0.79873
   20          H           0.276381        0.7236     0.72362
   21          H           0.263198        0.7368     0.73680
 DIPOLE           X         Y         Z       TOTAL
 POINT-CHG.     4.183    -3.647    -0.331     5.560
 HYBRID         0.103     0.107     0.436     0.460
 SUM            4.287    -3.540     0.104     5.560


          ATOMIC ORBITAL ELECTRON POPULATIONS

     Atom    s        px        py        pz   
    1  C   1.08729   0.82790   1.09470   1.18016
    2  O   1.87244   1.33104   1.86085   1.33840
    3  C   1.10126   0.88098   0.88314   0.88985
    4  C   1.09479   1.13309   0.80956   1.02888
    5  O   1.85082   1.62114   1.28416   1.76433
    6  C   1.07955   1.01826   1.14078   1.18239
    7  C   1.16201   1.02269   0.98990   0.71908
    8  C   1.16256   1.06433   0.94240   0.70052
    9  C   1.07565   1.00531   1.11393   1.19630
   10  H   0.82267
   11  H   0.85775
   12  H   0.87181
   13  H   0.84817
   14  H   0.83632
   15  H   0.66403
   16  H   0.75571
   17  H   0.77235
   18  H   0.80160
   19  H   0.79873
   20  H   0.72362
   21  H   0.73680


                    (SZ)    =    0.500000
                    (S**2)  =    0.751928


          ATOMIC ORBITAL SPIN POPULATIONS

    Atom   Total    s     px     py     pz   
         Atomic
    1  C  0.0007 -0.000  0.000  0.000 -0.000
    2  O  0.0040  0.000  0.000 -0.000  0.003
    3  C -0.0030 -0.000 -0.001 -0.000 -0.001
    4  C  0.0030  0.001  0.001  0.001  0.001
    5  O  0.0003  0.000  0.000 -0.000  0.000
    6  C  0.0069 -0.004 -0.012  0.002  0.020
    7  C  0.4718  0.009  0.030  0.064  0.369
    8  C  0.3738  0.006  0.026  0.047  0.295
    9  C  0.0273 -0.003 -0.003 -0.003  0.036
   10  H  0.0002  0.000
   11  H -0.0000 -0.000
   12  H -0.0001 -0.000
   13  H  0.0001  0.000
   14  H -0.0001 -0.000
   15  H  0.0000  0.000
   16  H  0.0343  0.034
   17  H  0.0300  0.030
   18  H -0.0133 -0.013
   19  H -0.0106 -0.011
   20  H  0.0384  0.038
   21  H  0.0365  0.036

 **********************
 *                    *
 * JOB ENDED NORMALLY *
 *                    *
 **********************



 TOTAL JOB TIME:             0.26 SECONDS

 == MOPAC DONE ==
