 *******************************************************************************
 **                                                                           **
 **                              MOPAC v23.2                                  **
 **                                                                           **
 *******************************************************************************
 **          Digital Object Identifier (DOI): 10.5281/zenodo.6511958          **
 **    Visit the DOI location for information on how to cite this program.    **
 *******************************************************************************

                              PM7 CALCULATION RESULTS

 *******************************************************************************
 *  CALCULATION DONE: (MAX THREADS = 40)             Fri Sep 19 21:37:35 2025  *
 *  PM7        - The PM7 Hamiltonian to be used
 *
 *
 *
 *                 CHARGE ON SYSTEM = +1
 *
 *
 *
 *  1SCF       - DO 1 SCF AND THEN STOP 
 *  T=         - A TIME OF 172800.0 SECONDS REQUESTED
 *  DUMP=N     - RESTART FILE WRITTEN EVERY 7200.0 SECONDS REQUESTED
 *  RELSCF     - DEFAULT SCF CRITERION MULTIPLIED BY 0.0001
 *              (DEFAULT SCF CRITERION = 0.00010)
 *  GRADIENTS  - ALL GRADIENTS TO BE PRINTED
 *  DISP       - PRINT DISPERSION AND HYDROGEN BOND ENERGIES
 *******************************************************************************
PM7 1SCF GRADIENTS DISP RELSCF=0.0001 CHARGE=1
 Title: ASE calculation

   ATOM   CHEMICAL          X               Y               Z
  NUMBER   SYMBOL      (ANGSTROMS)     (ANGSTROMS)     (ANGSTROMS)

     1       O         -2.38803679  *   1.63367105  *   0.89729766  *
     2       C         -1.80575433  *   0.83267934  *   0.23252502  *
     3       C         -1.91598477  *  -0.66686086  *   0.33292986  *
     4       C         -0.80442362  *  -1.26201074  *  -0.53373865  *
     5       C          0.04390496  *  -0.06776409  *  -1.05566469  *
     6       N          1.29110998  *   0.02760430  *  -0.37368981  *
     7       C          2.22359286  *   0.89432953  *   0.27530250  *
     8       C          2.29125886  *  -0.63895835  *   0.39830590  *
     9       C         -0.79428313  *   1.19727536  *  -0.84793736  *
    10       H         -2.92863495  *  -0.99457064  *  -0.00035888  *
    11       H         -1.86604524  *  -1.00102745  *   1.38951706  *
    12       H         -1.22896926  *  -1.82504726  *  -1.39316645  *
    13       H         -0.20332111  *  -2.00681097  *   0.01711450  *
    14       H          0.30127267  *  -0.21799993  *  -2.15592902  *
    15       H          1.88350561  *   1.52954857  *   1.11541968  *
    16       H          2.96491960  *   1.44697026  *  -0.33418575  *
    17       H          2.00746995  *  -1.15959217  *   1.33109529  *
    18       H          3.08299540  *  -1.21292629  *  -0.12012300  *
    19       H         -0.21860161  *   2.10386708  *  -0.58657725  *
    20       H         -1.34168390  *   1.48442948  *  -1.77655731  *



          CARTESIAN COORDINATES 

    NO.       ATOM           X           Y           Z

     1         O         -2.3880      1.6337      0.8973
     2         C         -1.8058      0.8327      0.2325
     3         C         -1.9160     -0.6669      0.3329
     4         C         -0.8044     -1.2620     -0.5337
     5         C          0.0439     -0.0678     -1.0557
     6         N          1.2911      0.0276     -0.3737
     7         C          2.2236      0.8943      0.2753
     8         C          2.2913     -0.6390      0.3983
     9         C         -0.7943      1.1973     -0.8479
    10         H         -2.9286     -0.9946     -0.0004
    11         H         -1.8660     -1.0010      1.3895
    12         H         -1.2290     -1.8250     -1.3932
    13         H         -0.2033     -2.0068      0.0171
    14         H          0.3013     -0.2180     -2.1559
    15         H          1.8835      1.5295      1.1154
    16         H          2.9649      1.4470     -0.3342
    17         H          2.0075     -1.1596      1.3311
    18         H          3.0830     -1.2129     -0.1201
    19         H         -0.2186      2.1039     -0.5866
    20         H         -1.3417      1.4844     -1.7766

 General Reference for PM7:
 "Optimization of Parameters for Semiempirical Methods VI: More Modifications to the 
 NDDO Approximations and Re-optimization of Parameters", J. J. P. Stewart, J. Mol. Mod., 1:32, 19 (2013)
 https://link.springer.com/article/10.1007/s00894-012-1667-x

           Empirical Formula: C7 H11 N O  =    20 atoms



      MOLECULAR POINT GROUP   :   C1  


          UHF CALCULATION, NO. OF ALPHA ELECTRONS =   25
                           NO. OF BETA  ELECTRONS =   24
  SCF CRITERION =    0.1000E-07

 -------------------------------------------------------------------------------
 PM7 1SCF GRADIENTS DISP RELSCF=0.0001 CHARGE=1
 Title: ASE calculation



     1SCF WAS SPECIFIED, SO BFGS WAS NOT USED                 
     SCF FIELD WAS ACHIEVED                                   


                              PM7 CALCULATION
                                                       MOPAC v23.2 Linux
                                                       Fri Sep 19 21:37:37 2025




          FINAL HEAT OF FORMATION =        181.34219 KCAL/MOL =     758.73572 KJ/MOL

          TOTAL ENERGY            =     -34140.48311 KCAL/MOL = ELECTRONIC ENERGY + CORE-CORE REPULSION
          ENERGY OF ATOMS         =      34323.93363 KCAL/MOL
                              SUM =        183.45053 KCAL/MOL
          DISPERSION ENERGY       =         -2.10834 KCAL/MOL
                              SUM =        181.34219 KCAL/MOL = FINAL HEAT OF FORMATION



          TOTAL ENERGY            =      -1480.47147 EV
          ELECTRONIC ENERGY       =      -7375.35321 EV 
          CORE-CORE REPULSION     =       5894.88174 EV
          COSMO AREA              =        166.35 SQUARE ANGSTROMS
          COSMO VOLUME            =        166.37 CUBIC ANGSTROMS

          GRADIENT NORM           =          1.20204          =       0.26878 PER ATOM
          IONIZATION POTENTIAL    =         13.939105 EV
          ALPHA SOMO LUMO (EV)    =        -13.940 -5.031
          BETA  SOMO LUMO (EV)    =        -13.939 -6.763
          NO. OF ALPHA ELECTRONS  =         25
          NO. OF BETA  ELECTRONS  =         24
          MOLECULAR WEIGHT        =        125.1700         POINT GROUP:  C1  

          MOLECULAR DIMENSIONS (Angstroms)

            Atom       Atom       Distance
            H    16    H    10     6.38800
            H    17    H    20     4.91838
            O     1    H    12     4.11877


          SCF CALCULATIONS        =          1

          WALL-CLOCK TIME         =      1.797 SECONDS
          COMPUTATION TIME        =      0.681 SECONDS

          LARGEST ATOMIC GRADIENTS

          Atom     Label                     Cartesian Gradients           Cartesian Coordinates       |Gradient|
                                           X          Y          Z        X          Y          Z

             1       O                   0.168      0.191      0.276   -2.38804    1.63367    0.89730      0.375
            19       H                   0.362      0.090     -0.042   -0.21860    2.10387   -0.58658      0.375
            12       H                   0.182     -0.308      0.091   -1.22897   -1.82505   -1.39317      0.369
            10       H                  -0.282      0.072     -0.199   -2.92863   -0.99457   -0.00036      0.353
             2       C                   0.259     -0.088      0.208   -1.80575    0.83268    0.23253      0.344
            11       H                  -0.231     -0.194     -0.138   -1.86605   -1.00103    1.38952      0.331
            14       H                  -0.137      0.081      0.286    0.30127   -0.21800   -2.15593      0.328
            20       H                  -0.129     -0.176     -0.224   -1.34168    1.48443   -1.77656      0.313
             7       C                   0.231      0.064      0.124    2.22359    0.89433    0.27530      0.270
            15       H                  -0.252     -0.061     -0.043    1.88351    1.52955    1.11542      0.263



       FINAL  POINT  AND  DERIVATIVES

   PARAMETER     ATOM    TYPE            VALUE        GRADIENT
      1          1  O    CARTESIAN X    -2.388037      0.168236  KCAL/ANGSTROM
      2          1  O    CARTESIAN Y     1.633671      0.191030  KCAL/ANGSTROM
      3          1  O    CARTESIAN Z     0.897298      0.275759  KCAL/ANGSTROM
      4          2  C    CARTESIAN X    -1.805754      0.259468  KCAL/ANGSTROM
      5          2  C    CARTESIAN Y     0.832679     -0.088270  KCAL/ANGSTROM
      6          2  C    CARTESIAN Z     0.232525      0.208291  KCAL/ANGSTROM
      7          3  C    CARTESIAN X    -1.915985     -0.237119  KCAL/ANGSTROM
      8          3  C    CARTESIAN Y    -0.666861     -0.041431  KCAL/ANGSTROM
      9          3  C    CARTESIAN Z     0.332930     -0.083850  KCAL/ANGSTROM
     10          4  C    CARTESIAN X    -0.804424     -0.043517  KCAL/ANGSTROM
     11          4  C    CARTESIAN Y    -1.262011      0.047514  KCAL/ANGSTROM
     12          4  C    CARTESIAN Z    -0.533739     -0.016418  KCAL/ANGSTROM
     13          5  C    CARTESIAN X     0.043905     -0.056630  KCAL/ANGSTROM
     14          5  C    CARTESIAN Y    -0.067764      0.073119  KCAL/ANGSTROM
     15          5  C    CARTESIAN Z    -1.055665      0.132585  KCAL/ANGSTROM
     16          6  N    CARTESIAN X     1.291110      0.141645  KCAL/ANGSTROM
     17          6  N    CARTESIAN Y     0.027604      0.189912  KCAL/ANGSTROM
     18          6  N    CARTESIAN Z    -0.373690     -0.013970  KCAL/ANGSTROM
     19          7  C    CARTESIAN X     2.223593      0.231294  KCAL/ANGSTROM
     20          7  C    CARTESIAN Y     0.894330      0.064189  KCAL/ANGSTROM
     21          7  C    CARTESIAN Z     0.275302      0.123566  KCAL/ANGSTROM
     22          8  C    CARTESIAN X     2.291259     -0.028346  KCAL/ANGSTROM
     23          8  C    CARTESIAN Y    -0.638958      0.055820  KCAL/ANGSTROM
     24          8  C    CARTESIAN Z     0.398306      0.039929  KCAL/ANGSTROM
     25          9  C    CARTESIAN X    -0.794283     -0.045195  KCAL/ANGSTROM
     26          9  C    CARTESIAN Y     1.197275      0.024469  KCAL/ANGSTROM
     27          9  C    CARTESIAN Z    -0.847937     -0.066694  KCAL/ANGSTROM
     28         10  H    CARTESIAN X    -2.928635     -0.282280  KCAL/ANGSTROM
     29         10  H    CARTESIAN Y    -0.994571      0.072452  KCAL/ANGSTROM
     30         10  H    CARTESIAN Z    -0.000359     -0.199092  KCAL/ANGSTROM
     31         11  H    CARTESIAN X    -1.866045     -0.230885  KCAL/ANGSTROM
     32         11  H    CARTESIAN Y    -1.001027     -0.193754  KCAL/ANGSTROM
     33         11  H    CARTESIAN Z     1.389517     -0.137960  KCAL/ANGSTROM
     34         12  H    CARTESIAN X    -1.228969      0.181934  KCAL/ANGSTROM
     35         12  H    CARTESIAN Y    -1.825047     -0.307968  KCAL/ANGSTROM
     36         12  H    CARTESIAN Z    -1.393166      0.091458  KCAL/ANGSTROM
     37         13  H    CARTESIAN X    -0.203321      0.055496  KCAL/ANGSTROM
     38         13  H    CARTESIAN Y    -2.006811     -0.133053  KCAL/ANGSTROM
     39         13  H    CARTESIAN Z     0.017114     -0.048671  KCAL/ANGSTROM
     40         14  H    CARTESIAN X     0.301273     -0.137363  KCAL/ANGSTROM
     41         14  H    CARTESIAN Y    -0.218000      0.081310  KCAL/ANGSTROM
     42         14  H    CARTESIAN Z    -2.155929      0.286146  KCAL/ANGSTROM
     43         15  H    CARTESIAN X     1.883506     -0.252475  KCAL/ANGSTROM
     44         15  H    CARTESIAN Y     1.529549     -0.060503  KCAL/ANGSTROM
     45         15  H    CARTESIAN Z     1.115420     -0.042910  KCAL/ANGSTROM
     46         16  H    CARTESIAN X     2.964920      0.037131  KCAL/ANGSTROM
     47         16  H    CARTESIAN Y     1.446970     -0.032707  KCAL/ANGSTROM
     48         16  H    CARTESIAN Z    -0.334186     -0.244263  KCAL/ANGSTROM
     49         17  H    CARTESIAN X     2.007470      0.083140  KCAL/ANGSTROM
     50         17  H    CARTESIAN Y    -1.159592     -0.023871  KCAL/ANGSTROM
     51         17  H    CARTESIAN Z     1.331095     -0.150378  KCAL/ANGSTROM
     52         18  H    CARTESIAN X     3.082995     -0.077395  KCAL/ANGSTROM
     53         18  H    CARTESIAN Y    -1.212926      0.167650  KCAL/ANGSTROM
     54         18  H    CARTESIAN Z    -0.120123      0.112991  KCAL/ANGSTROM
     55         19  H    CARTESIAN X    -0.218602      0.361733  KCAL/ANGSTROM
     56         19  H    CARTESIAN Y     2.103867      0.090131  KCAL/ANGSTROM
     57         19  H    CARTESIAN Z    -0.586577     -0.042304  KCAL/ANGSTROM
     58         20  H    CARTESIAN X    -1.341684     -0.128872  KCAL/ANGSTROM
     59         20  H    CARTESIAN Y     1.484429     -0.176041  KCAL/ANGSTROM
     60         20  H    CARTESIAN Z    -1.776557     -0.224222  KCAL/ANGSTROM




   ATOM   CHEMICAL          X               Y               Z
  NUMBER   SYMBOL      (ANGSTROMS)     (ANGSTROMS)     (ANGSTROMS)

     1       O         -2.38803679  *   1.63367105  *   0.89729766  *
     2       C         -1.80575433  *   0.83267934  *   0.23252502  *
     3       C         -1.91598477  *  -0.66686086  *   0.33292986  *
     4       C         -0.80442362  *  -1.26201074  *  -0.53373865  *
     5       C          0.04390496  *  -0.06776409  *  -1.05566469  *
     6       N          1.29110998  *   0.02760430  *  -0.37368981  *
     7       C          2.22359286  *   0.89432953  *   0.27530250  *
     8       C          2.29125886  *  -0.63895835  *   0.39830590  *
     9       C         -0.79428313  *   1.19727536  *  -0.84793736  *
    10       H         -2.92863495  *  -0.99457064  *  -0.00035888  *
    11       H         -1.86604524  *  -1.00102745  *   1.38951706  *
    12       H         -1.22896926  *  -1.82504726  *  -1.39316645  *
    13       H         -0.20332111  *  -2.00681097  *   0.01711450  *
    14       H          0.30127267  *  -0.21799993  *  -2.15592902  *
    15       H          1.88350561  *   1.52954857  *   1.11541968  *
    16       H          2.96491960  *   1.44697026  *  -0.33418575  *
    17       H          2.00746995  *  -1.15959217  *   1.33109529  *
    18       H          3.08299540  *  -1.21292629  *  -0.12012300  *
    19       H         -0.21860161  *   2.10386708  *  -0.58657725  *
    20       H         -1.34168390  *   1.48442948  *  -1.77655731  *

                             CARTESIAN COORDINATES

   1    O       -2.388036787     1.633671054     0.897297665
   2    C       -1.805754328     0.832679338     0.232525021
   3    C       -1.915984765    -0.666860858     0.332929857
   4    C       -0.804423620    -1.262010742    -0.533738645
   5    C        0.043904961    -0.067764093    -1.055664687
   6    N        1.291109977     0.027604296    -0.373689807
   7    C        2.223592859     0.894329530     0.275302500
   8    C        2.291258858    -0.638958348     0.398305902
   9    C       -0.794283126     1.197275359    -0.847937360
  10    H       -2.928634954    -0.994570639    -0.000358876
  11    H       -1.866045236    -1.001027450     1.389517057
  12    H       -1.228969256    -1.825047259    -1.393166451
  13    H       -0.203321111    -2.006810972     0.017114496
  14    H        0.301272668    -0.217999926    -2.155929020
  15    H        1.883505612     1.529548573     1.115419683
  16    H        2.964919599     1.446970257    -0.334185747
  17    H        2.007469950    -1.159592170     1.331095286
  18    H        3.082995398    -1.212926291    -0.120122997
  19    H       -0.218601609     2.103867078    -0.586577249
  20    H       -1.341683902     1.484429479    -1.776557307


           Empirical Formula: C7 H11 N O  =    20 atoms



      MOLECULAR POINT GROUP   :   C1  


          ALPHA EIGENVALUES  
 -44.16736 -35.67276 -34.70670 -31.66420 -29.65630 -27.79861 -27.30404 -24.75530
 -23.95755 -23.13348 -22.59805 -21.17250 -20.65092 -20.01430 -18.81935 -18.64302
 -18.47466 -18.38177 -17.86994 -17.57769 -17.30947 -16.95832 -16.30874 -15.97837
 -13.93953  -5.03113  -3.80633  -2.91799  -2.46464  -1.64916  -1.55777  -1.12975
  -0.74561  -0.47315  -0.37573  -0.18330  -0.03558  -0.02186   0.11179   0.21228
   0.72395   0.83574   1.48551   1.53548   1.66587   1.80133   2.37430


           BETA EIGENVALUES 
 -42.61896 -35.61915 -34.63624 -31.31511 -29.57168 -27.57271 -27.13003 -24.56208
 -23.26335 -22.97755 -22.22647 -20.95106 -20.30746 -19.93006 -18.75676 -18.50600
 -18.30828 -18.20937 -17.59427 -17.44776 -17.30085 -16.84145 -15.97344 -13.93910
  -6.76276  -4.38812  -3.63988  -2.91837  -2.38146  -1.59888  -1.41864  -0.77781
  -0.61837  -0.37251  -0.26663  -0.06768   0.01917   0.06579   0.16708   0.26330
   0.72757   0.84263   1.48729   1.53755   1.66670   1.80345   2.37431


              NET ATOMIC CHARGES AND DIPOLE CONTRIBUTIONS

  ATOM NO.   TYPE          CHARGE      No. of ELECS.   s-Pop       p-Pop       
    1          O          -0.344028        6.3440     1.87644     4.46759
    2          C           0.459952        3.5400     1.11919     2.42086
    3          C          -0.383404        4.3834     1.07227     3.31113
    4          C          -0.278914        4.2789     1.07173     3.20719
    5          C           0.053449        3.9466     1.09214     2.85441
    6          N          -0.046680        5.0467     1.56688     3.47980
    7          C          -0.160086        4.1601     1.09437     3.06571
    8          C          -0.160742        4.1607     1.09346     3.06729
    9          C          -0.431101        4.4311     1.08353     3.34757
   10          H           0.209563        0.7904     0.79044
   11          H           0.194289        0.8057     0.80571
   12          H           0.187995        0.8120     0.81201
   13          H           0.164737        0.8353     0.83526
   14          H           0.215333        0.7847     0.78467
   15          H           0.227145        0.7729     0.77286
   16          H           0.229312        0.7707     0.77069
   17          H           0.223590        0.7764     0.77641
   18          H           0.228019        0.7720     0.77198
   19          H           0.193892        0.8061     0.80611
   20          H           0.217680        0.7823     0.78232
 DIPOLE           X         Y         Z       TOTAL
 POINT-CHG.     7.077    -2.914    -1.953     7.899
 HYBRID         0.081     0.107    -0.205     0.245
 SUM            7.159    -2.807    -2.158     7.986


          ATOMIC ORBITAL ELECTRON POPULATIONS

     Atom    s        px        py        pz   
    1  O   1.87644   1.44410   1.58346   1.44003
    2  C   1.11919   0.76560   0.87994   0.77531
    3  C   1.07227   1.11057   1.04871   1.15185
    4  C   1.07173   1.04917   1.01909   1.13893
    5  C   1.09214   0.79124   1.04245   1.02071
    6  N   1.56688   1.11202   1.24447   1.12330
    7  C   1.09437   0.98494   0.99070   1.09008
    8  C   1.09346   0.97447   1.01518   1.07764
    9  C   1.08353   1.11255   1.04346   1.19156
   10  H   0.79044
   11  H   0.80571
   12  H   0.81201
   13  H   0.83526
   14  H   0.78467
   15  H   0.77286
   16  H   0.77069
   17  H   0.77641
   18  H   0.77198
   19  H   0.80611
   20  H   0.78232


                    (SZ)    =    0.500000
                    (S**2)  =    0.762831


          ATOMIC ORBITAL SPIN POPULATIONS

    Atom   Total    s     px     py     pz   
         Atomic
    1  O  0.0007 -0.000  0.000 -0.000  0.001
    2  C  0.0007  0.001 -0.000  0.000  0.000
    3  C  0.0004 -0.000  0.001 -0.001  0.000
    4  C  0.0296  0.004  0.011  0.012  0.003
    5  C -0.0462 -0.005 -0.014 -0.008 -0.019
    6  N  0.9588  0.049  0.254  0.066  0.589
    7  C -0.0565 -0.005 -0.042 -0.001 -0.008
    8  C -0.0567 -0.005 -0.043  0.000 -0.009
    9  C  0.0190  0.003  0.007  0.008  0.001
   10  H  0.0004  0.000
   11  H  0.0001  0.000
   12  H -0.0020 -0.002
   13  H -0.0018 -0.002
   14  H  0.0535  0.053
   15  H  0.0263  0.026
   16  H  0.0255  0.025
   17  H  0.0261  0.026
   18  H  0.0254  0.025
   19  H -0.0013 -0.001
   20  H -0.0019 -0.002

 **********************
 *                    *
 * JOB ENDED NORMALLY *
 *                    *
 **********************



 TOTAL JOB TIME:             2.20 SECONDS

 == MOPAC DONE ==
