 *******************************************************************************
 **                                                                           **
 **                              MOPAC v23.2                                  **
 **                                                                           **
 *******************************************************************************
 **          Digital Object Identifier (DOI): 10.5281/zenodo.6511958          **
 **    Visit the DOI location for information on how to cite this program.    **
 *******************************************************************************

                              PM7 CALCULATION RESULTS

 *******************************************************************************
 *  CALCULATION DONE: (MAX THREADS = 40)             Fri Sep 19 21:37:56 2025  *
 *  PM7        - The PM7 Hamiltonian to be used
 *  1SCF       - DO 1 SCF AND THEN STOP 
 *  T=         - A TIME OF 172800.0 SECONDS REQUESTED
 *  DUMP=N     - RESTART FILE WRITTEN EVERY 7200.0 SECONDS REQUESTED
 *  RELSCF     - DEFAULT SCF CRITERION MULTIPLIED BY 0.0001
 *              (DEFAULT SCF CRITERION = 0.00010)
 *  GRADIENTS  - ALL GRADIENTS TO BE PRINTED
 *  DISP       - PRINT DISPERSION AND HYDROGEN BOND ENERGIES
 *******************************************************************************
PM7 1SCF GRADIENTS DISP RELSCF=0.0001
 Title: ASE calculation

   ATOM   CHEMICAL          X               Y               Z
  NUMBER   SYMBOL      (ANGSTROMS)     (ANGSTROMS)     (ANGSTROMS)

     1       C         -2.39010096  *  -0.47118708  *   0.93241298  *
     2       O         -1.15281974  *   0.18458333  *   1.12713611  *
     3       C         -0.24070217  *   0.15235802  *   0.04717654  *
     4       C         -0.84330932  *   0.85168789  *  -1.18020572  *
     5       O         -1.24645943  *   2.16598602  *  -0.85721954  *
     6       C          0.25583510  *  -1.28110583  *  -0.28171279  *
     7       C          1.74328473  *  -1.21386857  *  -0.08000080  *
     8       C          2.14021302  *  -0.02982156  *   0.40352550  *
     9       C          0.99476528  *   0.91577329  *   0.60741365  *
    10       H         -2.81211801  *  -0.49824483  *   1.94619940  *
    11       H         -3.03242386  *   0.11364891  *   0.26666398  *
    12       H         -2.26284228  *  -1.48819934  *   0.55246665  *
    13       H         -1.72009111  *   0.31544287  *  -1.58322745  *
    14       H         -0.09787602  *   0.98871244  *  -1.98580013  *
    15       H         -1.61014729  *   2.18532828  *   0.05639151  *
    16       H         -0.19444035  *  -2.01747660  *   0.41112705  *
    17       H         -0.01240658  *  -1.59890761  *  -1.30115225  *
    18       H          2.35366482  *  -2.06599690  *  -0.31242735  *
    19       H          3.14102324  *   0.27769871  *   0.64764826  *
    20       H          1.14063366  *   1.88418654  *   0.09750476  *
    21       H          0.84960671  *   1.15264422  *   1.68081588  *



          CARTESIAN COORDINATES 

    NO.       ATOM           X           Y           Z

     1         C         -2.3901     -0.4712      0.9324
     2         O         -1.1528      0.1846      1.1271
     3         C         -0.2407      0.1524      0.0472
     4         C         -0.8433      0.8517     -1.1802
     5         O         -1.2465      2.1660     -0.8572
     6         C          0.2558     -1.2811     -0.2817
     7         C          1.7433     -1.2139     -0.0800
     8         C          2.1402     -0.0298      0.4035
     9         C          0.9948      0.9158      0.6074
    10         H         -2.8121     -0.4982      1.9462
    11         H         -3.0324      0.1136      0.2667
    12         H         -2.2628     -1.4882      0.5525
    13         H         -1.7201      0.3154     -1.5832
    14         H         -0.0979      0.9887     -1.9858
    15         H         -1.6101      2.1853      0.0564
    16         H         -0.1944     -2.0175      0.4111
    17         H         -0.0124     -1.5989     -1.3012
    18         H          2.3537     -2.0660     -0.3124
    19         H          3.1410      0.2777      0.6476
    20         H          1.1406      1.8842      0.0975
    21         H          0.8496      1.1526      1.6808

 General Reference for PM7:
 "Optimization of Parameters for Semiempirical Methods VI: More Modifications to the 
 NDDO Approximations and Re-optimization of Parameters", J. J. P. Stewart, J. Mol. Mod., 1:32, 19 (2013)
 https://link.springer.com/article/10.1007/s00894-012-1667-x

           Empirical Formula: C7 H12 O2  =    21 atoms



      MOLECULAR POINT GROUP   :   C1  


      RHF CALCULATION, NO. OF DOUBLY OCCUPIED LEVELS = 26

  SCF CRITERION =    0.1000E-07

 -------------------------------------------------------------------------------
 PM7 1SCF GRADIENTS DISP RELSCF=0.0001
 Title: ASE calculation



     1SCF WAS SPECIFIED, SO BFGS WAS NOT USED                 
     SCF FIELD WAS ACHIEVED                                   


                              PM7 CALCULATION
                                                       MOPAC v23.2 Linux
                                                       Fri Sep 19 21:37:57 2025




          FINAL HEAT OF FORMATION =        -79.61138 KCAL/MOL =    -333.09402 KJ/MOL

          TOTAL ENERGY            =     -37174.39947 KCAL/MOL = ELECTRONIC ENERGY + CORE-CORE REPULSION
          ENERGY OF ATOMS         =      37097.27293 KCAL/MOL
                              SUM =        -77.12654 KCAL/MOL
          DISPERSION ENERGY       =         -2.24486 KCAL/MOL
          H-BOND ENERGY           =         -0.23998 KCAL/MOL
                              SUM =        -79.61138 KCAL/MOL = FINAL HEAT OF FORMATION



          TOTAL ENERGY            =      -1612.03453 EV
          ELECTRONIC ENERGY       =      -8147.53975 EV 
          CORE-CORE REPULSION     =       6535.50521 EV
          COSMO AREA              =        163.38 SQUARE ANGSTROMS
          COSMO VOLUME            =        167.25 CUBIC ANGSTROMS

          GRADIENT NORM           =          1.11690          =       0.24373 PER ATOM
          IONIZATION POTENTIAL    =          9.747919 EV
          HOMO LUMO ENERGIES (EV) =         -9.748  1.017
          NO. OF FILLED LEVELS    =         26
          MOLECULAR WEIGHT        =        128.1706         POINT GROUP:  C1  

          MOLECULAR DIMENSIONS (Angstroms)

            Atom       Atom       Distance
            H    19    H    11     6.18737
            H    15    H    18     4.39696
            H    14    H    10     4.24973


          SCF CALCULATIONS        =          1

          WALL-CLOCK TIME         =      0.961 SECONDS
          COMPUTATION TIME        =      0.292 SECONDS

          LARGEST ATOMIC GRADIENTS

          Atom     Label                     Cartesian Gradients           Cartesian Coordinates       |Gradient|
                                           X          Y          Z        X          Y          Z

            18       H                  -0.311      0.242     -0.007    2.35366   -2.06600   -0.31243      0.394
             9       C                   0.261     -0.241     -0.020    0.99477    0.91577    0.60741      0.356
             2       O                  -0.279      0.167      0.129   -1.15282    0.18458    1.12714      0.349
            12       H                   0.242      0.163     -0.192   -2.26284   -1.48820    0.55247      0.349
            14       H                   0.053     -0.217     -0.252   -0.09788    0.98871   -1.98580      0.337
             8       C                   0.230     -0.008     -0.233    2.14021   -0.02982    0.40353      0.328
            17       H                  -0.168      0.195     -0.170   -0.01241   -1.59891   -1.30115      0.308
            11       H                   0.252     -0.146     -0.101   -3.03242    0.11365    0.26666      0.308
             7       C                  -0.143     -0.143      0.185    1.74328   -1.21387   -0.08000      0.274
            16       H                   0.062      0.201      0.084   -0.19444   -2.01748    0.41113      0.227



       FINAL  POINT  AND  DERIVATIVES

   PARAMETER     ATOM    TYPE            VALUE        GRADIENT
      1          1  C    CARTESIAN X    -2.390101     -0.155481  KCAL/ANGSTROM
      2          1  C    CARTESIAN Y    -0.471187     -0.031091  KCAL/ANGSTROM
      3          1  C    CARTESIAN Z     0.932413      0.036586  KCAL/ANGSTROM
      4          2  O    CARTESIAN X    -1.152820     -0.278708  KCAL/ANGSTROM
      5          2  O    CARTESIAN Y     0.184583      0.166527  KCAL/ANGSTROM
      6          2  O    CARTESIAN Z     1.127136      0.128745  KCAL/ANGSTROM
      7          3  C    CARTESIAN X    -0.240702      0.024240  KCAL/ANGSTROM
      8          3  C    CARTESIAN Y     0.152358     -0.040033  KCAL/ANGSTROM
      9          3  C    CARTESIAN Z     0.047177      0.191444  KCAL/ANGSTROM
     10          4  C    CARTESIAN X    -0.843309      0.102579  KCAL/ANGSTROM
     11          4  C    CARTESIAN Y     0.851688     -0.003045  KCAL/ANGSTROM
     12          4  C    CARTESIAN Z    -1.180206      0.001199  KCAL/ANGSTROM
     13          5  O    CARTESIAN X    -1.246459     -0.071653  KCAL/ANGSTROM
     14          5  O    CARTESIAN Y     2.165986      0.011319  KCAL/ANGSTROM
     15          5  O    CARTESIAN Z    -0.857220     -0.003737  KCAL/ANGSTROM
     16          6  C    CARTESIAN X     0.255835      0.031643  KCAL/ANGSTROM
     17          6  C    CARTESIAN Y    -1.281106      0.000074  KCAL/ANGSTROM
     18          6  C    CARTESIAN Z    -0.281713      0.009139  KCAL/ANGSTROM
     19          7  C    CARTESIAN X     1.743285     -0.143053  KCAL/ANGSTROM
     20          7  C    CARTESIAN Y    -1.213869     -0.143130  KCAL/ANGSTROM
     21          7  C    CARTESIAN Z    -0.080001      0.184883  KCAL/ANGSTROM
     22          8  C    CARTESIAN X     2.140213      0.230061  KCAL/ANGSTROM
     23          8  C    CARTESIAN Y    -0.029822     -0.008209  KCAL/ANGSTROM
     24          8  C    CARTESIAN Z     0.403526     -0.233223  KCAL/ANGSTROM
     25          9  C    CARTESIAN X     0.994765      0.260978  KCAL/ANGSTROM
     26          9  C    CARTESIAN Y     0.915773     -0.240698  KCAL/ANGSTROM
     27          9  C    CARTESIAN Z     0.607414     -0.020178  KCAL/ANGSTROM
     28         10  H    CARTESIAN X    -2.812118      0.084673  KCAL/ANGSTROM
     29         10  H    CARTESIAN Y    -0.498245     -0.102618  KCAL/ANGSTROM
     30         10  H    CARTESIAN Z     1.946199     -0.017181  KCAL/ANGSTROM
     31         11  H    CARTESIAN X    -3.032424      0.251782  KCAL/ANGSTROM
     32         11  H    CARTESIAN Y     0.113649     -0.145983  KCAL/ANGSTROM
     33         11  H    CARTESIAN Z     0.266664     -0.100928  KCAL/ANGSTROM
     34         12  H    CARTESIAN X    -2.262842      0.241688  KCAL/ANGSTROM
     35         12  H    CARTESIAN Y    -1.488199      0.162992  KCAL/ANGSTROM
     36         12  H    CARTESIAN Z     0.552467     -0.191957  KCAL/ANGSTROM
     37         13  H    CARTESIAN X    -1.720091     -0.146948  KCAL/ANGSTROM
     38         13  H    CARTESIAN Y     0.315443     -0.034390  KCAL/ANGSTROM
     39         13  H    CARTESIAN Z    -1.583227      0.112735  KCAL/ANGSTROM
     40         14  H    CARTESIAN X    -0.097876      0.053351  KCAL/ANGSTROM
     41         14  H    CARTESIAN Y     0.988712     -0.217144  KCAL/ANGSTROM
     42         14  H    CARTESIAN Z    -1.985800     -0.252275  KCAL/ANGSTROM
     43         15  H    CARTESIAN X    -1.610147     -0.024391  KCAL/ANGSTROM
     44         15  H    CARTESIAN Y     2.185328     -0.066859  KCAL/ANGSTROM
     45         15  H    CARTESIAN Z     0.056392      0.043470  KCAL/ANGSTROM
     46         16  H    CARTESIAN X    -0.194440      0.062445  KCAL/ANGSTROM
     47         16  H    CARTESIAN Y    -2.017477      0.201348  KCAL/ANGSTROM
     48         16  H    CARTESIAN Z     0.411127      0.084041  KCAL/ANGSTROM
     49         17  H    CARTESIAN X    -0.012407     -0.168012  KCAL/ANGSTROM
     50         17  H    CARTESIAN Y    -1.598908      0.194655  KCAL/ANGSTROM
     51         17  H    CARTESIAN Z    -1.301152     -0.170208  KCAL/ANGSTROM
     52         18  H    CARTESIAN X     2.353665     -0.310676  KCAL/ANGSTROM
     53         18  H    CARTESIAN Y    -2.065997      0.242243  KCAL/ANGSTROM
     54         18  H    CARTESIAN Z    -0.312427     -0.006915  KCAL/ANGSTROM
     55         19  H    CARTESIAN X     3.141023     -0.041154  KCAL/ANGSTROM
     56         19  H    CARTESIAN Y     0.277699      0.054654  KCAL/ANGSTROM
     57         19  H    CARTESIAN Z     0.647648      0.156944  KCAL/ANGSTROM
     58         20  H    CARTESIAN X     1.140634     -0.041462  KCAL/ANGSTROM
     59         20  H    CARTESIAN Y     1.884187     -0.039113  KCAL/ANGSTROM
     60         20  H    CARTESIAN Z     0.097505      0.073941  KCAL/ANGSTROM
     61         21  H    CARTESIAN X     0.849607      0.038094  KCAL/ANGSTROM
     62         21  H    CARTESIAN Y     1.152644      0.038466  KCAL/ANGSTROM
     63         21  H    CARTESIAN Z     1.680816     -0.026524  KCAL/ANGSTROM




   ATOM   CHEMICAL          X               Y               Z
  NUMBER   SYMBOL      (ANGSTROMS)     (ANGSTROMS)     (ANGSTROMS)

     1       C         -2.39010096  *  -0.47118708  *   0.93241298  *
     2       O         -1.15281974  *   0.18458333  *   1.12713611  *
     3       C         -0.24070217  *   0.15235802  *   0.04717654  *
     4       C         -0.84330932  *   0.85168789  *  -1.18020572  *
     5       O         -1.24645943  *   2.16598602  *  -0.85721954  *
     6       C          0.25583510  *  -1.28110583  *  -0.28171279  *
     7       C          1.74328473  *  -1.21386857  *  -0.08000080  *
     8       C          2.14021302  *  -0.02982156  *   0.40352550  *
     9       C          0.99476528  *   0.91577329  *   0.60741365  *
    10       H         -2.81211801  *  -0.49824483  *   1.94619940  *
    11       H         -3.03242386  *   0.11364891  *   0.26666398  *
    12       H         -2.26284228  *  -1.48819934  *   0.55246665  *
    13       H         -1.72009111  *   0.31544287  *  -1.58322745  *
    14       H         -0.09787602  *   0.98871244  *  -1.98580013  *
    15       H         -1.61014729  *   2.18532828  *   0.05639151  *
    16       H         -0.19444035  *  -2.01747660  *   0.41112705  *
    17       H         -0.01240658  *  -1.59890761  *  -1.30115225  *
    18       H          2.35366482  *  -2.06599690  *  -0.31242735  *
    19       H          3.14102324  *   0.27769871  *   0.64764826  *
    20       H          1.14063366  *   1.88418654  *   0.09750476  *
    21       H          0.84960671  *   1.15264422  *   1.68081588  *

                             CARTESIAN COORDINATES

   1    C       -2.390100959    -0.471187082     0.932412981
   2    O       -1.152819739     0.184583326     1.127136108
   3    C       -0.240702174     0.152358017     0.047176540
   4    C       -0.843309318     0.851687889    -1.180205719
   5    O       -1.246459433     2.165986018    -0.857219540
   6    C        0.255835095    -1.281105832    -0.281712790
   7    C        1.743284726    -1.213868569    -0.080000798
   8    C        2.140213021    -0.029821559     0.403525502
   9    C        0.994765277     0.915773289     0.607413649
  10    H       -2.812118007    -0.498244832     1.946199395
  11    H       -3.032423864     0.113648907     0.266663981
  12    H       -2.262842284    -1.488199340     0.552466650
  13    H       -1.720091110     0.315442865    -1.583227452
  14    H       -0.097876023     0.988712442    -1.985800130
  15    H       -1.610147293     2.185328275     0.056391512
  16    H       -0.194440350    -2.017476600     0.411127049
  17    H       -0.012406582    -1.598907607    -1.301152252
  18    H        2.353664819    -2.065996896    -0.312427346
  19    H        3.141023241     0.277698712     0.647648256
  20    H        1.140633658     1.884186545     0.097504756
  21    H        0.849606713     1.152644222     1.680815876


           Empirical Formula: C7 H12 O2  =    21 atoms



      MOLECULAR POINT GROUP   :   C1  


                  EIGENVALUES  
 -31.18968 -29.30813 -28.83355 -25.33341 -25.27123 -24.03609 -22.43300 -19.49369
 -18.72646 -17.58321 -17.51065 -16.03561 -15.36649 -15.14008 -14.57960 -14.15562
 -14.00948 -13.42189 -13.30430 -12.44519 -12.39200 -12.04492 -11.73614 -10.68177
 -10.12140  -9.74792   1.01664   2.01835   2.90290   3.29381   3.60492   3.82305
   4.41888   4.59330   4.64990   5.30675   5.37314   5.45941   5.60447   5.63626
   5.77711   6.00367   6.05012   6.08739   6.20887   6.31045   6.38565   6.56390


              NET ATOMIC CHARGES AND DIPOLE CONTRIBUTIONS

  ATOM NO.   TYPE          CHARGE      No. of ELECS.   s-Pop       p-Pop       
    1          C          -0.200835        4.2008     1.08106     3.11977
    2          O          -0.411162        6.4112     1.87649     4.53467
    3          C           0.221938        3.7781     1.10030     2.67776
    4          C          -0.066774        4.0668     1.09574     2.97103
    5          O          -0.540209        6.5402     1.85233     4.68788
    6          C          -0.336977        4.3370     1.06923     3.26775
    7          C          -0.163599        4.1636     1.09092     3.07267
    8          C          -0.148316        4.1483     1.09343     3.05489
    9          C          -0.306155        4.3062     1.06784     3.23832
   10          H           0.149016        0.8510     0.85098
   11          H           0.126300        0.8737     0.87370
   12          H           0.123124        0.8769     0.87688
   13          H           0.122671        0.8773     0.87733
   14          H           0.150428        0.8496     0.84957
   15          H           0.325609        0.6744     0.67439
   16          H           0.165493        0.8345     0.83451
   17          H           0.149225        0.8508     0.85077
   18          H           0.148351        0.8516     0.85165
   19          H           0.150645        0.8494     0.84935
   20          H           0.168944        0.8311     0.83106
   21          H           0.172282        0.8277     0.82772
 DIPOLE           X         Y         Z       TOTAL
 POINT-CHG.    -0.319    -2.327    -0.422     2.386
 HYBRID        -0.292     0.152     0.439     0.549
 SUM           -0.611    -2.174     0.017     2.259


          ATOMIC ORBITAL ELECTRON POPULATIONS

     Atom    s        px        py        pz   
    1  C   1.08106   0.89000   1.07620   1.15357
    2  O   1.87649   1.32318   1.77660   1.43490
    3  C   1.10030   0.86966   0.94227   0.86583
    4  C   1.09574   1.09339   0.84339   1.03425
    5  O   1.85233   1.87164   1.34449   1.47175
    6  C   1.06923   1.04133   1.07095   1.15546
    7  C   1.09092   0.99678   1.04527   1.03063
    8  C   1.09343   1.05120   0.99690   1.00678
    9  C   1.06784   0.99079   1.08562   1.16190
   10  H   0.85098
   11  H   0.87370
   12  H   0.87688
   13  H   0.87733
   14  H   0.84957
   15  H   0.67439
   16  H   0.83451
   17  H   0.85077
   18  H   0.85165
   19  H   0.84935
   20  H   0.83106
   21  H   0.82772

 **********************
 *                    *
 * JOB ENDED NORMALLY *
 *                    *
 **********************



 TOTAL JOB TIME:             1.42 SECONDS

 == MOPAC DONE ==
