 *******************************************************************************
 **                                                                           **
 **                              MOPAC v23.2                                  **
 **                                                                           **
 *******************************************************************************
 **          Digital Object Identifier (DOI): 10.5281/zenodo.6511958          **
 **    Visit the DOI location for information on how to cite this program.    **
 *******************************************************************************

                              PM7 CALCULATION RESULTS

 *******************************************************************************
 *  CALCULATION DONE: (MAX THREADS = 40)             Fri Sep 19 21:29:35 2025  *
 *  PM7        - The PM7 Hamiltonian to be used
 *
 *
 *
 *                 CHARGE ON SYSTEM = +1
 *
 *
 *
 *  EPS=37.5   - USE ANDREAS KLAMT'S COSMO IMPLICIT SOLVATION MODEL
 *  1SCF       - DO 1 SCF AND THEN STOP 
 *  T=         - A TIME OF 172800.0 SECONDS REQUESTED
 *  DUMP=N     - RESTART FILE WRITTEN EVERY 7200.0 SECONDS REQUESTED
 *  RELSCF     - DEFAULT SCF CRITERION MULTIPLIED BY 0.0001
 *              (DEFAULT SCF CRITERION = 0.00010)
 *  GRADIENTS  - ALL GRADIENTS TO BE PRINTED
 *  DISP       - PRINT DISPERSION AND HYDROGEN BOND ENERGIES
 *******************************************************************************
PM7 1SCF GRADIENTS EPS=37.5 DISP RELSCF=0.0001 CHARGE=1
 Title: ASE calculation

   ATOM   CHEMICAL          X               Y               Z
  NUMBER   SYMBOL      (ANGSTROMS)     (ANGSTROMS)     (ANGSTROMS)

     1       C         -2.57163366  *   1.20122987  *  -0.03252280  *
     2       C         -1.89067549  *   0.01422782  *  -0.71951335  *
     3       C         -2.69244357  *  -1.27768834  *  -0.52745326  *
     4       C         -0.55330588  *  -0.17845642  *  -0.12551742  *
     5       N         -0.09790193  *  -0.40907648  *   1.11109803  *
     6       C          1.25003629  *  -0.52680104  *   1.07758738  *
     7       C          1.66852666  *  -0.34951366  *  -0.31029166  *
     8       N          2.82231163  *  -0.35301294  *  -0.95069464  *
     9       O          0.52549564  *  -0.13029575  *  -1.04693814  *
    10       H         -2.01952540  *   2.14028256  *  -0.16516064  *
    11       H         -3.58018358  *   1.36078261  *  -0.44983057  *
    12       H         -2.70109022  *   1.03858960  *   1.04877892  *
    13       H         -1.79797915  *   0.23067433  *  -1.82326774  *
    14       H         -2.82462350  *  -1.53017353  *   0.53603301  *
    15       H         -3.70482711  *  -1.17009679  *  -0.95255037  *
    16       H         -2.22862735  *  -2.14028256  *  -1.02200215  *
    17       H          1.85913655  *  -0.71904096  *   1.95600714  *
    18       H          2.87518262  *  -0.18857089  *  -1.95600714  *
    19       H          3.70482711  *  -0.52052096  *  -0.47159872  *



          CARTESIAN COORDINATES 

    NO.       ATOM           X           Y           Z

     1         C         -2.5716      1.2012     -0.0325
     2         C         -1.8907      0.0142     -0.7195
     3         C         -2.6924     -1.2777     -0.5275
     4         C         -0.5533     -0.1785     -0.1255
     5         N         -0.0979     -0.4091      1.1111
     6         C          1.2500     -0.5268      1.0776
     7         C          1.6685     -0.3495     -0.3103
     8         N          2.8223     -0.3530     -0.9507
     9         O          0.5255     -0.1303     -1.0469
    10         H         -2.0195      2.1403     -0.1652
    11         H         -3.5802      1.3608     -0.4498
    12         H         -2.7011      1.0386      1.0488
    13         H         -1.7980      0.2307     -1.8233
    14         H         -2.8246     -1.5302      0.5360
    15         H         -3.7048     -1.1701     -0.9526
    16         H         -2.2286     -2.1403     -1.0220
    17         H          1.8591     -0.7190      1.9560
    18         H          2.8752     -0.1886     -1.9560
    19         H          3.7048     -0.5205     -0.4716

 General Reference for PM7:
 "Optimization of Parameters for Semiempirical Methods VI: More Modifications to the 
 NDDO Approximations and Re-optimization of Parameters", J. J. P. Stewart, J. Mol. Mod., 1:32, 19 (2013)
 https://link.springer.com/article/10.1007/s00894-012-1667-x

           Empirical Formula: C6 H10 N2 O  =    19 atoms



      MOLECULAR POINT GROUP   :   C1  


          UHF CALCULATION, NO. OF ALPHA ELECTRONS =   25
                           NO. OF BETA  ELECTRONS =   24
  SCF CRITERION =    0.1000E-07

 -------------------------------------------------------------------------------
 PM7 1SCF GRADIENTS EPS=37.5 DISP RELSCF=0.0001 CHARGE=1
 Title: ASE calculation



     1SCF WAS SPECIFIED, SO BFGS WAS NOT USED                 
     SCF FIELD WAS ACHIEVED                                   


                              PM7 CALCULATION
                                                       MOPAC v23.2 Linux
                                                       Fri Sep 19 21:29:36 2025




          FINAL HEAT OF FORMATION =         98.18329 KCAL/MOL =     410.79889 KJ/MOL

          TOTAL ENERGY            =     -35380.13098 KCAL/MOL = ELECTRONIC ENERGY + CORE-CORE REPULSION + SOLVATION ENERGY
          ENERGY OF ATOMS         =      35480.40871 KCAL/MOL
                              SUM =        100.27773 KCAL/MOL
          DISPERSION ENERGY       =         -2.09444 KCAL/MOL
                              SUM =         98.18329 KCAL/MOL = FINAL HEAT OF FORMATION

          VAN DER WAALS AREA      =        168.32 SQUARE ANGSTROMS


          TOTAL ENERGY            =      -1534.22769 EV
          ELECTRONIC ENERGY       =      -2185.01208 EV 
          CORE-CORE REPULSION     =        650.78439 EV

          DIELECTRIC ENERGY       =         -2.79628 EV
          COSMO AREA              =        168.32 SQUARE ANGSTROMS
          COSMO VOLUME            =        161.61 CUBIC ANGSTROMS

          GRADIENT NORM           =         41.25067          =       9.46355 PER ATOM
          IONIZATION POTENTIAL    =         10.073101 EV
          ALPHA SOMO LUMO (EV)    =        -10.073 -1.058
          BETA  SOMO LUMO (EV)    =        -12.379 -2.594
          NO. OF ALPHA ELECTRONS  =         25
          NO. OF BETA  ELECTRONS  =         24
          MOLECULAR WEIGHT        =        126.1578         POINT GROUP:  C1  

          MOLECULAR DIMENSIONS (Angstroms)

            Atom       Atom       Distance
            H    19    H    11     7.52404
            H    10    H    16     4.28295
            H    18    H    17     3.98410


          SCF CALCULATIONS        =          2

          WALL-CLOCK TIME         =      1.188 SECONDS
          COMPUTATION TIME        =      1.552 SECONDS

          LARGEST ATOMIC GRADIENTS

          Atom     Label                     Cartesian Gradients           Cartesian Coordinates       |Gradient|
                                           X          Y          Z        X          Y          Z

             8       N                  18.722     -0.542     -9.072    2.82231   -0.35301   -0.95069     20.811
             7       C                 -20.245      1.544      1.279    1.66853   -0.34951   -0.31029     20.344
             5       N                  16.461     -1.588      1.241   -0.09790   -0.40908    1.11110     16.584
             9       O                  13.927     -1.338     -0.246    0.52550   -0.13030   -1.04694     13.993
             4       C                 -12.361      0.508      3.680   -0.55331   -0.17846   -0.12552     12.907
             6       C                 -11.680      0.764      2.154    1.25004   -0.52680    1.07759     11.901
             3       C                   4.204     -0.518     -0.647   -2.69244   -1.27769   -0.52745      4.285
             1       C                   4.061      0.001     -0.774   -2.57163    1.20123   -0.03252      4.134
             2       C                   0.379      0.646     -2.951   -1.89068    0.01423   -0.71951      3.045
            17       H                  -1.789     -0.145      1.844    1.85914   -0.71904    1.95601      2.573



       FINAL  POINT  AND  DERIVATIVES

   PARAMETER     ATOM    TYPE            VALUE        GRADIENT
      1          1  C    CARTESIAN X    -2.571634      4.060876  KCAL/ANGSTROM
      2          1  C    CARTESIAN Y     1.201230      0.001383  KCAL/ANGSTROM
      3          1  C    CARTESIAN Z    -0.032523     -0.773708  KCAL/ANGSTROM
      4          2  C    CARTESIAN X    -1.890675      0.379088  KCAL/ANGSTROM
      5          2  C    CARTESIAN Y     0.014228      0.645968  KCAL/ANGSTROM
      6          2  C    CARTESIAN Z    -0.719513     -2.951311  KCAL/ANGSTROM
      7          3  C    CARTESIAN X    -2.692444      4.204429  KCAL/ANGSTROM
      8          3  C    CARTESIAN Y    -1.277688     -0.518102  KCAL/ANGSTROM
      9          3  C    CARTESIAN Z    -0.527453     -0.647109  KCAL/ANGSTROM
     10          4  C    CARTESIAN X    -0.553306    -12.360600  KCAL/ANGSTROM
     11          4  C    CARTESIAN Y    -0.178456      0.508131  KCAL/ANGSTROM
     12          4  C    CARTESIAN Z    -0.125517      3.680448  KCAL/ANGSTROM
     13          5  N    CARTESIAN X    -0.097902     16.460922  KCAL/ANGSTROM
     14          5  N    CARTESIAN Y    -0.409076     -1.588037  KCAL/ANGSTROM
     15          5  N    CARTESIAN Z     1.111098      1.241149  KCAL/ANGSTROM
     16          6  C    CARTESIAN X     1.250036    -11.679820  KCAL/ANGSTROM
     17          6  C    CARTESIAN Y    -0.526801      0.764116  KCAL/ANGSTROM
     18          6  C    CARTESIAN Z     1.077587      2.154132  KCAL/ANGSTROM
     19          7  C    CARTESIAN X     1.668527    -20.245403  KCAL/ANGSTROM
     20          7  C    CARTESIAN Y    -0.349514      1.543591  KCAL/ANGSTROM
     21          7  C    CARTESIAN Z    -0.310292      1.279493  KCAL/ANGSTROM
     22          8  N    CARTESIAN X     2.822312     18.721932  KCAL/ANGSTROM
     23          8  N    CARTESIAN Y    -0.353013     -0.541806  KCAL/ANGSTROM
     24          8  N    CARTESIAN Z    -0.950695     -9.072447  KCAL/ANGSTROM
     25          9  O    CARTESIAN X     0.525496     13.927000  KCAL/ANGSTROM
     26          9  O    CARTESIAN Y    -0.130296     -1.337525  KCAL/ANGSTROM
     27          9  O    CARTESIAN Z    -1.046938     -0.245567  KCAL/ANGSTROM
     28         10  H    CARTESIAN X    -2.019525     -1.009804  KCAL/ANGSTROM
     29         10  H    CARTESIAN Y     2.140283      0.983302  KCAL/ANGSTROM
     30         10  H    CARTESIAN Z    -0.165161      0.256086  KCAL/ANGSTROM
     31         11  H    CARTESIAN X    -3.580184     -1.182997  KCAL/ANGSTROM
     32         11  H    CARTESIAN Y     1.360783      0.045836  KCAL/ANGSTROM
     33         11  H    CARTESIAN Z    -0.449831     -0.000306  KCAL/ANGSTROM
     34         12  H    CARTESIAN X    -2.701090     -1.135106  KCAL/ANGSTROM
     35         12  H    CARTESIAN Y     1.038590     -0.074594  KCAL/ANGSTROM
     36         12  H    CARTESIAN Z     1.048779      1.457337  KCAL/ANGSTROM
     37         13  H    CARTESIAN X    -1.797979     -0.980241  KCAL/ANGSTROM
     38         13  H    CARTESIAN Y     0.230674      0.117931  KCAL/ANGSTROM
     39         13  H    CARTESIAN Z    -1.823268     -0.097351  KCAL/ANGSTROM
     40         14  H    CARTESIAN X    -2.824623     -1.130389  KCAL/ANGSTROM
     41         14  H    CARTESIAN Y    -1.530174     -0.215988  KCAL/ANGSTROM
     42         14  H    CARTESIAN Z     0.536033      1.337388  KCAL/ANGSTROM
     43         15  H    CARTESIAN X    -3.704827     -1.337022  KCAL/ANGSTROM
     44         15  H    CARTESIAN Y    -1.170097      0.054006  KCAL/ANGSTROM
     45         15  H    CARTESIAN Z    -0.952550      0.062037  KCAL/ANGSTROM
     46         16  H    CARTESIAN X    -2.228627     -0.970232  KCAL/ANGSTROM
     47         16  H    CARTESIAN Y    -2.140283     -0.833953  KCAL/ANGSTROM
     48         16  H    CARTESIAN Z    -1.022002     -0.129013  KCAL/ANGSTROM
     49         17  H    CARTESIAN X     1.859137     -1.788633  KCAL/ANGSTROM
     50         17  H    CARTESIAN Y    -0.719041     -0.144877  KCAL/ANGSTROM
     51         17  H    CARTESIAN Z     1.956007      1.843845  KCAL/ANGSTROM
     52         18  H    CARTESIAN X     2.875183     -1.800035  KCAL/ANGSTROM
     53         18  H    CARTESIAN Y    -0.188571      0.415118  KCAL/ANGSTROM
     54         18  H    CARTESIAN Z    -1.956007      1.197097  KCAL/ANGSTROM
     55         19  H    CARTESIAN X     3.704827     -2.133963  KCAL/ANGSTROM
     56         19  H    CARTESIAN Y    -0.520521      0.175499  KCAL/ANGSTROM
     57         19  H    CARTESIAN Z    -0.471599     -0.592205  KCAL/ANGSTROM




   ATOM   CHEMICAL          X               Y               Z
  NUMBER   SYMBOL      (ANGSTROMS)     (ANGSTROMS)     (ANGSTROMS)

     1       C         -2.57163366  *   1.20122987  *  -0.03252280  *
     2       C         -1.89067549  *   0.01422782  *  -0.71951335  *
     3       C         -2.69244357  *  -1.27768834  *  -0.52745326  *
     4       C         -0.55330588  *  -0.17845642  *  -0.12551742  *
     5       N         -0.09790193  *  -0.40907648  *   1.11109803  *
     6       C          1.25003629  *  -0.52680104  *   1.07758738  *
     7       C          1.66852666  *  -0.34951366  *  -0.31029166  *
     8       N          2.82231163  *  -0.35301294  *  -0.95069464  *
     9       O          0.52549564  *  -0.13029575  *  -1.04693814  *
    10       H         -2.01952540  *   2.14028256  *  -0.16516064  *
    11       H         -3.58018358  *   1.36078261  *  -0.44983057  *
    12       H         -2.70109022  *   1.03858960  *   1.04877892  *
    13       H         -1.79797915  *   0.23067433  *  -1.82326774  *
    14       H         -2.82462350  *  -1.53017353  *   0.53603301  *
    15       H         -3.70482711  *  -1.17009679  *  -0.95255037  *
    16       H         -2.22862735  *  -2.14028256  *  -1.02200215  *
    17       H          1.85913655  *  -0.71904096  *   1.95600714  *
    18       H          2.87518262  *  -0.18857089  *  -1.95600714  *
    19       H          3.70482711  *  -0.52052096  *  -0.47159872  *

                             CARTESIAN COORDINATES

   1    C       -2.571633660     1.201229870    -0.032522804
   2    C       -1.890675490     0.014227821    -0.719513348
   3    C       -2.692443575    -1.277688343    -0.527453257
   4    C       -0.553305881    -0.178456420    -0.125517422
   5    N       -0.097901933    -0.409076483     1.111098028
   6    C        1.250036292    -0.526801038     1.077587382
   7    C        1.668526661    -0.349513655    -0.310291663
   8    N        2.822311628    -0.353012943    -0.950694639
   9    O        0.525495638    -0.130295748    -1.046938140
  10    H       -2.019525399     2.140282561    -0.165160641
  11    H       -3.580183575     1.360782613    -0.449830573
  12    H       -2.701090217     1.038589604     1.048778920
  13    H       -1.797979152     0.230674333    -1.823267737
  14    H       -2.824623496    -1.530173533     0.536033013
  15    H       -3.704827115    -1.170096789    -0.952550372
  16    H       -2.228627348    -2.140282561    -1.022002149
  17    H        1.859136548    -0.719040959     1.956007140
  18    H        2.875182623    -0.188570886    -1.956007140
  19    H        3.704827115    -0.520520958    -0.471598718


           Empirical Formula: C6 H10 N2 O  =    19 atoms



      MOLECULAR POINT GROUP   :   C1  


          ALPHA EIGENVALUES  
 -38.68635 -37.94506 -31.71268 -29.87192 -26.10154 -24.44610 -23.56005 -22.95162
 -20.54730 -19.31888 -18.20537 -17.94391 -17.47193 -16.11380 -15.66356 -15.03869
 -14.94588 -13.95055 -13.53014 -13.24709 -13.05900 -12.80952 -12.69428 -12.34278
 -10.07310  -1.05752  -0.32641  -0.19653   1.10239   1.40784   2.04539   2.27502
   3.03448   3.30069   3.70597   4.11274   4.69359   4.74926   5.04989   5.39441
   5.41337   5.47606   5.51025   5.57802   6.48969   6.58968


           BETA EIGENVALUES 
 -38.16466 -37.84399 -31.89573 -29.82367 -25.91750 -24.42636 -23.51653 -22.84428
 -20.50258 -19.21282 -18.04685 -17.86640 -17.14363 -16.06079 -15.65516 -14.87023
 -14.79758 -13.74425 -13.29489 -13.01527 -12.86821 -12.78722 -12.47145 -12.37944
  -2.59419  -0.34047  -0.14242   0.54084   1.30456   1.48539   2.08040   2.43604
   3.10123   3.33465   3.73262   4.18363   4.84097   4.89046   5.05741   5.39651
   5.41926   5.47815   5.51243   5.72313   6.49089   6.59164


              NET ATOMIC CHARGES AND DIPOLE CONTRIBUTIONS

  ATOM NO.   TYPE          CHARGE      No. of ELECS.   s-Pop       p-Pop       
    1          C          -0.446380        4.4464     1.05653     3.38985
    2          C          -0.095048        4.0950     1.05879     3.03626
    3          C          -0.447983        4.4480     1.05702     3.39096
    4          C           0.398546        3.6015     1.16589     2.43557
    5          N          -0.427487        5.4275     1.74744     3.68004
    6          C           0.038759        3.9612     1.12688     2.83436
    7          C           0.287748        3.7123     1.09570     2.61655
    8          N          -0.222016        5.2220     1.49471     3.72731
    9          O          -0.292128        6.2921     1.88206     4.41007
   10          H           0.163317        0.8367     0.83668
   11          H           0.179355        0.8206     0.82065
   12          H           0.167839        0.8322     0.83216
   13          H           0.197622        0.8024     0.80238
   14          H           0.168546        0.8315     0.83145
   15          H           0.180277        0.8197     0.81972
   16          H           0.162919        0.8371     0.83708
   17          H           0.245438        0.7546     0.75456
   18          H           0.366576        0.6334     0.63342
   19          H           0.374100        0.6259     0.62590
 DIPOLE           X         Y         Z       TOTAL
 POINT-CHG.     9.041    -0.437    -2.342     9.349
 HYBRID         1.028     0.086    -1.119     1.522
 SUM           10.069    -0.350    -3.461    10.653


          ATOMIC ORBITAL ELECTRON POPULATIONS

     Atom    s        px        py        pz   
    1  C   1.05653   1.16034   1.06728   1.16223
    2  C   1.05879   0.89596   1.02289   1.11741
    3  C   1.05702   1.14429   1.04633   1.20034
    4  C   1.16589   0.86850   0.80432   0.76275
    5  N   1.74744   1.17191   1.23502   1.27311
    6  C   1.12688   0.89177   0.95478   0.98782
    7  C   1.09570   0.78992   0.90937   0.91726
    8  N   1.49471   1.13595   1.35615   1.23520
    9  O   1.88206   1.24341   1.75912   1.40753
   10  H   0.83668
   11  H   0.82065
   12  H   0.83216
   13  H   0.80238
   14  H   0.83145
   15  H   0.81972
   16  H   0.83708
   17  H   0.75456
   18  H   0.63342
   19  H   0.62590


                    (SZ)    =    0.500000
                    (S**2)  =    0.840213


          ATOMIC ORBITAL SPIN POPULATIONS

    Atom   Total    s     px     py     pz   
         Atomic
    1  C  0.0121  0.002  0.004  0.005  0.001
    2  C -0.0168 -0.002 -0.010 -0.002 -0.003
    3  C  0.0142  0.002  0.005  0.006  0.000
    4  C  0.3865  0.012  0.015  0.339  0.020
    5  N -0.1733 -0.003 -0.021 -0.134 -0.016
    6  C  0.5835  0.016  0.024  0.513  0.031
    7  C -0.1464 -0.011 -0.012 -0.105 -0.018
    8  N  0.4402  0.019  0.022  0.371  0.029
    9  O -0.0478 -0.001 -0.004 -0.036 -0.006
   10  H -0.0005 -0.000
   11  H  0.0001  0.000
   12  H -0.0003 -0.000
   13  H  0.0007  0.001
   14  H -0.0004 -0.000
   15  H  0.0002  0.000
   16  H -0.0005 -0.001
   17  H -0.0152 -0.015
   18  H -0.0185 -0.019
   19  H -0.0180 -0.018

 **********************
 *                    *
 * JOB ENDED NORMALLY *
 *                    *
 **********************



 TOTAL JOB TIME:             1.59 SECONDS

 == MOPAC DONE ==
