 *******************************************************************************
 **                                                                           **
 **                              MOPAC v23.2                                  **
 **                                                                           **
 *******************************************************************************
 **          Digital Object Identifier (DOI): 10.5281/zenodo.6511958          **
 **    Visit the DOI location for information on how to cite this program.    **
 *******************************************************************************

                              PM7 CALCULATION RESULTS

 *******************************************************************************
 *  CALCULATION DONE: (MAX THREADS = 40)             Fri Sep 19 21:32:58 2025  *
 *  PM7        - The PM7 Hamiltonian to be used
 *
 *
 *
 *                 CHARGE ON SYSTEM = +1
 *
 *
 *
 *  EPS=37.5   - USE ANDREAS KLAMT'S COSMO IMPLICIT SOLVATION MODEL
 *  1SCF       - DO 1 SCF AND THEN STOP 
 *  T=         - A TIME OF 172800.0 SECONDS REQUESTED
 *  DUMP=N     - RESTART FILE WRITTEN EVERY 7200.0 SECONDS REQUESTED
 *  RELSCF     - DEFAULT SCF CRITERION MULTIPLIED BY 0.0001
 *              (DEFAULT SCF CRITERION = 0.00010)
 *  GRADIENTS  - ALL GRADIENTS TO BE PRINTED
 *  DISP       - PRINT DISPERSION AND HYDROGEN BOND ENERGIES
 *******************************************************************************
PM7 1SCF GRADIENTS EPS=37.5 DISP RELSCF=0.0001 CHARGE=1
 Title: ASE calculation

   ATOM   CHEMICAL          X               Y               Z
  NUMBER   SYMBOL      (ANGSTROMS)     (ANGSTROMS)     (ANGSTROMS)

     1       C         -1.87789876  *   1.44396863  *   0.03342885  *
     2       C         -0.67588117  *   0.64552647  *   0.21370841  *
     3       C          0.64178848  *   1.31926102  *   0.24498382  *
     4       O          0.71582000  *   2.52180168  *   0.12154208  *
     5       C          1.80890396  *   0.45284348  *   0.42965387  *
     6       C          1.68588807  *  -0.87825971  *   0.56246170  *
     7       N          0.42210525  *  -1.51724038  *   0.53157195  *
     8       C         -0.72936008  *  -0.79963462  *   0.36427149  *
     9       N         -1.90888849  *  -1.46082290  *   0.34240447  *
    10       H         -1.65112392  *   2.53461845  *  -0.06551135  *
    11       H         -2.44468379  *   1.19156724  *  -0.88500071  *
    12       H         -2.58454854  *   1.38111073  *   0.88500071  *
    13       H          2.78489686  *   0.95886485  *   0.45220346  *
    14       H          2.53556098  *  -1.56652578  *   0.70291420  *
    15       H          0.40103599  *  -2.53461845  *   0.63881125  *
    16       H         -2.78489686  *  -0.96412858  *   0.22037259  *
    17       H         -1.98674924  *  -2.46266513  *   0.44348628  *



          CARTESIAN COORDINATES 

    NO.       ATOM           X           Y           Z

     1         C         -1.8779      1.4440      0.0334
     2         C         -0.6759      0.6455      0.2137
     3         C          0.6418      1.3193      0.2450
     4         O          0.7158      2.5218      0.1215
     5         C          1.8089      0.4528      0.4297
     6         C          1.6859     -0.8783      0.5625
     7         N          0.4221     -1.5172      0.5316
     8         C         -0.7294     -0.7996      0.3643
     9         N         -1.9089     -1.4608      0.3424
    10         H         -1.6511      2.5346     -0.0655
    11         H         -2.4447      1.1916     -0.8850
    12         H         -2.5845      1.3811      0.8850
    13         H          2.7849      0.9589      0.4522
    14         H          2.5356     -1.5665      0.7029
    15         H          0.4010     -2.5346      0.6388
    16         H         -2.7849     -0.9641      0.2204
    17         H         -1.9867     -2.4627      0.4435

 General Reference for PM7:
 "Optimization of Parameters for Semiempirical Methods VI: More Modifications to the 
 NDDO Approximations and Re-optimization of Parameters", J. J. P. Stewart, J. Mol. Mod., 1:32, 19 (2013)
 https://link.springer.com/article/10.1007/s00894-012-1667-x

           Empirical Formula: C6 H8 N2 O  =    17 atoms



      MOLECULAR POINT GROUP   :   Cs  


          UHF CALCULATION, NO. OF ALPHA ELECTRONS =   24
                           NO. OF BETA  ELECTRONS =   23
  SCF CRITERION =    0.1000E-07

 -------------------------------------------------------------------------------
 PM7 1SCF GRADIENTS EPS=37.5 DISP RELSCF=0.0001 CHARGE=1
 Title: ASE calculation



     1SCF WAS SPECIFIED, SO BFGS WAS NOT USED                 
     SCF FIELD WAS ACHIEVED                                   


                              PM7 CALCULATION
                                                       MOPAC v23.2 Linux
                                                       Fri Sep 19 21:33:00 2025




          FINAL HEAT OF FORMATION =         97.63105 KCAL/MOL =     408.48830 KJ/MOL

          TOTAL ENERGY            =     -34766.02172 KCAL/MOL = ELECTRONIC ENERGY + CORE-CORE REPULSION + SOLVATION ENERGY
          ENERGY OF ATOMS         =      34865.63902 KCAL/MOL
                              SUM =         99.61730 KCAL/MOL
          DISPERSION ENERGY       =         -1.98625 KCAL/MOL
                              SUM =         97.63105 KCAL/MOL = FINAL HEAT OF FORMATION

          VAN DER WAALS AREA      =        154.78 SQUARE ANGSTROMS


          TOTAL ENERGY            =      -1507.59739 EV
          ELECTRONIC ENERGY       =      -2081.40917 EV 
          CORE-CORE REPULSION     =        573.81178 EV

          DIELECTRIC ENERGY       =         -3.16276 EV
          COSMO AREA              =        154.78 SQUARE ANGSTROMS
          COSMO VOLUME            =        150.31 CUBIC ANGSTROMS

          GRADIENT NORM           =         58.21352          =       14.11885 PER ATOM
          IONIZATION POTENTIAL    =         10.149813 EV
          ALPHA SOMO LUMO (EV)    =        -10.373 -1.207
          BETA  SOMO LUMO (EV)    =        -10.150 -2.887
          NO. OF ALPHA ELECTRONS  =         24
          NO. OF BETA  ELECTRONS  =         23
          MOLECULAR WEIGHT        =        124.1420         POINT GROUP:  Cs  

          MOLECULAR DIMENSIONS (Angstroms)

            Atom       Atom       Distance
            H    14    H    10     5.91085
            H    17    H    13     5.78460
            H    12    H    11     1.78561


          SCF CALCULATIONS        =          2

          WALL-CLOCK TIME         =      1.625 SECONDS
          COMPUTATION TIME        =      0.786 SECONDS

          LARGEST ATOMIC GRADIENTS

          Atom     Label                     Cartesian Gradients           Cartesian Coordinates       |Gradient|
                                           X          Y          Z        X          Y          Z

             7       N                 -26.466     -4.682     -1.439    0.42211   -1.51724    0.53157     26.915
             8       C                  23.410      3.184      1.404   -0.72936   -0.79963    0.36427     23.667
             9       N                 -17.852    -14.382      0.413   -1.90889   -1.46082    0.34240     22.928
             6       C                  17.424     12.131      0.010    1.68589   -0.87826    0.56246     21.231
             3       C                  -7.137     19.373     -2.647    0.64179    1.31926    0.24498     20.815
             5       C                   5.825    -19.081      2.498    1.80890    0.45284    0.42965     20.106
             4       O                  -2.003    -10.457      0.966    0.71582    2.52180    0.12154     10.691
             1       C                  -4.530     -7.521      0.487   -1.87790    1.44397    0.03343      8.793
            15       H                   1.955      4.997     -0.423    0.40104   -2.53462    0.63881      5.382
            13       H                   2.838      3.160     -0.108    2.78490    0.95886    0.45220      4.248



       FINAL  POINT  AND  DERIVATIVES

   PARAMETER     ATOM    TYPE            VALUE        GRADIENT
      1          1  C    CARTESIAN X    -1.877899     -4.530315  KCAL/ANGSTROM
      2          1  C    CARTESIAN Y     1.443969     -7.520523  KCAL/ANGSTROM
      3          1  C    CARTESIAN Z     0.033429      0.486788  KCAL/ANGSTROM
      4          2  C    CARTESIAN X    -0.675881      2.088101  KCAL/ANGSTROM
      5          2  C    CARTESIAN Y     0.645526      0.137183  KCAL/ANGSTROM
      6          2  C    CARTESIAN Z     0.213708      0.146261  KCAL/ANGSTROM
      7          3  C    CARTESIAN X     0.641788     -7.137374  KCAL/ANGSTROM
      8          3  C    CARTESIAN Y     1.319261     19.373300  KCAL/ANGSTROM
      9          3  C    CARTESIAN Z     0.244984     -2.646692  KCAL/ANGSTROM
     10          4  O    CARTESIAN X     0.715820     -2.003351  KCAL/ANGSTROM
     11          4  O    CARTESIAN Y     2.521802    -10.457288  KCAL/ANGSTROM
     12          4  O    CARTESIAN Z     0.121542      0.966391  KCAL/ANGSTROM
     13          5  C    CARTESIAN X     1.808904      5.824531  KCAL/ANGSTROM
     14          5  C    CARTESIAN Y     0.452843    -19.081372  KCAL/ANGSTROM
     15          5  C    CARTESIAN Z     0.429654      2.497913  KCAL/ANGSTROM
     16          6  C    CARTESIAN X     1.685888     17.424196  KCAL/ANGSTROM
     17          6  C    CARTESIAN Y    -0.878260     12.130927  KCAL/ANGSTROM
     18          6  C    CARTESIAN Z     0.562462      0.010181  KCAL/ANGSTROM
     19          7  N    CARTESIAN X     0.422105    -26.465962  KCAL/ANGSTROM
     20          7  N    CARTESIAN Y    -1.517240     -4.681972  KCAL/ANGSTROM
     21          7  N    CARTESIAN Z     0.531572     -1.438694  KCAL/ANGSTROM
     22          8  C    CARTESIAN X    -0.729360     23.409922  KCAL/ANGSTROM
     23          8  C    CARTESIAN Y    -0.799635      3.183851  KCAL/ANGSTROM
     24          8  C    CARTESIAN Z     0.364271      1.403824  KCAL/ANGSTROM
     25          9  N    CARTESIAN X    -1.908888    -17.851808  KCAL/ANGSTROM
     26          9  N    CARTESIAN Y    -1.460823    -14.382079  KCAL/ANGSTROM
     27          9  N    CARTESIAN Z     0.342404      0.412551  KCAL/ANGSTROM
     28         10  H    CARTESIAN X    -1.651124      1.374398  KCAL/ANGSTROM
     29         10  H    CARTESIAN Y     2.534618      3.288680  KCAL/ANGSTROM
     30         10  H    CARTESIAN Z    -0.065511     -0.238434  KCAL/ANGSTROM
     31         11  H    CARTESIAN X    -2.444684      1.221100  KCAL/ANGSTROM
     32         11  H    CARTESIAN Y     1.191567      2.231232  KCAL/ANGSTROM
     33         11  H    CARTESIAN Z    -0.885001     -0.689057  KCAL/ANGSTROM
     34         12  H    CARTESIAN X    -2.584549      1.144629  KCAL/ANGSTROM
     35         12  H    CARTESIAN Y     1.381111      2.412708  KCAL/ANGSTROM
     36         12  H    CARTESIAN Z     0.885001      0.401670  KCAL/ANGSTROM
     37         13  H    CARTESIAN X     2.784897      2.837641  KCAL/ANGSTROM
     38         13  H    CARTESIAN Y     0.958865      3.159865  KCAL/ANGSTROM
     39         13  H    CARTESIAN Z     0.452203     -0.107503  KCAL/ANGSTROM
     40         14  H    CARTESIAN X     2.535561     -0.277005  KCAL/ANGSTROM
     41         14  H    CARTESIAN Y    -1.566526      1.906273  KCAL/ANGSTROM
     42         14  H    CARTESIAN Z     0.702914     -0.219887  KCAL/ANGSTROM
     43         15  H    CARTESIAN X     0.401036      1.955443  KCAL/ANGSTROM
     44         15  H    CARTESIAN Y    -2.534618      4.996763  KCAL/ANGSTROM
     45         15  H    CARTESIAN Z     0.638811     -0.423035  KCAL/ANGSTROM
     46         16  H    CARTESIAN X    -2.784897      2.122054  KCAL/ANGSTROM
     47         16  H    CARTESIAN Y    -0.964129      0.100589  KCAL/ANGSTROM
     48         16  H    CARTESIAN Z     0.220373      0.060597  KCAL/ANGSTROM
     49         17  H    CARTESIAN X    -1.986749     -1.136200  KCAL/ANGSTROM
     50         17  H    CARTESIAN Y    -2.462665      3.201862  KCAL/ANGSTROM
     51         17  H    CARTESIAN Z     0.443486     -0.622879  KCAL/ANGSTROM




   ATOM   CHEMICAL          X               Y               Z
  NUMBER   SYMBOL      (ANGSTROMS)     (ANGSTROMS)     (ANGSTROMS)

     1       C         -1.87789876  *   1.44396863  *   0.03342885  *
     2       C         -0.67588117  *   0.64552647  *   0.21370841  *
     3       C          0.64178848  *   1.31926102  *   0.24498382  *
     4       O          0.71582000  *   2.52180168  *   0.12154208  *
     5       C          1.80890396  *   0.45284348  *   0.42965387  *
     6       C          1.68588807  *  -0.87825971  *   0.56246170  *
     7       N          0.42210525  *  -1.51724038  *   0.53157195  *
     8       C         -0.72936008  *  -0.79963462  *   0.36427149  *
     9       N         -1.90888849  *  -1.46082290  *   0.34240447  *
    10       H         -1.65112392  *   2.53461845  *  -0.06551135  *
    11       H         -2.44468379  *   1.19156724  *  -0.88500071  *
    12       H         -2.58454854  *   1.38111073  *   0.88500071  *
    13       H          2.78489686  *   0.95886485  *   0.45220346  *
    14       H          2.53556098  *  -1.56652578  *   0.70291420  *
    15       H          0.40103599  *  -2.53461845  *   0.63881125  *
    16       H         -2.78489686  *  -0.96412858  *   0.22037259  *
    17       H         -1.98674924  *  -2.46266513  *   0.44348628  *

                             CARTESIAN COORDINATES

   1    C       -1.877898756     1.443968628     0.033428845
   2    C       -0.675881165     0.645526473     0.213708408
   3    C        0.641788485     1.319261015     0.244983820
   4    O        0.715819998     2.521801681     0.121542079
   5    C        1.808903964     0.452843478     0.429653868
   6    C        1.685888071    -0.878259712     0.562461700
   7    N        0.422105253    -1.517240378     0.531571953
   8    C       -0.729360085    -0.799634622     0.364271491
   9    N       -1.908888493    -1.460822905     0.342404469
  10    H       -1.651123917     2.534618452    -0.065511353
  11    H       -2.444683795     1.191567235    -0.885000708
  12    H       -2.584548543     1.381110729     0.885000708
  13    H        2.784896862     0.958864851     0.452203461
  14    H        2.535560975    -1.566525780     0.702914201
  15    H        0.401035988    -2.534618452     0.638811246
  16    H       -2.784896862    -0.964128584     0.220372589
  17    H       -1.986749244    -2.462665132     0.443486277


           Empirical Formula: C6 H8 N2 O  =    17 atoms



      MOLECULAR POINT GROUP   :   Cs  


          ALPHA EIGENVALUES  
 -39.48822 -37.27817 -32.06991 -29.29035 -27.78948 -25.51362 -23.06808 -22.10957
 -19.97913 -19.56070 -18.08266 -17.02864 -16.88740 -16.38383 -15.70572 -15.10587
 -14.83845 -14.74627 -14.16749 -13.41634 -12.98851 -11.36168 -10.78038 -10.37299
  -1.20700  -0.62607   0.51864   1.14937   1.20723   1.85837   2.48940   2.89177
   3.48772   3.65452   3.88833   4.51095   4.62218   4.85429   4.93011   4.94160
   5.53926   5.58032   5.74864   6.17089


           BETA EIGENVALUES 
 -39.31984 -36.98085 -31.71047 -29.02774 -27.72253 -25.43790 -22.91109 -22.01883
 -19.92845 -19.44722 -17.98248 -16.88671 -16.38405 -16.29046 -15.59183 -14.80183
 -14.77106 -14.42254 -14.10773 -13.37252 -12.47157 -11.19760 -10.14981  -2.88696
  -0.44343  -0.34611   0.50630   1.36217   1.39467   2.02292   2.58878   2.97289
   3.63350   3.69675   3.92872   4.57224   4.64697   4.94897   4.99261   5.03797
   5.54148   5.57131   5.83268   6.20667


              NET ATOMIC CHARGES AND DIPOLE CONTRIBUTIONS

  ATOM NO.   TYPE          CHARGE      No. of ELECS.   s-Pop       p-Pop       
    1          C          -0.484500        4.4845     1.04786     3.43664
    2          C          -0.036792        4.0368     1.12085     2.91594
    3          C           0.494913        3.5051     1.09105     2.41403
    4          O          -0.502873        6.5029     1.87704     4.62583
    5          C          -0.414649        4.4146     1.08817     3.32648
    6          C           0.176691        3.8233     1.10717     2.71614
    7          N          -0.412596        5.4126     1.52399     3.88861
    8          C           0.373970        3.6260     1.05822     2.56781
    9          N          -0.362016        5.3620     1.51021     3.85181
   10          H           0.209011        0.7910     0.79099
   11          H           0.211584        0.7884     0.78842
   12          H           0.211531        0.7885     0.78847
   13          H           0.221566        0.7784     0.77843
   14          H           0.217168        0.7828     0.78283
   15          H           0.379744        0.6203     0.62026
   16          H           0.359368        0.6406     0.64063
   17          H           0.357880        0.6421     0.64212
 DIPOLE           X         Y         Z       TOTAL
 POINT-CHG.    -5.174   -10.846     0.756    12.041
 HYBRID        -0.731    -0.723     0.020     1.028
 SUM           -5.904   -11.569     0.776    13.012


          ATOMIC ORBITAL ELECTRON POPULATIONS

     Atom    s        px        py        pz   
    1  C   1.04786   1.07110   1.17115   1.19439
    2  C   1.12085   1.05090   0.92424   0.94080
    3  C   1.09105   0.88626   0.83247   0.69530
    4  O   1.87704   1.90039   1.27420   1.45124
    5  C   1.08817   1.12276   1.01171   1.19201
    6  C   1.10717   0.86590   0.99755   0.85268
    7  N   1.52399   1.09272   1.20698   1.58892
    8  C   1.05822   0.78212   0.91820   0.86749
    9  N   1.51021   1.14305   1.23325   1.47551
   10  H   0.79099
   11  H   0.78842
   12  H   0.78847
   13  H   0.77843
   14  H   0.78283
   15  H   0.62026
   16  H   0.64063
   17  H   0.64212


                    (SZ)    =    0.500000
                    (S**2)  =    0.809607


          ATOMIC ORBITAL SPIN POPULATIONS

    Atom   Total    s     px     py     pz   
         Atomic
    1  C -0.0168 -0.005 -0.019 -0.006  0.013
    2  C  0.7799  0.021  0.029  0.032  0.698
    3  C -0.0668 -0.006 -0.014 -0.008 -0.039
    4  O  0.1440  0.004 -0.001  0.004  0.137
    5  C -0.0477 -0.002 -0.003 -0.002 -0.041
    6  C  0.0335  0.001  0.003  0.002  0.027
    7  N -0.0730 -0.003 -0.003 -0.004 -0.063
    8  C -0.1100 -0.010 -0.008 -0.019 -0.073
    9  N  0.3171  0.014  0.016  0.017  0.271
   10  H  0.0011  0.001
   11  H  0.0312  0.031
   12  H  0.0312  0.031
   13  H  0.0010  0.001
   14  H -0.0008 -0.001
   15  H  0.0025  0.002
   16  H -0.0129 -0.013
   17  H -0.0133 -0.013

 **********************
 *                    *
 * JOB ENDED NORMALLY *
 *                    *
 **********************



 TOTAL JOB TIME:             2.09 SECONDS

 == MOPAC DONE ==
