 *******************************************************************************
 **                                                                           **
 **                              MOPAC v23.2                                  **
 **                                                                           **
 *******************************************************************************
 **          Digital Object Identifier (DOI): 10.5281/zenodo.6511958          **
 **    Visit the DOI location for information on how to cite this program.    **
 *******************************************************************************

                              PM7 CALCULATION RESULTS

 *******************************************************************************
 *  CALCULATION DONE: (MAX THREADS = 40)             Fri Sep 19 21:27:32 2025  *
 *  PM7        - The PM7 Hamiltonian to be used
 *
 *
 *
 *                 CHARGE ON SYSTEM = +1
 *
 *
 *
 *  1SCF       - DO 1 SCF AND THEN STOP 
 *  T=         - A TIME OF 172800.0 SECONDS REQUESTED
 *  DUMP=N     - RESTART FILE WRITTEN EVERY 7200.0 SECONDS REQUESTED
 *  RELSCF     - DEFAULT SCF CRITERION MULTIPLIED BY 0.0001
 *              (DEFAULT SCF CRITERION = 0.00010)
 *  GRADIENTS  - ALL GRADIENTS TO BE PRINTED
 *  DISP       - PRINT DISPERSION AND HYDROGEN BOND ENERGIES
 *******************************************************************************
PM7 1SCF GRADIENTS DISP RELSCF=0.0001 CHARGE=1
 Title: ASE calculation

   ATOM   CHEMICAL          X               Y               Z
  NUMBER   SYMBOL      (ANGSTROMS)     (ANGSTROMS)     (ANGSTROMS)

     1       C          2.54791501  *  -0.14280191  *   0.77151004  *
     2       C          1.13494000  *   0.04843723  *   0.44028636  *
     3       C          0.12379968  *  -0.97237586  *   0.42299249  *
     4       C         -1.20155700  *  -0.39151652  *   0.03565521  *
     5       C         -1.70915159  *  -0.99129855  *  -1.26881819  *
     6       C         -2.21724252  *  -0.52946863  *   1.16191137  *
     7       C         -0.88438816  *   1.09409700  *  -0.18056134  *
     8       O         -1.49090741  *   2.05567833  *  -0.49048964  *
     9       N          0.59107097  *   1.22856189  *   0.10228856  *
    10       H          2.80342059  *  -1.19208506  *   1.02425712  *
    11       H          3.23387640  *   0.13829473  *  -0.05732907  *
    12       H          2.87909310  *   0.46176612  *   1.64408113  *
    13       H          0.27173527  *  -2.01437269  *   0.65165529  *
    14       H         -1.00057582  *  -0.88605976  *  -2.10112353  *
    15       H         -1.92516991  *  -2.06727911  *  -1.16322677  *
    16       H         -2.65603620  *  -0.52389155  *  -1.59226865  *
    17       H         -1.88014272  *  -0.08653201  *   2.10855045  *
    18       H         -3.17825426  *  -0.04886981  *   0.90672135  *
    19       H         -2.45420416  *  -1.58657739  *   1.36668556  *
    20       H          1.08081336  *   2.11780541  *   0.03547838  *



          CARTESIAN COORDINATES 

    NO.       ATOM           X           Y           Z

     1         C          2.5479     -0.1428      0.7715
     2         C          1.1349      0.0484      0.4403
     3         C          0.1238     -0.9724      0.4230
     4         C         -1.2016     -0.3915      0.0357
     5         C         -1.7092     -0.9913     -1.2688
     6         C         -2.2172     -0.5295      1.1619
     7         C         -0.8844      1.0941     -0.1806
     8         O         -1.4909      2.0557     -0.4905
     9         N          0.5911      1.2286      0.1023
    10         H          2.8034     -1.1921      1.0243
    11         H          3.2339      0.1383     -0.0573
    12         H          2.8791      0.4618      1.6441
    13         H          0.2717     -2.0144      0.6517
    14         H         -1.0006     -0.8861     -2.1011
    15         H         -1.9252     -2.0673     -1.1632
    16         H         -2.6560     -0.5239     -1.5923
    17         H         -1.8801     -0.0865      2.1086
    18         H         -3.1783     -0.0489      0.9067
    19         H         -2.4542     -1.5866      1.3667
    20         H          1.0808      2.1178      0.0355

 General Reference for PM7:
 "Optimization of Parameters for Semiempirical Methods VI: More Modifications to the 
 NDDO Approximations and Re-optimization of Parameters", J. J. P. Stewart, J. Mol. Mod., 1:32, 19 (2013)
 https://link.springer.com/article/10.1007/s00894-012-1667-x

           Empirical Formula: C7 H11 N O  =    20 atoms



      MOLECULAR POINT GROUP   :   Cs  


          UHF CALCULATION, NO. OF ALPHA ELECTRONS =   25
                           NO. OF BETA  ELECTRONS =   24
  SCF CRITERION =    0.1000E-07

 -------------------------------------------------------------------------------
 PM7 1SCF GRADIENTS DISP RELSCF=0.0001 CHARGE=1
 Title: ASE calculation



     1SCF WAS SPECIFIED, SO BFGS WAS NOT USED                 
     SCF FIELD WAS ACHIEVED                                   


                              PM7 CALCULATION
                                                       MOPAC v23.2 Linux
                                                       Fri Sep 19 21:27:33 2025




          FINAL HEAT OF FORMATION =        136.79437 KCAL/MOL =     572.34763 KJ/MOL

          TOTAL ENERGY            =     -34185.05736 KCAL/MOL = ELECTRONIC ENERGY + CORE-CORE REPULSION
          ENERGY OF ATOMS         =      34323.93363 KCAL/MOL
                              SUM =        138.87627 KCAL/MOL
          DISPERSION ENERGY       =         -2.08190 KCAL/MOL
                              SUM =        136.79437 KCAL/MOL = FINAL HEAT OF FORMATION



          TOTAL ENERGY            =      -1482.40439 EV
          ELECTRONIC ENERGY       =      -7405.06390 EV 
          CORE-CORE REPULSION     =       5922.65951 EV
          COSMO AREA              =        167.50 SQUARE ANGSTROMS
          COSMO VOLUME            =        167.25 CUBIC ANGSTROMS

          GRADIENT NORM           =          0.97634          =       0.21832 PER ATOM
          IONIZATION POTENTIAL    =         15.081578 EV
          ALPHA SOMO LUMO (EV)    =        -15.082 -5.500
          BETA  SOMO LUMO (EV)    =        -15.623 -6.993
          NO. OF ALPHA ELECTRONS  =         25
          NO. OF BETA  ELECTRONS  =         24
          MOLECULAR WEIGHT        =        125.1700         POINT GROUP:  Cs  

          MOLECULAR DIMENSIONS (Angstroms)

            Atom       Atom       Distance
            H    16    H    12     6.48715
            H    17    H    11     4.45997
            H    13    O     8     4.33897


          SCF CALCULATIONS        =          1

          WALL-CLOCK TIME         =      0.844 SECONDS
          COMPUTATION TIME        =      0.576 SECONDS

          LARGEST ATOMIC GRADIENTS

          Atom     Label                     Cartesian Gradients           Cartesian Coordinates       |Gradient|
                                           X          Y          Z        X          Y          Z

             7       C                  -0.026     -0.410      0.073   -0.88439    1.09410   -0.18056      0.417
            20       H                  -0.066     -0.348      0.052    1.08081    2.11781    0.03548      0.358
             2       C                   0.276     -0.078      0.073    1.13494    0.04844    0.44029      0.296
            17       H                  -0.094      0.203     -0.158   -1.88014   -0.08653    2.10855      0.274
            14       H                  -0.134      0.237      0.027   -1.00058   -0.88606   -2.10112      0.274
             8       O                   0.031      0.262     -0.043   -1.49091    2.05568   -0.49049      0.268
            18       H                   0.087     -0.188      0.128   -3.17825   -0.04887    0.90672      0.243
            16       H                   0.116     -0.209     -0.010   -2.65604   -0.52389   -1.59227      0.239
            15       H                   0.016      0.194      0.109   -1.92517   -2.06728   -1.16323      0.223
            19       H                   0.076      0.142     -0.151   -2.45420   -1.58658    1.36669      0.221



       FINAL  POINT  AND  DERIVATIVES

   PARAMETER     ATOM    TYPE            VALUE        GRADIENT
      1          1  C    CARTESIAN X     2.547915     -0.005141  KCAL/ANGSTROM
      2          1  C    CARTESIAN Y    -0.142802      0.078799  KCAL/ANGSTROM
      3          1  C    CARTESIAN Z     0.771510     -0.015424  KCAL/ANGSTROM
      4          2  C    CARTESIAN X     1.134940      0.275983  KCAL/ANGSTROM
      5          2  C    CARTESIAN Y     0.048437     -0.077875  KCAL/ANGSTROM
      6          2  C    CARTESIAN Z     0.440286      0.072786  KCAL/ANGSTROM
      7          3  C    CARTESIAN X     0.123800     -0.075386  KCAL/ANGSTROM
      8          3  C    CARTESIAN Y    -0.972376      0.043708  KCAL/ANGSTROM
      9          3  C    CARTESIAN Z     0.422992     -0.025590  KCAL/ANGSTROM
     10          4  C    CARTESIAN X    -1.201557     -0.146853  KCAL/ANGSTROM
     11          4  C    CARTESIAN Y    -0.391517     -0.087355  KCAL/ANGSTROM
     12          4  C    CARTESIAN Z     0.035655     -0.014390  KCAL/ANGSTROM
     13          5  C    CARTESIAN X    -1.709152     -0.016694  KCAL/ANGSTROM
     14          5  C    CARTESIAN Y    -0.991299     -0.007559  KCAL/ANGSTROM
     15          5  C    CARTESIAN Z    -1.268818     -0.013322  KCAL/ANGSTROM
     16          6  C    CARTESIAN X    -2.217243     -0.019009  KCAL/ANGSTROM
     17          6  C    CARTESIAN Y    -0.529469     -0.004946  KCAL/ANGSTROM
     18          6  C    CARTESIAN Z     1.161911      0.008550  KCAL/ANGSTROM
     19          7  C    CARTESIAN X    -0.884388     -0.026382  KCAL/ANGSTROM
     20          7  C    CARTESIAN Y     1.094097     -0.410148  KCAL/ANGSTROM
     21          7  C    CARTESIAN Z    -0.180561      0.072738  KCAL/ANGSTROM
     22          8  O    CARTESIAN X    -1.490907      0.030665  KCAL/ANGSTROM
     23          8  O    CARTESIAN Y     2.055678      0.262476  KCAL/ANGSTROM
     24          8  O    CARTESIAN Z    -0.490490     -0.042635  KCAL/ANGSTROM
     25          9  N    CARTESIAN X     0.591071     -0.099863  KCAL/ANGSTROM
     26          9  N    CARTESIAN Y     1.228562      0.054197  KCAL/ANGSTROM
     27          9  N    CARTESIAN Z     0.102289     -0.031383  KCAL/ANGSTROM
     28         10  H    CARTESIAN X     2.803421      0.035510  KCAL/ANGSTROM
     29         10  H    CARTESIAN Y    -1.192085      0.079266  KCAL/ANGSTROM
     30         10  H    CARTESIAN Z     1.024257     -0.008971  KCAL/ANGSTROM
     31         11  H    CARTESIAN X     3.233876     -0.023295  KCAL/ANGSTROM
     32         11  H    CARTESIAN Y     0.138295     -0.063239  KCAL/ANGSTROM
     33         11  H    CARTESIAN Z    -0.057329      0.065542  KCAL/ANGSTROM
     34         12  H    CARTESIAN X     2.879093     -0.002166  KCAL/ANGSTROM
     35         12  H    CARTESIAN Y     0.461766     -0.087943  KCAL/ANGSTROM
     36         12  H    CARTESIAN Z     1.644081     -0.037934  KCAL/ANGSTROM
     37         13  H    CARTESIAN X     0.271735      0.070669  KCAL/ANGSTROM
     38         13  H    CARTESIAN Y    -2.014373      0.190186  KCAL/ANGSTROM
     39         13  H    CARTESIAN Z     0.651655     -0.026067  KCAL/ANGSTROM
     40         14  H    CARTESIAN X    -1.000576     -0.133783  KCAL/ANGSTROM
     41         14  H    CARTESIAN Y    -0.886060      0.237464  KCAL/ANGSTROM
     42         14  H    CARTESIAN Z    -2.101124      0.027010  KCAL/ANGSTROM
     43         15  H    CARTESIAN X    -1.925170      0.015910  KCAL/ANGSTROM
     44         15  H    CARTESIAN Y    -2.067279      0.193647  KCAL/ANGSTROM
     45         15  H    CARTESIAN Z    -1.163227      0.108709  KCAL/ANGSTROM
     46         16  H    CARTESIAN X    -2.656036      0.115688  KCAL/ANGSTROM
     47         16  H    CARTESIAN Y    -0.523892     -0.209371  KCAL/ANGSTROM
     48         16  H    CARTESIAN Z    -1.592269     -0.009662  KCAL/ANGSTROM
     49         17  H    CARTESIAN X    -1.880143     -0.093870  KCAL/ANGSTROM
     50         17  H    CARTESIAN Y    -0.086532      0.203031  KCAL/ANGSTROM
     51         17  H    CARTESIAN Z     2.108550     -0.158166  KCAL/ANGSTROM
     52         18  H    CARTESIAN X    -3.178254      0.087340  KCAL/ANGSTROM
     53         18  H    CARTESIAN Y    -0.048870     -0.187981  KCAL/ANGSTROM
     54         18  H    CARTESIAN Z     0.906721      0.127691  KCAL/ANGSTROM
     55         19  H    CARTESIAN X    -2.454204      0.076423  KCAL/ANGSTROM
     56         19  H    CARTESIAN Y    -1.586577      0.141829  KCAL/ANGSTROM
     57         19  H    CARTESIAN Z     1.366686     -0.151425  KCAL/ANGSTROM
     58         20  H    CARTESIAN X     1.080813     -0.065750  KCAL/ANGSTROM
     59         20  H    CARTESIAN Y     2.117805     -0.348194  KCAL/ANGSTROM
     60         20  H    CARTESIAN Z     0.035478      0.051939  KCAL/ANGSTROM




   ATOM   CHEMICAL          X               Y               Z
  NUMBER   SYMBOL      (ANGSTROMS)     (ANGSTROMS)     (ANGSTROMS)

     1       C          2.54791501  *  -0.14280191  *   0.77151004  *
     2       C          1.13494000  *   0.04843723  *   0.44028636  *
     3       C          0.12379968  *  -0.97237586  *   0.42299249  *
     4       C         -1.20155700  *  -0.39151652  *   0.03565521  *
     5       C         -1.70915159  *  -0.99129855  *  -1.26881819  *
     6       C         -2.21724252  *  -0.52946863  *   1.16191137  *
     7       C         -0.88438816  *   1.09409700  *  -0.18056134  *
     8       O         -1.49090741  *   2.05567833  *  -0.49048964  *
     9       N          0.59107097  *   1.22856189  *   0.10228856  *
    10       H          2.80342059  *  -1.19208506  *   1.02425712  *
    11       H          3.23387640  *   0.13829473  *  -0.05732907  *
    12       H          2.87909310  *   0.46176612  *   1.64408113  *
    13       H          0.27173527  *  -2.01437269  *   0.65165529  *
    14       H         -1.00057582  *  -0.88605976  *  -2.10112353  *
    15       H         -1.92516991  *  -2.06727911  *  -1.16322677  *
    16       H         -2.65603620  *  -0.52389155  *  -1.59226865  *
    17       H         -1.88014272  *  -0.08653201  *   2.10855045  *
    18       H         -3.17825426  *  -0.04886981  *   0.90672135  *
    19       H         -2.45420416  *  -1.58657739  *   1.36668556  *
    20       H          1.08081336  *   2.11780541  *   0.03547838  *

                             CARTESIAN COORDINATES

   1    C        2.547915013    -0.142801906     0.771510044
   2    C        1.134940004     0.048437226     0.440286357
   3    C        0.123799681    -0.972375858     0.422992490
   4    C       -1.201556995    -0.391516518     0.035655208
   5    C       -1.709151588    -0.991298547    -1.268818189
   6    C       -2.217242520    -0.529468625     1.161911375
   7    C       -0.884388160     1.094096997    -0.180561340
   8    O       -1.490907405     2.055678334    -0.490489643
   9    N        0.591070970     1.228561890     0.102288565
  10    H        2.803420591    -1.192085057     1.024257119
  11    H        3.233876404     0.138294726    -0.057329074
  12    H        2.879093102     0.461766121     1.644081127
  13    H        0.271735271    -2.014372693     0.651655286
  14    H       -1.000575822    -0.886059762    -2.101123533
  15    H       -1.925169910    -2.067279109    -1.163226767
  16    H       -2.656036195    -0.523891554    -1.592268651
  17    H       -1.880142724    -0.086532005     2.108550446
  18    H       -3.178254262    -0.048869807     0.906721349
  19    H       -2.454204160    -1.586577392     1.366685560
  20    H        1.080813359     2.117805408     0.035478379


           Empirical Formula: C7 H11 N O  =    20 atoms



      MOLECULAR POINT GROUP   :   Cs  


          ALPHA EIGENVALUES  
 -43.23465 -37.06462 -34.76544 -32.38157 -29.65956 -28.59237 -27.32151 -25.82017
 -23.97302 -22.65628 -21.26062 -20.73647 -20.33753 -19.88648 -19.53283 -19.24241
 -18.71471 -18.39952 -17.71798 -17.56142 -17.41468 -16.95142 -16.89604 -15.70403
 -15.08158  -5.50014  -4.07628  -3.84271  -2.42733  -2.18828  -1.76106  -1.33767
  -1.07178  -0.91324  -0.40941  -0.06156   0.49551   0.56723   0.68688   0.74355
   1.42195   1.48560   1.49344   1.52486   1.75578   2.61523   2.71112


           BETA EIGENVALUES 
 -42.66582 -36.95208 -34.60513 -32.27350 -29.51581 -28.55352 -27.23640 -25.64074
 -23.88951 -22.56163 -20.82693 -20.63083 -20.30220 -19.80716 -19.48263 -19.15235
 -18.45152 -18.35196 -17.55237 -17.50865 -16.91519 -16.80419 -16.79416 -15.62274
  -6.99262  -4.59047  -3.68969  -3.66123  -2.39557  -2.04175  -1.68147  -1.22806
  -0.91686  -0.85862  -0.38161  -0.02811   0.48993   0.56911   0.84462   0.86842
   1.42374   1.48847   1.49684   1.53323   1.75446   2.61601   2.71354


              NET ATOMIC CHARGES AND DIPOLE CONTRIBUTIONS

  ATOM NO.   TYPE          CHARGE      No. of ELECS.   s-Pop       p-Pop       
    1          C          -0.504555        4.5046     1.05238     3.45218
    2          C           0.310448        3.6896     1.09807     2.59148
    3          C          -0.092048        4.0920     1.15291     2.93913
    4          C           0.005148        3.9949     1.06378     2.93108
    5          C          -0.450602        4.4506     1.05610     3.39450
    6          C          -0.450537        4.4505     1.05611     3.39443
    7          C           0.495058        3.5049     1.15929     2.34565
    8          O          -0.230527        6.2305     1.87530     4.35523
    9          N          -0.406013        5.4060     1.58283     3.82319
   10          H           0.213832        0.7862     0.78617
   11          H           0.220951        0.7790     0.77905
   12          H           0.220970        0.7790     0.77903
   13          H           0.207398        0.7926     0.79260
   14          H           0.169759        0.8302     0.83024
   15          H           0.189177        0.8108     0.81082
   16          H           0.194921        0.8051     0.80508
   17          H           0.169755        0.8302     0.83024
   18          H           0.194907        0.8051     0.80509
   19          H           0.189173        0.8108     0.81083
   20          H           0.352785        0.6472     0.64722
 DIPOLE           X         Y         Z       TOTAL
 POINT-CHG.     3.728    -2.429     1.241     4.619
 HYBRID         0.536     1.036    -0.085     1.170
 SUM            4.264    -1.393     1.156     4.633


          ATOMIC ORBITAL ELECTRON POPULATIONS

     Atom    s        px        py        pz   
    1  C   1.05238   0.98794   1.24723   1.21700
    2  C   1.09807   0.97148   0.85300   0.76700
    3  C   1.15291   0.96916   1.07746   0.89251
    4  C   1.06378   0.98003   0.91324   1.03781
    5  C   1.05610   1.18925   1.18752   1.01773
    6  C   1.05611   1.10404   1.22357   1.06683
    7  C   1.15929   0.72593   0.90549   0.71422
    8  O   1.87530   1.60451   1.40205   1.34867
    9  N   1.58283   1.24867   1.17894   1.39557
   10  H   0.78617
   11  H   0.77905
   12  H   0.77903
   13  H   0.79260
   14  H   0.83024
   15  H   0.81082
   16  H   0.80508
   17  H   0.83024
   18  H   0.80509
   19  H   0.81083
   20  H   0.64722


                    (SZ)    =    0.500000
                    (S**2)  =    0.785586


          ATOMIC ORBITAL SPIN POPULATIONS

    Atom   Total    s     px     py     pz   
         Atomic
    1  C  0.0042  0.001  0.003  0.000  0.001
    2  C -0.1184 -0.009 -0.014 -0.023 -0.072
    3  C  0.8058  0.021  0.057  0.048  0.680
    4  C -0.0384 -0.005 -0.021 -0.008 -0.005
    5  C  0.0203  0.003  0.005  0.001  0.011
    6  C  0.0203  0.003  0.011  0.000  0.006
    7  C -0.0302 -0.000 -0.011 -0.001 -0.018
    8  O  0.0353  0.001 -0.006  0.001  0.039
    9  N  0.3427  0.016  0.030  0.025  0.272
   10  H -0.0008 -0.001
   11  H -0.0018 -0.002
   12  H -0.0018 -0.002
   13  H -0.0219 -0.022
   14  H -0.0008 -0.001
   15  H -0.0007 -0.001
   16  H  0.0004  0.000
   17  H -0.0008 -0.001
   18  H  0.0004  0.000
   19  H -0.0007 -0.001
   20  H -0.0130 -0.013

 **********************
 *                    *
 * JOB ENDED NORMALLY *
 *                    *
 **********************



 TOTAL JOB TIME:             1.19 SECONDS

 == MOPAC DONE ==
