 *******************************************************************************
 **                                                                           **
 **                              MOPAC v23.2                                  **
 **                                                                           **
 *******************************************************************************
 **          Digital Object Identifier (DOI): 10.5281/zenodo.6511958          **
 **    Visit the DOI location for information on how to cite this program.    **
 *******************************************************************************

                              PM7 CALCULATION RESULTS

 *******************************************************************************
 *  CALCULATION DONE: (MAX THREADS = 40)             Fri Sep 19 21:31:17 2025  *
 *  PM7        - The PM7 Hamiltonian to be used
 *
 *
 *
 *                 CHARGE ON SYSTEM = +1
 *
 *
 *
 *  1SCF       - DO 1 SCF AND THEN STOP 
 *  T=         - A TIME OF 172800.0 SECONDS REQUESTED
 *  DUMP=N     - RESTART FILE WRITTEN EVERY 7200.0 SECONDS REQUESTED
 *  RELSCF     - DEFAULT SCF CRITERION MULTIPLIED BY 0.0001
 *              (DEFAULT SCF CRITERION = 0.00010)
 *  GRADIENTS  - ALL GRADIENTS TO BE PRINTED
 *  DISP       - PRINT DISPERSION AND HYDROGEN BOND ENERGIES
 *******************************************************************************
PM7 1SCF GRADIENTS DISP RELSCF=0.0001 CHARGE=1
 Title: ASE calculation

   ATOM   CHEMICAL          X               Y               Z
  NUMBER   SYMBOL      (ANGSTROMS)     (ANGSTROMS)     (ANGSTROMS)

     1       C          2.81586481  *  -0.45084672  *  -0.31685783  *
     2       C          1.44327240  *  -0.08038623  *  -0.06092786  *
     3       C          0.76837866  *   1.04746466  *   0.37285897  *
     4       C         -0.59629964  *   0.69831475  *   0.39370895  *
     5       C         -0.67689479  *  -0.68811384  *  -0.04968122  *
     6       O          0.53502633  *  -1.16700921  *  -0.32515172  *
     7       C         -2.06131773  *  -1.13137112  *  -0.05765768  *
     8       C         -2.78499261  *   0.15555333  *   0.43267296  *
     9       O         -1.76241700  *   1.22036545  *   0.67860322  *
    10       H          3.53330618  *   0.37461720  *  -0.11861738  *
    11       H          2.99122205  *  -0.76838029  *  -1.37058661  *
    12       H          3.15600052  *  -1.31330172  *   0.30155864  *
    13       H          1.20257403  *   2.00306258  *   0.64126182  *
    14       H         -2.42485661  *  -1.47319942  *  -1.05906115  *
    15       H         -2.26143409  *  -2.01382651  *   0.60042676  *
    16       H         -3.29308770  *   0.04307387  *   1.40780273  *
    17       H         -3.46281914  *   0.60431754  *  -0.31622923  *



          CARTESIAN COORDINATES 

    NO.       ATOM           X           Y           Z

     1         C          2.8159     -0.4508     -0.3169
     2         C          1.4433     -0.0804     -0.0609
     3         C          0.7684      1.0475      0.3729
     4         C         -0.5963      0.6983      0.3937
     5         C         -0.6769     -0.6881     -0.0497
     6         O          0.5350     -1.1670     -0.3252
     7         C         -2.0613     -1.1314     -0.0577
     8         C         -2.7850      0.1556      0.4327
     9         O         -1.7624      1.2204      0.6786
    10         H          3.5333      0.3746     -0.1186
    11         H          2.9912     -0.7684     -1.3706
    12         H          3.1560     -1.3133      0.3016
    13         H          1.2026      2.0031      0.6413
    14         H         -2.4249     -1.4732     -1.0591
    15         H         -2.2614     -2.0138      0.6004
    16         H         -3.2931      0.0431      1.4078
    17         H         -3.4628      0.6043     -0.3162

 General Reference for PM7:
 "Optimization of Parameters for Semiempirical Methods VI: More Modifications to the 
 NDDO Approximations and Re-optimization of Parameters", J. J. P. Stewart, J. Mol. Mod., 1:32, 19 (2013)
 https://link.springer.com/article/10.1007/s00894-012-1667-x

           Empirical Formula: C7 H8 O2  =    17 atoms



      MOLECULAR POINT GROUP   :   Cs  


          UHF CALCULATION, NO. OF ALPHA ELECTRONS =   24
                           NO. OF BETA  ELECTRONS =   23
  SCF CRITERION =    0.1000E-07

 -------------------------------------------------------------------------------
 PM7 1SCF GRADIENTS DISP RELSCF=0.0001 CHARGE=1
 Title: ASE calculation



     1SCF WAS SPECIFIED, SO BFGS WAS NOT USED                 
     SCF FIELD WAS ACHIEVED                                   


                              PM7 CALCULATION
                                                       MOPAC v23.2 Linux
                                                       Fri Sep 19 21:31:17 2025




          FINAL HEAT OF FORMATION =        143.72794 KCAL/MOL =     601.35771 KJ/MOL

          TOTAL ENERGY            =     -35722.47003 KCAL/MOL = ELECTRONIC ENERGY + CORE-CORE REPULSION
          ENERGY OF ATOMS         =      35867.73354 KCAL/MOL
                              SUM =        145.26351 KCAL/MOL
          DISPERSION ENERGY       =         -1.53557 KCAL/MOL
                              SUM =        143.72794 KCAL/MOL = FINAL HEAT OF FORMATION



          TOTAL ENERGY            =      -1549.07291 EV
          ELECTRONIC ENERGY       =      -7125.67774 EV 
          CORE-CORE REPULSION     =       5576.60483 EV
          COSMO AREA              =        156.09 SQUARE ANGSTROMS
          COSMO VOLUME            =        147.53 CUBIC ANGSTROMS

          GRADIENT NORM           =          0.88030          =       0.21350 PER ATOM
          IONIZATION POTENTIAL    =         14.148790 EV
          ALPHA SOMO LUMO (EV)    =        -14.149 -5.650
          BETA  SOMO LUMO (EV)    =        -15.019 -6.894
          NO. OF ALPHA ELECTRONS  =         24
          NO. OF BETA  ELECTRONS  =         23
          MOLECULAR WEIGHT        =        124.1390         POINT GROUP:  Cs  

          MOLECULAR DIMENSIONS (Angstroms)

            Atom       Atom       Distance
            H    16    H    10     7.00282
            H    13    H    14     4.12854
            H    12    H    17     2.96233


          SCF CALCULATIONS        =          1

          WALL-CLOCK TIME         =      0.359 SECONDS
          COMPUTATION TIME        =      0.515 SECONDS

          LARGEST ATOMIC GRADIENTS

          Atom     Label                     Cartesian Gradients           Cartesian Coordinates       |Gradient|
                                           X          Y          Z        X          Y          Z

            14       H                   0.152     -0.205      0.288   -2.42486   -1.47320   -1.05906      0.385
            15       H                   0.092      0.013     -0.369   -2.26143   -2.01383    0.60043      0.381
             6       O                  -0.115      0.259      0.093    0.53503   -1.16701   -0.32515      0.298
             9       O                   0.193     -0.130     -0.062   -1.76242    1.22037    0.67860      0.241
            16       H                  -0.100     -0.167      0.091   -3.29309    0.04307    1.40780      0.215
            17       H                  -0.125     -0.090     -0.150   -3.46282    0.60432   -0.31623      0.215
             8       C                   0.001      0.202      0.067   -2.78499    0.15555    0.43267      0.213
             3       C                   0.200      0.024     -0.013    0.76838    1.04746    0.37286      0.202
             2       C                   0.104      0.132      0.031    1.44327   -0.08039   -0.06093      0.171
            10       H                  -0.073     -0.146     -0.047    3.53331    0.37462   -0.11862      0.170



       FINAL  POINT  AND  DERIVATIVES

   PARAMETER     ATOM    TYPE            VALUE        GRADIENT
      1          1  C    CARTESIAN X     2.815865      0.024978  KCAL/ANGSTROM
      2          1  C    CARTESIAN Y    -0.450847     -0.140195  KCAL/ANGSTROM
      3          1  C    CARTESIAN Z    -0.316858     -0.048317  KCAL/ANGSTROM
      4          2  C    CARTESIAN X     1.443272      0.104196  KCAL/ANGSTROM
      5          2  C    CARTESIAN Y    -0.080386      0.132464  KCAL/ANGSTROM
      6          2  C    CARTESIAN Z    -0.060928      0.030945  KCAL/ANGSTROM
      7          3  C    CARTESIAN X     0.768379      0.199720  KCAL/ANGSTROM
      8          3  C    CARTESIAN Y     1.047465      0.023972  KCAL/ANGSTROM
      9          3  C    CARTESIAN Z     0.372859     -0.013413  KCAL/ANGSTROM
     10          4  C    CARTESIAN X    -0.596300      0.034625  KCAL/ANGSTROM
     11          4  C    CARTESIAN Y     0.698315     -0.004277  KCAL/ANGSTROM
     12          4  C    CARTESIAN Z     0.393709     -0.006822  KCAL/ANGSTROM
     13          5  C    CARTESIAN X    -0.676895     -0.097909  KCAL/ANGSTROM
     14          5  C    CARTESIAN Y    -0.688114      0.068699  KCAL/ANGSTROM
     15          5  C    CARTESIAN Z    -0.049681      0.029093  KCAL/ANGSTROM
     16          6  O    CARTESIAN X     0.535026     -0.114517  KCAL/ANGSTROM
     17          6  O    CARTESIAN Y    -1.167009      0.259321  KCAL/ANGSTROM
     18          6  O    CARTESIAN Z    -0.325152      0.092689  KCAL/ANGSTROM
     19          7  C    CARTESIAN X    -2.061318     -0.040424  KCAL/ANGSTROM
     20          7  C    CARTESIAN Y    -1.131371      0.146298  KCAL/ANGSTROM
     21          7  C    CARTESIAN Z    -0.057658      0.052408  KCAL/ANGSTROM
     22          8  C    CARTESIAN X    -2.784993      0.001464  KCAL/ANGSTROM
     23          8  C    CARTESIAN Y     0.155553      0.202247  KCAL/ANGSTROM
     24          8  C    CARTESIAN Z     0.432673      0.066583  KCAL/ANGSTROM
     25          9  O    CARTESIAN X    -1.762417      0.192862  KCAL/ANGSTROM
     26          9  O    CARTESIAN Y     1.220365     -0.130024  KCAL/ANGSTROM
     27          9  O    CARTESIAN Z     0.678603     -0.061568  KCAL/ANGSTROM
     28         10  H    CARTESIAN X     3.533306     -0.073017  KCAL/ANGSTROM
     29         10  H    CARTESIAN Y     0.374617     -0.146145  KCAL/ANGSTROM
     30         10  H    CARTESIAN Z    -0.118617     -0.047099  KCAL/ANGSTROM
     31         11  H    CARTESIAN X     2.991222     -0.111984  KCAL/ANGSTROM
     32         11  H    CARTESIAN Y    -0.768380      0.042001  KCAL/ANGSTROM
     33         11  H    CARTESIAN Z    -1.370587     -0.025549  KCAL/ANGSTROM
     34         12  H    CARTESIAN X     3.156001     -0.101196  KCAL/ANGSTROM
     35         12  H    CARTESIAN Y    -1.313302      0.022458  KCAL/ANGSTROM
     36         12  H    CARTESIAN Z     0.301559      0.076788  KCAL/ANGSTROM
     37         13  H    CARTESIAN X     1.202574     -0.037311  KCAL/ANGSTROM
     38         13  H    CARTESIAN Y     2.003063     -0.027553  KCAL/ANGSTROM
     39         13  H    CARTESIAN Z     0.641262     -0.005916  KCAL/ANGSTROM
     40         14  H    CARTESIAN X    -2.424857      0.151834  KCAL/ANGSTROM
     41         14  H    CARTESIAN Y    -1.473199     -0.204507  KCAL/ANGSTROM
     42         14  H    CARTESIAN Z    -1.059061      0.288060  KCAL/ANGSTROM
     43         15  H    CARTESIAN X    -2.261434      0.092118  KCAL/ANGSTROM
     44         15  H    CARTESIAN Y    -2.013827      0.012520  KCAL/ANGSTROM
     45         15  H    CARTESIAN Z     0.600427     -0.368998  KCAL/ANGSTROM
     46         16  H    CARTESIAN X    -3.293088     -0.100194  KCAL/ANGSTROM
     47         16  H    CARTESIAN Y     0.043074     -0.167417  KCAL/ANGSTROM
     48         16  H    CARTESIAN Z     1.407803      0.091005  KCAL/ANGSTROM
     49         17  H    CARTESIAN X    -3.462819     -0.125246  KCAL/ANGSTROM
     50         17  H    CARTESIAN Y     0.604318     -0.089865  KCAL/ANGSTROM
     51         17  H    CARTESIAN Z    -0.316229     -0.149890  KCAL/ANGSTROM




   ATOM   CHEMICAL          X               Y               Z
  NUMBER   SYMBOL      (ANGSTROMS)     (ANGSTROMS)     (ANGSTROMS)

     1       C          2.81586481  *  -0.45084672  *  -0.31685783  *
     2       C          1.44327240  *  -0.08038623  *  -0.06092786  *
     3       C          0.76837866  *   1.04746466  *   0.37285897  *
     4       C         -0.59629964  *   0.69831475  *   0.39370895  *
     5       C         -0.67689479  *  -0.68811384  *  -0.04968122  *
     6       O          0.53502633  *  -1.16700921  *  -0.32515172  *
     7       C         -2.06131773  *  -1.13137112  *  -0.05765768  *
     8       C         -2.78499261  *   0.15555333  *   0.43267296  *
     9       O         -1.76241700  *   1.22036545  *   0.67860322  *
    10       H          3.53330618  *   0.37461720  *  -0.11861738  *
    11       H          2.99122205  *  -0.76838029  *  -1.37058661  *
    12       H          3.15600052  *  -1.31330172  *   0.30155864  *
    13       H          1.20257403  *   2.00306258  *   0.64126182  *
    14       H         -2.42485661  *  -1.47319942  *  -1.05906115  *
    15       H         -2.26143409  *  -2.01382651  *   0.60042676  *
    16       H         -3.29308770  *   0.04307387  *   1.40780273  *
    17       H         -3.46281914  *   0.60431754  *  -0.31622923  *

                             CARTESIAN COORDINATES

   1    C        2.815864815    -0.450846718    -0.316857831
   2    C        1.443272401    -0.080386233    -0.060927860
   3    C        0.768378660     1.047464661     0.372858974
   4    C       -0.596299636     0.698314747     0.393708945
   5    C       -0.676894787    -0.688113838    -0.049681222
   6    O        0.535026329    -1.167009211    -0.325151721
   7    C       -2.061317726    -1.131371116    -0.057657682
   8    C       -2.784992608     0.155553330     0.432672958
   9    O       -1.762417005     1.220365450     0.678603217
  10    H        3.533306183     0.374617204    -0.118617385
  11    H        2.991222049    -0.768380287    -1.370586610
  12    H        3.156000524    -1.313301718     0.301558637
  13    H        1.202574025     2.003062576     0.641261824
  14    H       -2.424856610    -1.473199417    -1.059061150
  15    H       -2.261434086    -2.013826509     0.600426757
  16    H       -3.293087700     0.043073867     1.407802730
  17    H       -3.462819142     0.604317544    -0.316229228


           Empirical Formula: C7 H8 O2  =    17 atoms



      MOLECULAR POINT GROUP   :   Cs  


          ALPHA EIGENVALUES  
 -38.36989 -37.66027 -33.49024 -33.12611 -31.44225 -28.28485 -26.26131 -25.63784
 -24.96100 -22.38379 -22.19181 -21.43421 -20.45731 -19.94291 -19.29160 -19.18119
 -19.03013 -18.52462 -18.31063 -18.09091 -17.54854 -17.29576 -15.25040 -14.14879
  -5.65036  -4.55505  -4.09898  -3.66675  -2.30752  -2.20939  -1.75374  -1.37679
  -1.25873  -0.88202  -0.76473  -0.15406   0.03830   0.69457   0.90037   0.91482
   1.01699   1.06386   1.49723   2.13559


           BETA EIGENVALUES 
 -38.19494 -37.20299 -33.27477 -32.96103 -31.38206 -28.21197 -26.11862 -25.50435
 -24.89229 -22.10453 -21.99352 -21.36546 -20.08719 -19.86278 -19.27566 -18.94621
 -18.81423 -18.25100 -18.25077 -18.03324 -17.47347 -17.00050 -15.01947  -6.89403
  -4.44189  -4.41270  -3.69804  -3.53971  -2.21274  -2.10519  -1.59875  -1.30439
  -1.16352  -0.81124  -0.64373  -0.13289   0.10758   0.71970   0.92432   0.93239
   1.02716   1.10719   1.47017   2.14579


              NET ATOMIC CHARGES AND DIPOLE CONTRIBUTIONS

  ATOM NO.   TYPE          CHARGE      No. of ELECS.   s-Pop       p-Pop       
    1          C          -0.493734        4.4937     1.04969     3.44405
    2          C           0.350259        3.6497     1.14349     2.50625
    3          C          -0.344244        4.3442     1.07720     3.26704
    4          C           0.223838        3.7762     1.11706     2.65910
    5          C           0.129090        3.8709     1.13115     2.73976
    6          O          -0.125969        6.1260     1.88080     4.24517
    7          C          -0.327734        4.3277     1.06531     3.26243
    8          C          -0.062468        4.0625     1.12848     2.93399
    9          O          -0.097910        6.0979     1.88287     4.21504
   10          H           0.222596        0.7774     0.77740
   11          H           0.224076        0.7759     0.77592
   12          H           0.224081        0.7759     0.77592
   13          H           0.240842        0.7592     0.75916
   14          H           0.228253        0.7717     0.77175
   15          H           0.228269        0.7717     0.77173
   16          H           0.190385        0.8096     0.80961
   17          H           0.190372        0.8096     0.80963
 DIPOLE           X         Y         Z       TOTAL
 POINT-CHG.    -0.237    -1.086    -0.331     1.160
 HYBRID        -0.059    -0.206    -0.062     0.223
 SUM           -0.296    -1.293    -0.392     1.383


          ATOMIC ORBITAL ELECTRON POPULATIONS

     Atom    s        px        py        pz   
    1  C   1.04969   0.99855   1.22352   1.22197
    2  C   1.14349   0.89517   0.81365   0.79743
    3  C   1.07720   0.96501   1.11181   1.19022
    4  C   1.11706   0.90140   0.91933   0.83837
    5  C   1.13115   0.88873   0.94569   0.90534
    6  O   1.88080   1.20777   1.37790   1.65950
    7  C   1.06531   0.95369   1.09309   1.21565
    8  C   1.12848   0.91158   0.85482   1.16759
    9  O   1.88287   1.19876   1.36131   1.65498
   10  H   0.77740
   11  H   0.77592
   12  H   0.77592
   13  H   0.75916
   14  H   0.77175
   15  H   0.77173
   16  H   0.80961
   17  H   0.80963


                    (SZ)    =    0.500000
                    (S**2)  =    0.775519


          ATOMIC ORBITAL SPIN POPULATIONS

    Atom   Total    s     px     py     pz   
         Atomic
    1  C -0.0044 -0.001 -0.005 -0.001  0.003
    2  C  0.2210  0.006  0.008  0.026  0.181
    3  C -0.1442 -0.005 -0.009 -0.018 -0.112
    4  C  0.1412  0.000  0.002  0.006  0.133
    5  C  0.5336  0.013  0.017  0.060  0.444
    6  O  0.0208  0.001 -0.010 -0.003  0.033
    7  C -0.0138 -0.003 -0.015 -0.003  0.007
    8  C -0.0120 -0.001 -0.008 -0.004  0.001
    9  O  0.1839  0.005  0.007  0.021  0.151
   10  H  0.0001  0.000
   11  H  0.0090  0.009
   12  H  0.0089  0.009
   13  H  0.0035  0.003
   14  H  0.0225  0.022
   15  H  0.0225  0.022
   16  H  0.0037  0.004
   17  H  0.0037  0.004

 **********************
 *                    *
 * JOB ENDED NORMALLY *
 *                    *
 **********************



 TOTAL JOB TIME:             0.54 SECONDS

 == MOPAC DONE ==
