 *******************************************************************************
 **                                                                           **
 **                              MOPAC v23.2                                  **
 **                                                                           **
 *******************************************************************************
 **          Digital Object Identifier (DOI): 10.5281/zenodo.6511958          **
 **    Visit the DOI location for information on how to cite this program.    **
 *******************************************************************************

                              PM7 CALCULATION RESULTS

 *******************************************************************************
 *  CALCULATION DONE: (MAX THREADS = 40)             Fri Sep 19 21:36:52 2025  *
 *  PM7        - The PM7 Hamiltonian to be used
 *  EPS=37.5   - USE ANDREAS KLAMT'S COSMO IMPLICIT SOLVATION MODEL
 *  1SCF       - DO 1 SCF AND THEN STOP 
 *  T=         - A TIME OF 172800.0 SECONDS REQUESTED
 *  DUMP=N     - RESTART FILE WRITTEN EVERY 7200.0 SECONDS REQUESTED
 *  RELSCF     - DEFAULT SCF CRITERION MULTIPLIED BY 0.0001
 *              (DEFAULT SCF CRITERION = 0.00010)
 *  GRADIENTS  - ALL GRADIENTS TO BE PRINTED
 *  DISP       - PRINT DISPERSION AND HYDROGEN BOND ENERGIES
 *******************************************************************************
PM7 1SCF GRADIENTS EPS=37.5 DISP RELSCF=0.0001
 Title: ASE calculation

   ATOM   CHEMICAL          X               Y               Z
  NUMBER   SYMBOL      (ANGSTROMS)     (ANGSTROMS)     (ANGSTROMS)

     1       O          1.77754308  *  -2.14739599  *  -0.97326742  *
     2       C          1.45197504  *  -1.47964623  *   0.23444253  *
     3       C          0.92238476  *  -0.08857335  *  -0.07568663  *
     4       C          0.40846661  *   0.70189101  *   1.17723664  *
     5       C         -1.06661975  *   0.97006998  *   0.74443029  *
     6       C         -0.88020265  *   1.38355071  *  -0.76671691  *
     7       C         -0.42058941  *  -0.11488192  *  -0.87927410  *
     8       O         -0.45370696  *  -0.71581877  *  -2.10124881  *
     9       C         -1.49279958  *  -0.45345557  *   0.23030579  *
    10       H          2.51356893  *  -1.69676079  *  -1.43309140  *
    11       H          0.68878624  *  -2.14814573  *   0.67823031  *
    12       H          2.33984827  *  -1.45412239  *   0.89003234  *
    13       H          1.68539115  *   0.49153418  *  -0.62938891  *
    14       H          0.96874767  *   1.62990223  *   1.33802748  *
    15       H          0.46487304  *   0.11533856  *   2.10124881  *
    16       H         -1.69961918  *   1.53915994  *   1.40032726  *
    17       H         -0.14181324  *   2.14814573  *  -0.98572351  *
    18       H         -1.79850230  *   1.62097068  *  -1.30185888  *
    19       H          0.09171191  *  -1.54529936  *  -2.08491982  *
    20       H         -2.51356893  *  -0.52782397  *  -0.14248437  *
    21       H         -1.29986968  *  -1.29637448  *   0.88336242  *



          CARTESIAN COORDINATES 

    NO.       ATOM           X           Y           Z

     1         O          1.7775     -2.1474     -0.9733
     2         C          1.4520     -1.4796      0.2344
     3         C          0.9224     -0.0886     -0.0757
     4         C          0.4085      0.7019      1.1772
     5         C         -1.0666      0.9701      0.7444
     6         C         -0.8802      1.3836     -0.7667
     7         C         -0.4206     -0.1149     -0.8793
     8         O         -0.4537     -0.7158     -2.1012
     9         C         -1.4928     -0.4535      0.2303
    10         H          2.5136     -1.6968     -1.4331
    11         H          0.6888     -2.1481      0.6782
    12         H          2.3398     -1.4541      0.8900
    13         H          1.6854      0.4915     -0.6294
    14         H          0.9687      1.6299      1.3380
    15         H          0.4649      0.1153      2.1012
    16         H         -1.6996      1.5392      1.4003
    17         H         -0.1418      2.1481     -0.9857
    18         H         -1.7985      1.6210     -1.3019
    19         H          0.0917     -1.5453     -2.0849
    20         H         -2.5136     -0.5278     -0.1425
    21         H         -1.2999     -1.2964      0.8834

 General Reference for PM7:
 "Optimization of Parameters for Semiempirical Methods VI: More Modifications to the 
 NDDO Approximations and Re-optimization of Parameters", J. J. P. Stewart, J. Mol. Mod., 1:32, 19 (2013)
 https://link.springer.com/article/10.1007/s00894-012-1667-x

           Empirical Formula: C7 H12 O2  =    21 atoms



      MOLECULAR POINT GROUP   :   C1  


      RHF CALCULATION, NO. OF DOUBLY OCCUPIED LEVELS = 26

  SCF CRITERION =    0.1000E-07

 -------------------------------------------------------------------------------
 PM7 1SCF GRADIENTS EPS=37.5 DISP RELSCF=0.0001
 Title: ASE calculation



     1SCF WAS SPECIFIED, SO BFGS WAS NOT USED                 
     SCF FIELD WAS ACHIEVED                                   


                              PM7 CALCULATION
                                                       MOPAC v23.2 Linux
                                                       Fri Sep 19 21:36:54 2025




          FINAL HEAT OF FORMATION =        -74.31981 KCAL/MOL =    -310.95408 KJ/MOL

          TOTAL ENERGY            =     -37168.70180 KCAL/MOL = ELECTRONIC ENERGY + CORE-CORE REPULSION + SOLVATION ENERGY
          ENERGY OF ATOMS         =      37097.27293 KCAL/MOL
                              SUM =        -71.42887 KCAL/MOL
          DISPERSION ENERGY       =         -1.89590 KCAL/MOL
          H-BOND ENERGY           =         -0.99504 KCAL/MOL
                              SUM =        -74.31981 KCAL/MOL = FINAL HEAT OF FORMATION

          VAN DER WAALS AREA      =        158.80 SQUARE ANGSTROMS


          TOTAL ENERGY            =      -1611.78746 EV
          ELECTRONIC ENERGY       =      -2605.57875 EV 
          CORE-CORE REPULSION     =        993.79129 EV

          DIELECTRIC ENERGY       =         -0.41308 EV
          COSMO AREA              =        158.80 SQUARE ANGSTROMS
          COSMO VOLUME            =        162.79 CUBIC ANGSTROMS

          GRADIENT NORM           =         13.66097          =       2.98107 PER ATOM
          IONIZATION POTENTIAL    =         10.472865 EV
          HOMO LUMO ENERGIES (EV) =        -10.473  2.415
          NO. OF FILLED LEVELS    =         26
          MOLECULAR WEIGHT        =        128.1706         POINT GROUP:  C1  

          MOLECULAR DIMENSIONS (Angstroms)

            Atom       Atom       Distance
            H    16    H    10     6.02083
            H    12    H    18     4.36080
            H    20    H    14     3.79436


          SCF CALCULATIONS        =          2

          WALL-CLOCK TIME         =      1.633 SECONDS
          COMPUTATION TIME        =      0.399 SECONDS

          LARGEST ATOMIC GRADIENTS

          Atom     Label                     Cartesian Gradients           Cartesian Coordinates       |Gradient|
                                           X          Y          Z        X          Y          Z

             7       C                  -0.988     -4.290     -8.386   -0.42059   -0.11488   -0.87927      9.471
            10       H                  -2.903     -1.816      2.958    2.51357   -1.69676   -1.43309      4.524
             8       O                   1.974      0.700      2.873   -0.45371   -0.71582   -2.10125      3.555
            19       H                  -2.776      1.781      0.599    0.09171   -1.54530   -2.08492      3.353
             9       C                   0.503      0.048      2.999   -1.49280   -0.45346    0.23031      3.041
             3       C                   1.653      1.499      1.968    0.92238   -0.08857   -0.07569      2.976
             1       O                   1.953      1.798     -1.226    1.77754   -2.14740   -0.97327      2.924
             2       C                   2.537      0.287     -1.201    1.45198   -1.47965    0.23444      2.821
             6       C                   0.987      0.943      1.703   -0.88020    1.38355   -0.76672      2.182
             4       C                   1.149      0.324      1.356    0.40847    0.70189    1.17724      1.806



       FINAL  POINT  AND  DERIVATIVES

   PARAMETER     ATOM    TYPE            VALUE        GRADIENT
      1          1  O    CARTESIAN X     1.777543      1.953006  KCAL/ANGSTROM
      2          1  O    CARTESIAN Y    -2.147396      1.797626  KCAL/ANGSTROM
      3          1  O    CARTESIAN Z    -0.973267     -1.226470  KCAL/ANGSTROM
      4          2  C    CARTESIAN X     1.451975      2.536672  KCAL/ANGSTROM
      5          2  C    CARTESIAN Y    -1.479646      0.287240  KCAL/ANGSTROM
      6          2  C    CARTESIAN Z     0.234443     -1.200845  KCAL/ANGSTROM
      7          3  C    CARTESIAN X     0.922385      1.653370  KCAL/ANGSTROM
      8          3  C    CARTESIAN Y    -0.088573      1.499201  KCAL/ANGSTROM
      9          3  C    CARTESIAN Z    -0.075687      1.968190  KCAL/ANGSTROM
     10          4  C    CARTESIAN X     0.408467      1.149156  KCAL/ANGSTROM
     11          4  C    CARTESIAN Y     0.701891      0.323932  KCAL/ANGSTROM
     12          4  C    CARTESIAN Z     1.177237      1.355690  KCAL/ANGSTROM
     13          5  C    CARTESIAN X    -1.066620     -1.172754  KCAL/ANGSTROM
     14          5  C    CARTESIAN Y     0.970070      0.547655  KCAL/ANGSTROM
     15          5  C    CARTESIAN Z     0.744430      0.646245  KCAL/ANGSTROM
     16          6  C    CARTESIAN X    -0.880203      0.986799  KCAL/ANGSTROM
     17          6  C    CARTESIAN Y     1.383551      0.942588  KCAL/ANGSTROM
     18          6  C    CARTESIAN Z    -0.766717      1.703104  KCAL/ANGSTROM
     19          7  C    CARTESIAN X    -0.420589     -0.988485  KCAL/ANGSTROM
     20          7  C    CARTESIAN Y    -0.114882     -4.290043  KCAL/ANGSTROM
     21          7  C    CARTESIAN Z    -0.879274     -8.385959  KCAL/ANGSTROM
     22          8  O    CARTESIAN X    -0.453707      1.973901  KCAL/ANGSTROM
     23          8  O    CARTESIAN Y    -0.715819      0.699737  KCAL/ANGSTROM
     24          8  O    CARTESIAN Z    -2.101249      2.872630  KCAL/ANGSTROM
     25          9  C    CARTESIAN X    -1.492800      0.503344  KCAL/ANGSTROM
     26          9  C    CARTESIAN Y    -0.453456      0.048015  KCAL/ANGSTROM
     27          9  C    CARTESIAN Z     0.230306      2.999101  KCAL/ANGSTROM
     28         10  H    CARTESIAN X     2.513569     -2.902533  KCAL/ANGSTROM
     29         10  H    CARTESIAN Y    -1.696761     -1.815723  KCAL/ANGSTROM
     30         10  H    CARTESIAN Z    -1.433091      2.957557  KCAL/ANGSTROM
     31         11  H    CARTESIAN X     0.688786      0.257257  KCAL/ANGSTROM
     32         11  H    CARTESIAN Y    -2.148146     -0.372301  KCAL/ANGSTROM
     33         11  H    CARTESIAN Z     0.678230     -1.123859  KCAL/ANGSTROM
     34         12  H    CARTESIAN X     2.339848     -0.772374  KCAL/ANGSTROM
     35         12  H    CARTESIAN Y    -1.454122     -0.197604  KCAL/ANGSTROM
     36         12  H    CARTESIAN Z     0.890032     -0.017520  KCAL/ANGSTROM
     37         13  H    CARTESIAN X     1.685391     -1.373939  KCAL/ANGSTROM
     38         13  H    CARTESIAN Y     0.491534     -0.231593  KCAL/ANGSTROM
     39         13  H    CARTESIAN Z    -0.629389      0.111879  KCAL/ANGSTROM
     40         14  H    CARTESIAN X     0.968748     -0.341915  KCAL/ANGSTROM
     41         14  H    CARTESIAN Y     1.629902     -0.292707  KCAL/ANGSTROM
     42         14  H    CARTESIAN Z     1.338027     -0.437424  KCAL/ANGSTROM
     43         15  H    CARTESIAN X     0.464873     -0.375841  KCAL/ANGSTROM
     44         15  H    CARTESIAN Y     0.115339     -0.027486  KCAL/ANGSTROM
     45         15  H    CARTESIAN Z     2.101249     -0.658623  KCAL/ANGSTROM
     46         16  H    CARTESIAN X    -1.699619      0.332448  KCAL/ANGSTROM
     47         16  H    CARTESIAN Y     1.539160     -0.234017  KCAL/ANGSTROM
     48         16  H    CARTESIAN Z     1.400327     -0.271588  KCAL/ANGSTROM
     49         17  H    CARTESIAN X    -0.141813     -0.594994  KCAL/ANGSTROM
     50         17  H    CARTESIAN Y     2.148146     -0.486014  KCAL/ANGSTROM
     51         17  H    CARTESIAN Z    -0.985724     -0.306125  KCAL/ANGSTROM
     52         18  H    CARTESIAN X    -1.798502      0.458918  KCAL/ANGSTROM
     53         18  H    CARTESIAN Y     1.620971     -0.391377  KCAL/ANGSTROM
     54         18  H    CARTESIAN Z    -1.301859     -0.510443  KCAL/ANGSTROM
     55         19  H    CARTESIAN X     0.091712     -2.776398  KCAL/ANGSTROM
     56         19  H    CARTESIAN Y    -1.545299      1.781435  KCAL/ANGSTROM
     57         19  H    CARTESIAN Z    -2.084920      0.599260  KCAL/ANGSTROM
     58         20  H    CARTESIAN X    -2.513569      0.130818  KCAL/ANGSTROM
     59         20  H    CARTESIAN Y    -0.527824     -0.087101  KCAL/ANGSTROM
     60         20  H    CARTESIAN Z    -0.142484     -0.584971  KCAL/ANGSTROM
     61         21  H    CARTESIAN X    -1.299870     -0.636507  KCAL/ANGSTROM
     62         21  H    CARTESIAN Y    -1.296374      0.498495  KCAL/ANGSTROM
     63         21  H    CARTESIAN Z     0.883362     -0.489828  KCAL/ANGSTROM




   ATOM   CHEMICAL          X               Y               Z
  NUMBER   SYMBOL      (ANGSTROMS)     (ANGSTROMS)     (ANGSTROMS)

     1       O          1.77754308  *  -2.14739599  *  -0.97326742  *
     2       C          1.45197504  *  -1.47964623  *   0.23444253  *
     3       C          0.92238476  *  -0.08857335  *  -0.07568663  *
     4       C          0.40846661  *   0.70189101  *   1.17723664  *
     5       C         -1.06661975  *   0.97006998  *   0.74443029  *
     6       C         -0.88020265  *   1.38355071  *  -0.76671691  *
     7       C         -0.42058941  *  -0.11488192  *  -0.87927410  *
     8       O         -0.45370696  *  -0.71581877  *  -2.10124881  *
     9       C         -1.49279958  *  -0.45345557  *   0.23030579  *
    10       H          2.51356893  *  -1.69676079  *  -1.43309140  *
    11       H          0.68878624  *  -2.14814573  *   0.67823031  *
    12       H          2.33984827  *  -1.45412239  *   0.89003234  *
    13       H          1.68539115  *   0.49153418  *  -0.62938891  *
    14       H          0.96874767  *   1.62990223  *   1.33802748  *
    15       H          0.46487304  *   0.11533856  *   2.10124881  *
    16       H         -1.69961918  *   1.53915994  *   1.40032726  *
    17       H         -0.14181324  *   2.14814573  *  -0.98572351  *
    18       H         -1.79850230  *   1.62097068  *  -1.30185888  *
    19       H          0.09171191  *  -1.54529936  *  -2.08491982  *
    20       H         -2.51356893  *  -0.52782397  *  -0.14248437  *
    21       H         -1.29986968  *  -1.29637448  *   0.88336242  *

                             CARTESIAN COORDINATES

   1    O        1.777543077    -2.147395988    -0.973267419
   2    C        1.451975036    -1.479646229     0.234442525
   3    C        0.922384759    -0.088573351    -0.075686629
   4    C        0.408466608     0.701891006     1.177236644
   5    C       -1.066619750     0.970069979     0.744430292
   6    C       -0.880202654     1.383550705    -0.766716915
   7    C       -0.420589409    -0.114881917    -0.879274096
   8    O       -0.453706962    -0.715818765    -2.101248814
   9    C       -1.492799582    -0.453455567     0.230305791
  10    H        2.513568930    -1.696760795    -1.433091398
  11    H        0.688786239    -2.148145731     0.678230309
  12    H        2.339848265    -1.454122393     0.890032345
  13    H        1.685391150     0.491534183    -0.629388907
  14    H        0.968747671     1.629902229     1.338027485
  15    H        0.464873039     0.115338564     2.101248814
  16    H       -1.699619176     1.539159942     1.400327263
  17    H       -0.141813245     2.148145731    -0.985723505
  18    H       -1.798502300     1.620970680    -1.301858876
  19    H        0.091711911    -1.545299359    -2.084919822
  20    H       -2.513568930    -0.527823973    -0.142484368
  21    H       -1.299869677    -1.296374479     0.883362424


           Empirical Formula: C7 H12 O2  =    21 atoms



      MOLECULAR POINT GROUP   :   C1  


                  EIGENVALUES  
 -32.51544 -29.76228 -29.22575 -26.05716 -23.75465 -23.20115 -21.87176 -19.36629
 -18.82849 -18.08741 -17.03822 -16.31244 -15.63471 -15.33877 -14.77115 -14.14856
 -13.67313 -12.90070 -12.70211 -12.53435 -12.04987 -11.91489 -11.62180 -11.40069
 -10.71985 -10.47286   2.41546   2.96722   3.04304   3.15904   3.30978   3.52621
   3.59969   4.16657   4.51401   4.98337   5.31811   5.66705   5.72946   5.80876
   5.93296   5.97287   6.09307   6.15303   6.21231   6.44510   6.55471   6.62401


              NET ATOMIC CHARGES AND DIPOLE CONTRIBUTIONS

  ATOM NO.   TYPE          CHARGE      No. of ELECS.   s-Pop       p-Pop       
    1          O          -0.627625        6.6276     1.84383     4.78380
    2          C           0.002980        3.9970     1.08892     2.90810
    3          C          -0.232070        4.2321     1.08879     3.14328
    4          C          -0.283937        4.2839     1.07438     3.20955
    5          C          -0.098288        4.0983     1.08289     3.01540
    6          C          -0.345547        4.3455     1.08823     3.25732
    7          C           0.310204        3.6898     1.09065     2.59915
    8          O          -0.600723        6.6007     1.83328     4.76744
    9          C          -0.366817        4.3668     1.08955     3.27727
   10          H           0.359748        0.6403     0.64025
   11          H           0.150444        0.8496     0.84956
   12          H           0.134465        0.8655     0.86554
   13          H           0.161077        0.8389     0.83892
   14          H           0.150028        0.8500     0.84997
   15          H           0.150683        0.8493     0.84932
   16          H           0.147728        0.8523     0.85227
   17          H           0.152163        0.8478     0.84784
   18          H           0.154648        0.8454     0.84535
   19          H           0.377181        0.6228     0.62282
   20          H           0.152839        0.8472     0.84716
   21          H           0.150819        0.8492     0.84918
 DIPOLE           X         Y         Z       TOTAL
 POINT-CHG.     1.778     1.488     3.335     4.062
 HYBRID         0.392    -0.332    -0.621     0.806
 SUM            2.170     1.156     2.714     3.663


          ATOMIC ORBITAL ELECTRON POPULATIONS

     Atom    s        px        py        pz   
    1  O   1.84383   1.66764   1.63885   1.47731
    2  C   1.08892   1.10363   0.96712   0.83735
    3  C   1.08879   1.06597   1.03290   1.04441
    4  C   1.07438   1.02736   1.12514   1.05705
    5  C   1.08289   1.00990   1.00957   0.99593
    6  C   1.08823   1.16330   1.05385   1.04017
    7  C   1.09065   0.92354   0.90439   0.77122
    8  O   1.83328   1.79333   1.54479   1.42932
    9  C   1.08955   1.11818   1.06119   1.09789
   10  H   0.64025
   11  H   0.84956
   12  H   0.86554
   13  H   0.83892
   14  H   0.84997
   15  H   0.84932
   16  H   0.85227
   17  H   0.84784
   18  H   0.84535
   19  H   0.62282
   20  H   0.84716
   21  H   0.84918

 **********************
 *                    *
 * JOB ENDED NORMALLY *
 *                    *
 **********************



 TOTAL JOB TIME:             2.28 SECONDS

 == MOPAC DONE ==
