 *******************************************************************************
 **                                                                           **
 **                              MOPAC v23.2                                  **
 **                                                                           **
 *******************************************************************************
 **          Digital Object Identifier (DOI): 10.5281/zenodo.6511958          **
 **    Visit the DOI location for information on how to cite this program.    **
 *******************************************************************************

                              PM7 CALCULATION RESULTS

 *******************************************************************************
 *  CALCULATION DONE: (MAX THREADS = 40)             Fri Sep 19 21:32:38 2025  *
 *  PM7        - The PM7 Hamiltonian to be used
 *
 *
 *
 *                 CHARGE ON SYSTEM = +1
 *
 *
 *
 *  EPS=37.5   - USE ANDREAS KLAMT'S COSMO IMPLICIT SOLVATION MODEL
 *  1SCF       - DO 1 SCF AND THEN STOP 
 *  T=         - A TIME OF 172800.0 SECONDS REQUESTED
 *  DUMP=N     - RESTART FILE WRITTEN EVERY 7200.0 SECONDS REQUESTED
 *  RELSCF     - DEFAULT SCF CRITERION MULTIPLIED BY 0.0001
 *              (DEFAULT SCF CRITERION = 0.00010)
 *  GRADIENTS  - ALL GRADIENTS TO BE PRINTED
 *  DISP       - PRINT DISPERSION AND HYDROGEN BOND ENERGIES
 *******************************************************************************
PM7 1SCF GRADIENTS EPS=37.5 DISP RELSCF=0.0001 CHARGE=1
 Title: ASE calculation

   ATOM   CHEMICAL          X               Y               Z
  NUMBER   SYMBOL      (ANGSTROMS)     (ANGSTROMS)     (ANGSTROMS)

     1       C         -2.14373689  *  -1.35270215  *  -0.94101569  *
     2       N         -1.42293615  *  -0.36411493  *  -0.24113955  *
     3       C         -1.74775090  *   0.40933168  *   0.95898021  *
     4       C         -0.35227630  *   1.09901977  *   0.85109453  *
     5       C         -0.09283277  *   0.25041143  *  -0.44124205  *
     6       C          1.10117350  *  -0.74654077  *  -0.45874386  *
     7       N          2.25884139  *   0.03642092  *  -0.89127163  *
     8       C          1.25799926  *  -1.39101852  *   0.84306765  *
     9       N          1.40018806  *  -1.90668678  *   1.86592909  *
    10       H         -2.62192145  *  -0.92881937  *  -1.86733184  *
    11       H         -2.96981805  *  -1.79593484  *  -0.33457377  *
    12       H         -1.49311014  *  -2.18700274  *  -1.29839027  *
    13       H         -1.91378931  *  -0.21278377  *   1.86733184  *
    14       H         -2.63470666  *   1.07067034  *   0.84818221  *
    15       H          0.32800515  *   0.90942989  *   1.69321715  *
    16       H         -0.37668147  *   2.18700274  *   0.69126309  *
    17       H         -0.05158698  *   0.86951306  *  -1.38177609  *
    18       H          0.89687715  *  -1.54283239  *  -1.24368853  *
    19       H          2.67749087  *   0.58835635  *  -0.15510267  *
    20       H          2.96981805  *  -0.52112489  *  -1.35084328  *



          CARTESIAN COORDINATES 

    NO.       ATOM           X           Y           Z

     1         C         -2.1437     -1.3527     -0.9410
     2         N         -1.4229     -0.3641     -0.2411
     3         C         -1.7478      0.4093      0.9590
     4         C         -0.3523      1.0990      0.8511
     5         C         -0.0928      0.2504     -0.4412
     6         C          1.1012     -0.7465     -0.4587
     7         N          2.2588      0.0364     -0.8913
     8         C          1.2580     -1.3910      0.8431
     9         N          1.4002     -1.9067      1.8659
    10         H         -2.6219     -0.9288     -1.8673
    11         H         -2.9698     -1.7959     -0.3346
    12         H         -1.4931     -2.1870     -1.2984
    13         H         -1.9138     -0.2128      1.8673
    14         H         -2.6347      1.0707      0.8482
    15         H          0.3280      0.9094      1.6932
    16         H         -0.3767      2.1870      0.6913
    17         H         -0.0516      0.8695     -1.3818
    18         H          0.8969     -1.5428     -1.2437
    19         H          2.6775      0.5884     -0.1551
    20         H          2.9698     -0.5211     -1.3508

 General Reference for PM7:
 "Optimization of Parameters for Semiempirical Methods VI: More Modifications to the 
 NDDO Approximations and Re-optimization of Parameters", J. J. P. Stewart, J. Mol. Mod., 1:32, 19 (2013)
 https://link.springer.com/article/10.1007/s00894-012-1667-x

           Empirical Formula: C6 H11 N3  =    20 atoms



      MOLECULAR POINT GROUP   :   C1  


          UHF CALCULATION, NO. OF ALPHA ELECTRONS =   25
                           NO. OF BETA  ELECTRONS =   24
  SCF CRITERION =    0.1000E-07

 -------------------------------------------------------------------------------
 PM7 1SCF GRADIENTS EPS=37.5 DISP RELSCF=0.0001 CHARGE=1
 Title: ASE calculation



     1SCF WAS SPECIFIED, SO BFGS WAS NOT USED                 
     SCF FIELD WAS ACHIEVED                                   


                              PM7 CALCULATION
                                                       MOPAC v23.2 Linux
                                                       Fri Sep 19 21:32:39 2025




          FINAL HEAT OF FORMATION =        168.70241 KCAL/MOL =     705.85090 KJ/MOL

          TOTAL ENERGY            =     -33150.72739 KCAL/MOL = ELECTRONIC ENERGY + CORE-CORE REPULSION + SOLVATION ENERGY
          ENERGY OF ATOMS         =      33321.83911 KCAL/MOL
                              SUM =        171.11172 KCAL/MOL
          DISPERSION ENERGY       =         -2.40931 KCAL/MOL
                              SUM =        168.70241 KCAL/MOL = FINAL HEAT OF FORMATION

          VAN DER WAALS AREA      =        170.52 SQUARE ANGSTROMS


          TOTAL ENERGY            =      -1437.55160 EV
          ELECTRONIC ENERGY       =      -2216.38070 EV 
          CORE-CORE REPULSION     =        778.82910 EV

          DIELECTRIC ENERGY       =         -2.77747 EV
          COSMO AREA              =        170.52 SQUARE ANGSTROMS
          COSMO VOLUME            =        173.06 CUBIC ANGSTROMS

          GRADIENT NORM           =         15.58018          =       3.48383 PER ATOM
          IONIZATION POTENTIAL    =         10.698111 EV
          ALPHA SOMO LUMO (EV)    =        -10.698 -0.376
          BETA  SOMO LUMO (EV)    =        -10.720 -2.099
          NO. OF ALPHA ELECTRONS  =         25
          NO. OF BETA  ELECTRONS  =         24
          MOLECULAR WEIGHT        =        125.1730         POINT GROUP:  C1  

          MOLECULAR DIMENSIONS (Angstroms)

            Atom       Atom       Distance
            H    20    H    14     6.22738
            H    10    N     9     4.95588
            H    11    H    16     4.49107


          SCF CALCULATIONS        =          2

          WALL-CLOCK TIME         =      1.070 SECONDS
          COMPUTATION TIME        =      0.907 SECONDS

          LARGEST ATOMIC GRADIENTS

          Atom     Label                     Cartesian Gradients           Cartesian Coordinates       |Gradient|
                                           X          Y          Z        X          Y          Z

             6       C                   4.051     -5.830      0.889    1.10117   -0.74654   -0.45874      7.155
             9       N                  -1.201      3.114     -5.064    1.40019   -1.90669    1.86593      6.065
             1       C                  -3.993     -1.915     -3.323   -2.14374   -1.35270   -0.94102      5.536
             7       N                  -0.297     -3.048      3.394    2.25884    0.03642   -0.89127      4.571
             8       C                  -0.745     -2.075      3.610    1.25800   -1.39102    0.84307      4.230
             3       C                  -3.650      0.165      1.681   -1.74775    0.40933    0.95898      4.022
            20       H                  -0.984      2.827     -2.251    2.96982   -0.52112   -1.35084      3.745
             2       N                   2.597      2.634      0.169   -1.42294   -0.36411   -0.24114      3.703
            18       H                   1.423      2.316      1.378    0.89688   -1.54283   -1.24369      3.047
             5       C                   1.002      2.015     -1.127   -0.09283    0.25041   -0.44124      2.517



       FINAL  POINT  AND  DERIVATIVES

   PARAMETER     ATOM    TYPE            VALUE        GRADIENT
      1          1  C    CARTESIAN X    -2.143737     -3.992838  KCAL/ANGSTROM
      2          1  C    CARTESIAN Y    -1.352702     -1.915110  KCAL/ANGSTROM
      3          1  C    CARTESIAN Z    -0.941016     -3.322948  KCAL/ANGSTROM
      4          2  N    CARTESIAN X    -1.422936      2.597183  KCAL/ANGSTROM
      5          2  N    CARTESIAN Y    -0.364115      2.634232  KCAL/ANGSTROM
      6          2  N    CARTESIAN Z    -0.241140      0.169435  KCAL/ANGSTROM
      7          3  C    CARTESIAN X    -1.747751     -3.650154  KCAL/ANGSTROM
      8          3  C    CARTESIAN Y     0.409332      0.164623  KCAL/ANGSTROM
      9          3  C    CARTESIAN Z     0.958980      1.681082  KCAL/ANGSTROM
     10          4  C    CARTESIAN X    -0.352276     -1.675042  KCAL/ANGSTROM
     11          4  C    CARTESIAN Y     1.099020      0.739860  KCAL/ANGSTROM
     12          4  C    CARTESIAN Z     0.851095     -1.528278  KCAL/ANGSTROM
     13          5  C    CARTESIAN X    -0.092833      1.001886  KCAL/ANGSTROM
     14          5  C    CARTESIAN Y     0.250411      2.015452  KCAL/ANGSTROM
     15          5  C    CARTESIAN Z    -0.441242     -1.126937  KCAL/ANGSTROM
     16          6  C    CARTESIAN X     1.101173      4.050605  KCAL/ANGSTROM
     17          6  C    CARTESIAN Y    -0.746541     -5.830033  KCAL/ANGSTROM
     18          6  C    CARTESIAN Z    -0.458744      0.889189  KCAL/ANGSTROM
     19          7  N    CARTESIAN X     2.258841     -0.296789  KCAL/ANGSTROM
     20          7  N    CARTESIAN Y     0.036421     -3.047700  KCAL/ANGSTROM
     21          7  N    CARTESIAN Z    -0.891272      3.394377  KCAL/ANGSTROM
     22          8  C    CARTESIAN X     1.257999     -0.745348  KCAL/ANGSTROM
     23          8  C    CARTESIAN Y    -1.391019     -2.074687  KCAL/ANGSTROM
     24          8  C    CARTESIAN Z     0.843068      3.610069  KCAL/ANGSTROM
     25          9  N    CARTESIAN X     1.400188     -1.201081  KCAL/ANGSTROM
     26          9  N    CARTESIAN Y    -1.906687      3.113601  KCAL/ANGSTROM
     27          9  N    CARTESIAN Z     1.865929     -5.064005  KCAL/ANGSTROM
     28         10  H    CARTESIAN X    -2.621921     -0.266814  KCAL/ANGSTROM
     29         10  H    CARTESIAN Y    -0.928819     -0.261691  KCAL/ANGSTROM
     30         10  H    CARTESIAN Z    -1.867332     -0.173885  KCAL/ANGSTROM
     31         11  H    CARTESIAN X    -2.969818     -0.448453  KCAL/ANGSTROM
     32         11  H    CARTESIAN Y    -1.795935     -1.176409  KCAL/ANGSTROM
     33         11  H    CARTESIAN Z    -0.334574      0.478417  KCAL/ANGSTROM
     34         12  H    CARTESIAN X    -1.493110      0.183635  KCAL/ANGSTROM
     35         12  H    CARTESIAN Y    -2.187003     -0.801567  KCAL/ANGSTROM
     36         12  H    CARTESIAN Z    -1.298390      0.807719  KCAL/ANGSTROM
     37         13  H    CARTESIAN X    -1.913789      1.008781  KCAL/ANGSTROM
     38         13  H    CARTESIAN Y    -0.212784     -0.413727  KCAL/ANGSTROM
     39         13  H    CARTESIAN Z     1.867332      1.042832  KCAL/ANGSTROM
     40         14  H    CARTESIAN X    -2.634707      0.128687  KCAL/ANGSTROM
     41         14  H    CARTESIAN Y     1.070670      0.459571  KCAL/ANGSTROM
     42         14  H    CARTESIAN Z     0.848182      0.245194  KCAL/ANGSTROM
     43         15  H    CARTESIAN X     0.328005      1.098958  KCAL/ANGSTROM
     44         15  H    CARTESIAN Y     0.909430     -0.524501  KCAL/ANGSTROM
     45         15  H    CARTESIAN Z     1.693217      1.421328  KCAL/ANGSTROM
     46         16  H    CARTESIAN X    -0.376681      0.356165  KCAL/ANGSTROM
     47         16  H    CARTESIAN Y     2.187003      0.971747  KCAL/ANGSTROM
     48         16  H    CARTESIAN Z     0.691263      0.487730  KCAL/ANGSTROM
     49         17  H    CARTESIAN X    -0.051587      1.834799  KCAL/ANGSTROM
     50         17  H    CARTESIAN Y     0.869513      0.281970  KCAL/ANGSTROM
     51         17  H    CARTESIAN Z    -1.381776      0.201678  KCAL/ANGSTROM
     52         18  H    CARTESIAN X     0.896877      1.423285  KCAL/ANGSTROM
     53         18  H    CARTESIAN Y    -1.542832      2.315659  KCAL/ANGSTROM
     54         18  H    CARTESIAN Z    -1.243689      1.377975  KCAL/ANGSTROM
     55         19  H    CARTESIAN X     2.677491     -0.423022  KCAL/ANGSTROM
     56         19  H    CARTESIAN Y     0.588356      0.521987  KCAL/ANGSTROM
     57         19  H    CARTESIAN Z    -0.155103     -2.340307  KCAL/ANGSTROM
     58         20  H    CARTESIAN X     2.969818     -0.984442  KCAL/ANGSTROM
     59         20  H    CARTESIAN Y    -0.521125      2.826722  KCAL/ANGSTROM
     60         20  H    CARTESIAN Z    -1.350843     -2.250668  KCAL/ANGSTROM




   ATOM   CHEMICAL          X               Y               Z
  NUMBER   SYMBOL      (ANGSTROMS)     (ANGSTROMS)     (ANGSTROMS)

     1       C         -2.14373689  *  -1.35270215  *  -0.94101569  *
     2       N         -1.42293615  *  -0.36411493  *  -0.24113955  *
     3       C         -1.74775090  *   0.40933168  *   0.95898021  *
     4       C         -0.35227630  *   1.09901977  *   0.85109453  *
     5       C         -0.09283277  *   0.25041143  *  -0.44124205  *
     6       C          1.10117350  *  -0.74654077  *  -0.45874386  *
     7       N          2.25884139  *   0.03642092  *  -0.89127163  *
     8       C          1.25799926  *  -1.39101852  *   0.84306765  *
     9       N          1.40018806  *  -1.90668678  *   1.86592909  *
    10       H         -2.62192145  *  -0.92881937  *  -1.86733184  *
    11       H         -2.96981805  *  -1.79593484  *  -0.33457377  *
    12       H         -1.49311014  *  -2.18700274  *  -1.29839027  *
    13       H         -1.91378931  *  -0.21278377  *   1.86733184  *
    14       H         -2.63470666  *   1.07067034  *   0.84818221  *
    15       H          0.32800515  *   0.90942989  *   1.69321715  *
    16       H         -0.37668147  *   2.18700274  *   0.69126309  *
    17       H         -0.05158698  *   0.86951306  *  -1.38177609  *
    18       H          0.89687715  *  -1.54283239  *  -1.24368853  *
    19       H          2.67749087  *   0.58835635  *  -0.15510267  *
    20       H          2.96981805  *  -0.52112489  *  -1.35084328  *

                             CARTESIAN COORDINATES

   1    C       -2.143736886    -1.352702150    -0.941015690
   2    N       -1.422936148    -0.364114928    -0.241139553
   3    C       -1.747750904     0.409331680     0.958980213
   4    C       -0.352276295     1.099019767     0.851094528
   5    C       -0.092832767     0.250411431    -0.441242051
   6    C        1.101173496    -0.746540766    -0.458743859
   7    N        2.258841389     0.036420919    -0.891271633
   8    C        1.257999257    -1.391018517     0.843067648
   9    N        1.400188064    -1.906686784     1.865929092
  10    H       -2.621921453    -0.928819372    -1.867331836
  11    H       -2.969818046    -1.795934836    -0.334573774
  12    H       -1.493110136    -2.187002737    -1.298390270
  13    H       -1.913789313    -0.212783769     1.867331836
  14    H       -2.634706661     1.070670345     0.848182212
  15    H        0.328005150     0.909429890     1.693217154
  16    H       -0.376681474     2.187002737     0.691263090
  17    H       -0.051586977     0.869513058    -1.381776088
  18    H        0.896877150    -1.542832394    -1.243688529
  19    H        2.677490866     0.588356350    -0.155102672
  20    H        2.969818046    -0.521124890    -1.350843281


           Empirical Formula: C6 H11 N3  =    20 atoms



      MOLECULAR POINT GROUP   :   C1  


          ALPHA EIGENVALUES  
 -38.89102 -36.50493 -35.83570 -29.36992 -27.11532 -24.36526 -23.77692 -20.72772
 -19.23530 -18.94278 -18.72121 -18.00335 -16.57695 -15.86289 -15.71418 -15.03617
 -14.67861 -14.25279 -14.06000 -13.84346 -13.67829 -13.42334 -12.87188 -11.61559
 -10.69811  -0.37597   0.23571   0.37462   1.70980   1.97630   2.05289   2.18958
   2.33607   2.65016   3.84222   4.14822   4.24785   4.35726   4.44504   4.55303
   4.93255   4.93707   5.04027   5.31919   5.56153   5.61937   6.52898


           BETA EIGENVALUES 
 -37.39401 -36.45192 -35.82936 -29.07072 -27.02670 -24.04932 -23.61523 -20.57849
 -19.04587 -18.75852 -18.00859 -17.76449 -16.45176 -15.71348 -15.24330 -14.84605
 -14.65982 -14.19531 -13.97631 -13.75542 -13.57530 -13.05519 -12.83810 -10.71998
  -2.09854   0.13605   0.29252   0.39440   1.75158   2.06199   2.16625   2.38562
   2.49190   2.71408   4.16357   4.22986   4.31812   4.50530   4.53535   4.63203
   4.94135   5.00236   5.07012   5.38502   5.56602   5.62560   6.52975


              NET ATOMIC CHARGES AND DIPOLE CONTRIBUTIONS

  ATOM NO.   TYPE          CHARGE      No. of ELECS.   s-Pop       p-Pop       
    1          C          -0.327159        4.3272     1.06873     3.25843
    2          N          -0.009319        5.0093     1.56166     3.44766
    3          C          -0.138398        4.1384     1.10133     3.03706
    4          C          -0.304760        4.3048     1.08726     3.21750
    5          C          -0.006658        4.0067     1.11719     2.88947
    6          C           0.048651        3.9513     1.05920     2.89215
    7          N          -0.652571        5.6526     1.62919     4.02338
    8          C           0.116786        3.8832     1.13945     2.74377
    9          N          -0.299452        5.2995     1.82730     3.47216
   10          H           0.243256        0.7567     0.75674
   11          H           0.220843        0.7792     0.77916
   12          H           0.220132        0.7799     0.77987
   13          H           0.221186        0.7788     0.77881
   14          H           0.221612        0.7784     0.77839
   15          H           0.187215        0.8128     0.81279
   16          H           0.197803        0.8022     0.80220
   17          H           0.236080        0.7639     0.76392
   18          H           0.224122        0.7759     0.77588
   19          H           0.295550        0.7045     0.70445
   20          H           0.305083        0.6949     0.69492
 DIPOLE           X         Y         Z       TOTAL
 POINT-CHG.    -6.741     1.889    -4.524     8.335
 HYBRID         0.417    -0.461     0.247     0.669
 SUM           -6.324     1.428    -4.277     7.767


          ATOMIC ORBITAL ELECTRON POPULATIONS

     Atom    s        px        py        pz   
    1  C   1.06873   1.11980   1.01417   1.12446
    2  N   1.56166   1.15303   1.14239   1.15224
    3  C   1.10133   1.08474   1.02060   0.93173
    4  C   1.08726   1.02334   1.14133   1.05283
    5  C   1.11719   0.80511   0.96943   1.11493
    6  C   1.05920   0.92766   0.99256   0.97193
    7  N   1.62919   1.21992   1.36629   1.43716
    8  C   1.13945   0.90743   0.90461   0.93172
    9  N   1.82730   1.10857   1.14678   1.21681
   10  H   0.75674
   11  H   0.77916
   12  H   0.77987
   13  H   0.77881
   14  H   0.77839
   15  H   0.81279
   16  H   0.80220
   17  H   0.76392
   18  H   0.77588
   19  H   0.70445
   20  H   0.69492


                    (SZ)    =    0.500000
                    (S**2)  =    0.761137


          ATOMIC ORBITAL SPIN POPULATIONS

    Atom   Total    s     px     py     pz   
         Atomic
    1  C -0.0357 -0.006 -0.010 -0.009 -0.010
    2  N  0.9428  0.044  0.176  0.420  0.303
    3  C -0.0566 -0.007 -0.005 -0.016 -0.029
    4  C  0.0077  0.001  0.003  0.001  0.003
    5  C -0.0730 -0.007 -0.040 -0.022 -0.004
    6  C  0.0353  0.006  0.016  0.012  0.001
    7  N -0.0012 -0.000 -0.001 -0.000 -0.000
    8  C -0.0026 -0.000 -0.001 -0.001 -0.000
    9  N  0.0036  0.000  0.001  0.001  0.001
   10  H  0.0570  0.057
   11  H  0.0080  0.008
   12  H  0.0248  0.025
   13  H  0.0328  0.033
   14  H  0.0316  0.032
   15  H -0.0008 -0.001
   16  H -0.0012 -0.001
   17  H  0.0281  0.028
   18  H -0.0012 -0.001
   19  H -0.0001 -0.000
   20  H  0.0006  0.001

 **********************
 *                    *
 * JOB ENDED NORMALLY *
 *                    *
 **********************



 TOTAL JOB TIME:             1.41 SECONDS

 == MOPAC DONE ==
