 *******************************************************************************
 **                                                                           **
 **                              MOPAC v23.2                                  **
 **                                                                           **
 *******************************************************************************
 **          Digital Object Identifier (DOI): 10.5281/zenodo.6511958          **
 **    Visit the DOI location for information on how to cite this program.    **
 *******************************************************************************

                              PM7 CALCULATION RESULTS

 *******************************************************************************
 *  CALCULATION DONE: (MAX THREADS = 40)             Fri Sep 19 21:57:23 2025  *
 *  PM7        - The PM7 Hamiltonian to be used
 *
 *
 *
 *                 CHARGE ON SYSTEM = +1
 *
 *
 *
 *  1SCF       - DO 1 SCF AND THEN STOP 
 *  T=         - A TIME OF 172800.0 SECONDS REQUESTED
 *  DUMP=N     - RESTART FILE WRITTEN EVERY 7200.0 SECONDS REQUESTED
 *  RELSCF     - DEFAULT SCF CRITERION MULTIPLIED BY 0.0001
 *              (DEFAULT SCF CRITERION = 0.00010)
 *  GRADIENTS  - ALL GRADIENTS TO BE PRINTED
 *  DISP       - PRINT DISPERSION AND HYDROGEN BOND ENERGIES
 *******************************************************************************
PM7 1SCF GRADIENTS DISP RELSCF=0.0001 CHARGE=1
 Title: ASE calculation

   ATOM   CHEMICAL          X               Y               Z
  NUMBER   SYMBOL      (ANGSTROMS)     (ANGSTROMS)     (ANGSTROMS)

     1       C          2.55631318  *  -0.93310823  *  -1.17857334  *
     2       C          2.25332537  *  -0.10141172  *   0.06454671  *
     3       C          0.80862061  *   0.32475731  *   0.02023941  *
     4       N          0.12304765  *   0.62626946  *   1.24193607  *
     5       C         -0.36265640  *  -0.53382224  *   0.58887081  *
     6       C         -1.71637199  *  -0.47314629  *  -0.18212222  *
     7       C         -1.76735079  *  -1.63815249  *  -1.15455504  *
     8       O         -1.68864515  *   0.69021313  *  -0.96360507  *
     9       C         -2.48439096  *   1.76593318  *  -0.49333503  *
    10       H          1.90606380  *  -1.81269676  *  -1.26449718  *
    11       H          2.45505189  *  -0.35313349  *  -2.10673155  *
    12       H          3.59367577  *  -1.30812336  *  -1.15737125  *
    13       H          2.92309049  *   0.79061154  *   0.09638129  *
    14       H          2.49565092  *  -0.68447661  *   0.97820967  *
    15       H          0.55350724  *   0.96184361  *  -0.87152281  *
    16       H          0.18143288  *   1.08991089  *   2.11111614  *
    17       H         -0.21511506  *  -1.51780585  *   1.07674216  *
    18       H         -2.55877801  *  -0.48662290  *   0.54726750  *
    19       H         -0.95723955  *  -1.59931826  *  -1.89746523  *
    20       H         -1.72958692  *  -2.61453555  *  -0.65567283  *
    21       H         -2.70553817  *  -1.60980327  *  -1.73929020  *
    22       H         -2.04683348  *   2.21579672  *   0.40064635  *
    23       H         -3.52303702  *   1.45991437  *  -0.32159232  *
    24       H         -2.45010837  *   2.47323545  *  -1.33963808  *



          CARTESIAN COORDINATES 

    NO.       ATOM           X           Y           Z

     1         C          2.5563     -0.9331     -1.1786
     2         C          2.2533     -0.1014      0.0645
     3         C          0.8086      0.3248      0.0202
     4         N          0.1230      0.6263      1.2419
     5         C         -0.3627     -0.5338      0.5889
     6         C         -1.7164     -0.4731     -0.1821
     7         C         -1.7674     -1.6382     -1.1546
     8         O         -1.6886      0.6902     -0.9636
     9         C         -2.4844      1.7659     -0.4933
    10         H          1.9061     -1.8127     -1.2645
    11         H          2.4551     -0.3531     -2.1067
    12         H          3.5937     -1.3081     -1.1574
    13         H          2.9231      0.7906      0.0964
    14         H          2.4957     -0.6845      0.9782
    15         H          0.5535      0.9618     -0.8715
    16         H          0.1814      1.0899      2.1111
    17         H         -0.2151     -1.5178      1.0767
    18         H         -2.5588     -0.4866      0.5473
    19         H         -0.9572     -1.5993     -1.8975
    20         H         -1.7296     -2.6145     -0.6557
    21         H         -2.7055     -1.6098     -1.7393
    22         H         -2.0468      2.2158      0.4006
    23         H         -3.5230      1.4599     -0.3216
    24         H         -2.4501      2.4732     -1.3396

 General Reference for PM7:
 "Optimization of Parameters for Semiempirical Methods VI: More Modifications to the 
 NDDO Approximations and Re-optimization of Parameters", J. J. P. Stewart, J. Mol. Mod., 1:32, 19 (2013)
 https://link.springer.com/article/10.1007/s00894-012-1667-x

           Empirical Formula: C7 H15 N O  =    24 atoms



      MOLECULAR POINT GROUP   :   C1  


          UHF CALCULATION, NO. OF ALPHA ELECTRONS =   27
                           NO. OF BETA  ELECTRONS =   26
  SCF CRITERION =    0.1000E-07

 -------------------------------------------------------------------------------
 PM7 1SCF GRADIENTS DISP RELSCF=0.0001 CHARGE=1
 Title: ASE calculation



     1SCF WAS SPECIFIED, SO BFGS WAS NOT USED                 
     SCF FIELD WAS ACHIEVED                                   


                              PM7 CALCULATION
                                                       MOPAC v23.2 Linux
                                                       Fri Sep 19 21:57:24 2025




          FINAL HEAT OF FORMATION =        163.91755 KCAL/MOL =     685.83105 KJ/MOL

          TOTAL ENERGY            =     -35386.81109 KCAL/MOL = ELECTRONIC ENERGY + CORE-CORE REPULSION
          ENERGY OF ATOMS         =      35553.47302 KCAL/MOL
                              SUM =        166.66193 KCAL/MOL
          DISPERSION ENERGY       =         -2.74438 KCAL/MOL
                              SUM =        163.91755 KCAL/MOL = FINAL HEAT OF FORMATION



          TOTAL ENERGY            =      -1534.51736 EV
          ELECTRONIC ENERGY       =      -8220.73087 EV 
          CORE-CORE REPULSION     =       6686.21351 EV
          COSMO AREA              =        182.91 SQUARE ANGSTROMS
          COSMO VOLUME            =        186.57 CUBIC ANGSTROMS

          GRADIENT NORM           =          1.07199          =       0.21882 PER ATOM
          IONIZATION POTENTIAL    =         14.469971 EV
          ALPHA SOMO LUMO (EV)    =        -14.470 -4.252
          BETA  SOMO LUMO (EV)    =        -14.472 -6.926
          NO. OF ALPHA ELECTRONS  =         27
          NO. OF BETA  ELECTRONS  =         26
          MOLECULAR WEIGHT        =        129.2016         POINT GROUP:  C1  

          MOLECULAR DIMENSIONS (Angstroms)

            Atom       Atom       Distance
            H    23    H    12     7.68168
            H    21    H    16     5.36683
            H    24    H    17     4.02538


          SCF CALCULATIONS        =          1

          WALL-CLOCK TIME         =      0.859 SECONDS
          COMPUTATION TIME        =      0.869 SECONDS

          LARGEST ATOMIC GRADIENTS

          Atom     Label                     Cartesian Gradients           Cartesian Coordinates       |Gradient|
                                           X          Y          Z        X          Y          Z

            22       H                  -0.011      0.311     -0.268   -2.04683    2.21580    0.40065      0.411
             4       N                  -0.183     -0.347     -0.005    0.12305    0.62627    1.24194      0.392
             5       C                   0.016     -0.276     -0.261   -0.36266   -0.53382    0.58887      0.380
             6       C                   0.285     -0.087      0.168   -1.71637   -0.47315   -0.18212      0.342
             8       O                   0.133      0.082      0.222   -1.68865    0.69021   -0.96361      0.271
            23       H                   0.032      0.209      0.099   -3.52304    1.45991   -0.32159      0.234
            24       H                  -0.153     -0.150      0.054   -2.45011    2.47324   -1.33964      0.221
            13       H                  -0.034      0.173      0.128    2.92309    0.79061    0.09638      0.218
            18       H                   0.094     -0.029     -0.192   -2.55878   -0.48662    0.54727      0.216
             9       C                   0.051     -0.208     -0.020   -2.48439    1.76593   -0.49334      0.215



       FINAL  POINT  AND  DERIVATIVES

   PARAMETER     ATOM    TYPE            VALUE        GRADIENT
      1          1  C    CARTESIAN X     2.556313      0.033491  KCAL/ANGSTROM
      2          1  C    CARTESIAN Y    -0.933108     -0.004332  KCAL/ANGSTROM
      3          1  C    CARTESIAN Z    -1.178573      0.013905  KCAL/ANGSTROM
      4          2  C    CARTESIAN X     2.253325     -0.039006  KCAL/ANGSTROM
      5          2  C    CARTESIAN Y    -0.101412      0.096704  KCAL/ANGSTROM
      6          2  C    CARTESIAN Z     0.064547      0.030464  KCAL/ANGSTROM
      7          3  C    CARTESIAN X     0.808621     -0.064539  KCAL/ANGSTROM
      8          3  C    CARTESIAN Y     0.324757     -0.035521  KCAL/ANGSTROM
      9          3  C    CARTESIAN Z     0.020239     -0.034280  KCAL/ANGSTROM
     10          4  N    CARTESIAN X     0.123048     -0.183010  KCAL/ANGSTROM
     11          4  N    CARTESIAN Y     0.626269     -0.346957  KCAL/ANGSTROM
     12          4  N    CARTESIAN Z     1.241936     -0.005324  KCAL/ANGSTROM
     13          5  C    CARTESIAN X    -0.362656      0.016279  KCAL/ANGSTROM
     14          5  C    CARTESIAN Y    -0.533822     -0.276260  KCAL/ANGSTROM
     15          5  C    CARTESIAN Z     0.588871     -0.260517  KCAL/ANGSTROM
     16          6  C    CARTESIAN X    -1.716372      0.285051  KCAL/ANGSTROM
     17          6  C    CARTESIAN Y    -0.473146     -0.086851  KCAL/ANGSTROM
     18          6  C    CARTESIAN Z    -0.182122      0.167918  KCAL/ANGSTROM
     19          7  C    CARTESIAN X    -1.767351     -0.061585  KCAL/ANGSTROM
     20          7  C    CARTESIAN Y    -1.638152     -0.032901  KCAL/ANGSTROM
     21          7  C    CARTESIAN Z    -1.154555      0.080739  KCAL/ANGSTROM
     22          8  O    CARTESIAN X    -1.688645      0.132508  KCAL/ANGSTROM
     23          8  O    CARTESIAN Y     0.690213      0.082237  KCAL/ANGSTROM
     24          8  O    CARTESIAN Z    -0.963605      0.222108  KCAL/ANGSTROM
     25          9  C    CARTESIAN X    -2.484391      0.051413  KCAL/ANGSTROM
     26          9  C    CARTESIAN Y     1.765933     -0.208322  KCAL/ANGSTROM
     27          9  C    CARTESIAN Z    -0.493335     -0.019697  KCAL/ANGSTROM
     28         10  H    CARTESIAN X     1.906064     -0.157436  KCAL/ANGSTROM
     29         10  H    CARTESIAN Y    -1.812697     -0.004269  KCAL/ANGSTROM
     30         10  H    CARTESIAN Z    -1.264497     -0.033262  KCAL/ANGSTROM
     31         11  H    CARTESIAN X     2.455052     -0.009280  KCAL/ANGSTROM
     32         11  H    CARTESIAN Y    -0.353133      0.011205  KCAL/ANGSTROM
     33         11  H    CARTESIAN Z    -2.106732     -0.085709  KCAL/ANGSTROM
     34         12  H    CARTESIAN X     3.593676      0.086300  KCAL/ANGSTROM
     35         12  H    CARTESIAN Y    -1.308123     -0.105404  KCAL/ANGSTROM
     36         12  H    CARTESIAN Z    -1.157371      0.041704  KCAL/ANGSTROM
     37         13  H    CARTESIAN X     2.923090     -0.033790  KCAL/ANGSTROM
     38         13  H    CARTESIAN Y     0.790612      0.172739  KCAL/ANGSTROM
     39         13  H    CARTESIAN Z     0.096381      0.127910  KCAL/ANGSTROM
     40         14  H    CARTESIAN X     2.495651     -0.007934  KCAL/ANGSTROM
     41         14  H    CARTESIAN Y    -0.684477      0.139358  KCAL/ANGSTROM
     42         14  H    CARTESIAN Z     0.978210      0.108101  KCAL/ANGSTROM
     43         15  H    CARTESIAN X     0.553507      0.009435  KCAL/ANGSTROM
     44         15  H    CARTESIAN Y     0.961844      0.043971  KCAL/ANGSTROM
     45         15  H    CARTESIAN Z    -0.871523     -0.069556  KCAL/ANGSTROM
     46         16  H    CARTESIAN X     0.181433      0.163205  KCAL/ANGSTROM
     47         16  H    CARTESIAN Y     1.089911     -0.123144  KCAL/ANGSTROM
     48         16  H    CARTESIAN Z     2.111116     -0.059329  KCAL/ANGSTROM
     49         17  H    CARTESIAN X    -0.215115     -0.135227  KCAL/ANGSTROM
     50         17  H    CARTESIAN Y    -1.517806      0.123172  KCAL/ANGSTROM
     51         17  H    CARTESIAN Z     1.076742     -0.010065  KCAL/ANGSTROM
     52         18  H    CARTESIAN X    -2.558778      0.094486  KCAL/ANGSTROM
     53         18  H    CARTESIAN Y    -0.486623     -0.029040  KCAL/ANGSTROM
     54         18  H    CARTESIAN Z     0.547267     -0.191690  KCAL/ANGSTROM
     55         19  H    CARTESIAN X    -0.957240     -0.105162  KCAL/ANGSTROM
     56         19  H    CARTESIAN Y    -1.599318      0.125720  KCAL/ANGSTROM
     57         19  H    CARTESIAN Z    -1.897465      0.032788  KCAL/ANGSTROM
     58         20  H    CARTESIAN X    -1.729587      0.099132  KCAL/ANGSTROM
     59         20  H    CARTESIAN Y    -2.614536      0.042836  KCAL/ANGSTROM
     60         20  H    CARTESIAN Z    -0.655673      0.044612  KCAL/ANGSTROM
     61         21  H    CARTESIAN X    -2.705538     -0.042793  KCAL/ANGSTROM
     62         21  H    CARTESIAN Y    -1.609803      0.044862  KCAL/ANGSTROM
     63         21  H    CARTESIAN Z    -1.739290      0.013609  KCAL/ANGSTROM
     64         22  H    CARTESIAN X    -2.046833     -0.010837  KCAL/ANGSTROM
     65         22  H    CARTESIAN Y     2.215797      0.311488  KCAL/ANGSTROM
     66         22  H    CARTESIAN Z     0.400646     -0.267866  KCAL/ANGSTROM
     67         23  H    CARTESIAN X    -3.523037      0.032159  KCAL/ANGSTROM
     68         23  H    CARTESIAN Y     1.459914      0.209120  KCAL/ANGSTROM
     69         23  H    CARTESIAN Z    -0.321592      0.099298  KCAL/ANGSTROM
     70         24  H    CARTESIAN X    -2.450108     -0.152860  KCAL/ANGSTROM
     71         24  H    CARTESIAN Y     2.473235     -0.150414  KCAL/ANGSTROM
     72         24  H    CARTESIAN Z    -1.339638      0.054139  KCAL/ANGSTROM




   ATOM   CHEMICAL          X               Y               Z
  NUMBER   SYMBOL      (ANGSTROMS)     (ANGSTROMS)     (ANGSTROMS)

     1       C          2.55631318  *  -0.93310823  *  -1.17857334  *
     2       C          2.25332537  *  -0.10141172  *   0.06454671  *
     3       C          0.80862061  *   0.32475731  *   0.02023941  *
     4       N          0.12304765  *   0.62626946  *   1.24193607  *
     5       C         -0.36265640  *  -0.53382224  *   0.58887081  *
     6       C         -1.71637199  *  -0.47314629  *  -0.18212222  *
     7       C         -1.76735079  *  -1.63815249  *  -1.15455504  *
     8       O         -1.68864515  *   0.69021313  *  -0.96360507  *
     9       C         -2.48439096  *   1.76593318  *  -0.49333503  *
    10       H          1.90606380  *  -1.81269676  *  -1.26449718  *
    11       H          2.45505189  *  -0.35313349  *  -2.10673155  *
    12       H          3.59367577  *  -1.30812336  *  -1.15737125  *
    13       H          2.92309049  *   0.79061154  *   0.09638129  *
    14       H          2.49565092  *  -0.68447661  *   0.97820967  *
    15       H          0.55350724  *   0.96184361  *  -0.87152281  *
    16       H          0.18143288  *   1.08991089  *   2.11111614  *
    17       H         -0.21511506  *  -1.51780585  *   1.07674216  *
    18       H         -2.55877801  *  -0.48662290  *   0.54726750  *
    19       H         -0.95723955  *  -1.59931826  *  -1.89746523  *
    20       H         -1.72958692  *  -2.61453555  *  -0.65567283  *
    21       H         -2.70553817  *  -1.60980327  *  -1.73929020  *
    22       H         -2.04683348  *   2.21579672  *   0.40064635  *
    23       H         -3.52303702  *   1.45991437  *  -0.32159232  *
    24       H         -2.45010837  *   2.47323545  *  -1.33963808  *

                             CARTESIAN COORDINATES

   1    C        2.556313177    -0.933108226    -1.178573335
   2    C        2.253325368    -0.101411723     0.064546707
   3    C        0.808620612     0.324757312     0.020239406
   4    N        0.123047646     0.626269462     1.241936074
   5    C       -0.362656403    -0.533822243     0.588870815
   6    C       -1.716371988    -0.473146288    -0.182122224
   7    C       -1.767350790    -1.638152495    -1.154555045
   8    O       -1.688645151     0.690213133    -0.963605071
   9    C       -2.484390962     1.765933183    -0.493335026
  10    H        1.906063795    -1.812696759    -1.264497183
  11    H        2.455051885    -0.353133486    -2.106731553
  12    H        3.593675767    -1.308123362    -1.157371253
  13    H        2.923090493     0.790611544     0.096381286
  14    H        2.495650919    -0.684476612     0.978209666
  15    H        0.553507239     0.961843614    -0.871522808
  16    H        0.181432885     1.089910886     2.111116139
  17    H       -0.215115056    -1.517805850     1.076742155
  18    H       -2.558778010    -0.486622897     0.547267497
  19    H       -0.957239551    -1.599318260    -1.897465229
  20    H       -1.729586924    -2.614535554    -0.655672834
  21    H       -2.705538168    -1.609803271    -1.739290203
  22    H       -2.046833484     2.215796725     0.400646351
  23    H       -3.523037016     1.459914374    -0.321592316
  24    H       -2.450108371     2.473235447    -1.339638082


           Empirical Formula: C7 H15 N O  =    24 atoms



      MOLECULAR POINT GROUP   :   C1  


          ALPHA EIGENVALUES  
 -44.05631 -34.40769 -32.61413 -31.66546 -29.51636 -28.01178 -27.14368 -25.39486
 -24.93480 -22.93951 -21.92313 -21.19693 -20.71137 -19.63980 -19.32009 -18.72033
 -18.19001 -17.82540 -17.58501 -17.41558 -17.02373 -16.93034 -16.29785 -16.17448
 -16.07322 -15.71508 -14.46997  -4.25244  -3.35544  -2.24986  -1.92590  -1.56362
  -0.97285  -0.27798   0.04244   0.19574   0.44715   0.49109   0.60524   1.01230
   1.12835   1.72782   1.90114   1.90823   1.97690   2.01048   2.16044   2.18752
   2.56139   3.16141   3.29360


           BETA EIGENVALUES 
 -42.49088 -34.27004 -32.35422 -31.58378 -29.11075 -27.97668 -27.04710 -25.32259
 -24.59276 -22.75278 -21.34950 -21.07816 -20.36961 -19.58570 -19.17826 -18.49494
 -18.08368 -17.70342 -17.41107 -16.99840 -16.91368 -16.53131 -16.14705 -16.06563
 -15.73910 -14.47223  -6.92614  -3.57891  -3.20052  -2.12149  -1.81008  -1.41037
  -0.94489  -0.24914   0.12640   0.23819   0.54927   0.62261   0.87989   1.02728
   1.13687   1.73206   1.90549   1.91105   1.97945   2.01355   2.16136   2.18931
   2.56312   3.16261   3.29432


              NET ATOMIC CHARGES AND DIPOLE CONTRIBUTIONS

  ATOM NO.   TYPE          CHARGE      No. of ELECS.   s-Pop       p-Pop       
    1          C          -0.428937        4.4289     1.05112     3.37782
    2          C          -0.279708        4.2797     1.06067     3.21904
    3          C           0.015271        3.9847     1.11081     2.87392
    4          N          -0.120826        5.1208     1.55208     3.56875
    5          C          -0.119970        4.1200     1.12364     2.99633
    6          C           0.153412        3.8466     1.09782     2.74876
    7          C          -0.477808        4.4778     1.05793     3.41988
    8          O          -0.376254        6.3763     1.87578     4.50047
    9          C          -0.201424        4.2014     1.08896     3.11246
   10          H           0.156583        0.8434     0.84342
   11          H           0.166599        0.8334     0.83340
   12          H           0.183202        0.8168     0.81680
   13          H           0.185663        0.8143     0.81434
   14          H           0.167446        0.8326     0.83255
   15          H           0.243121        0.7569     0.75688
   16          H           0.358709        0.6413     0.64129
   17          H           0.221521        0.7785     0.77848
   18          H           0.157063        0.8429     0.84294
   19          H           0.176991        0.8230     0.82301
   20          H           0.173451        0.8265     0.82655
   21          H           0.196600        0.8034     0.80340
   22          H           0.118911        0.8811     0.88109
   23          H           0.152408        0.8476     0.84759
   24          H           0.177975        0.8220     0.82202
 DIPOLE           X         Y         Z       TOTAL
 POINT-CHG.     0.808     0.334     3.658     3.761
 HYBRID         0.172     0.580     0.995     1.164
 SUM            0.980     0.913     4.654     4.842


          ATOMIC ORBITAL ELECTRON POPULATIONS

     Atom    s        px        py        pz   
    1  C   1.05112   1.19963   1.12836   1.04982
    2  C   1.06067   0.94768   1.14991   1.12145
    3  C   1.11081   0.99104   0.99238   0.89050
    4  N   1.55208   1.22202   1.16966   1.17707
    5  C   1.12364   1.06108   0.93604   0.99920
    6  C   1.09782   0.91899   0.87748   0.95230
    7  C   1.05793   1.22931   1.06749   1.12308
    8  O   1.87578   1.69531   1.29063   1.51453
    9  C   1.08896   1.05073   0.92661   1.13513
   10  H   0.84342
   11  H   0.83340
   12  H   0.81680
   13  H   0.81434
   14  H   0.83255
   15  H   0.75688
   16  H   0.64129
   17  H   0.77848
   18  H   0.84294
   19  H   0.82301
   20  H   0.82655
   21  H   0.80340
   22  H   0.88109
   23  H   0.84759
   24  H   0.82202


                    (SZ)    =    0.500000
                    (S**2)  =    0.762871


          ATOMIC ORBITAL SPIN POPULATIONS

    Atom   Total    s     px     py     pz   
         Atomic
    1  C -0.0009 -0.000  0.001 -0.001 -0.001
    2  C  0.0318  0.003  0.022  0.006  0.001
    3  C -0.0466 -0.005 -0.005  0.006 -0.043
    4  N  0.9515  0.046  0.391  0.356  0.158
    5  C -0.0460 -0.006  0.019 -0.017 -0.042
    6  C  0.0454  0.002  0.036  0.000  0.007
    7  C -0.0010 -0.001  0.000 -0.000 -0.001
    8  O  0.0307  0.001  0.015  0.002  0.013
    9  C  0.0002 -0.000  0.001 -0.001  0.000
   10  H  0.0001  0.000
   11  H  0.0001  0.000
   12  H  0.0013  0.001
   13  H -0.0011 -0.001
   14  H -0.0005 -0.001
   15  H  0.0293  0.029
   16  H -0.0296 -0.030
   17  H  0.0294  0.029
   18  H  0.0023  0.002
   19  H  0.0004  0.000
   20  H -0.0000 -0.000
   21  H  0.0013  0.001
   22  H  0.0008  0.001
   23  H  0.0007  0.001
   24  H  0.0005  0.000

 **********************
 *                    *
 * JOB ENDED NORMALLY *
 *                    *
 **********************



 TOTAL JOB TIME:             1.21 SECONDS

 == MOPAC DONE ==
