 *******************************************************************************
 **                                                                           **
 **                              MOPAC v23.2                                  **
 **                                                                           **
 *******************************************************************************
 **          Digital Object Identifier (DOI): 10.5281/zenodo.6511958          **
 **    Visit the DOI location for information on how to cite this program.    **
 *******************************************************************************

                              PM7 CALCULATION RESULTS

 *******************************************************************************
 *  CALCULATION DONE: (MAX THREADS = 40)             Fri Sep 19 21:27:48 2025  *
 *  PM7        - The PM7 Hamiltonian to be used
 *  1SCF       - DO 1 SCF AND THEN STOP 
 *  T=         - A TIME OF 172800.0 SECONDS REQUESTED
 *  DUMP=N     - RESTART FILE WRITTEN EVERY 7200.0 SECONDS REQUESTED
 *  RELSCF     - DEFAULT SCF CRITERION MULTIPLIED BY 0.0001
 *              (DEFAULT SCF CRITERION = 0.00010)
 *  GRADIENTS  - ALL GRADIENTS TO BE PRINTED
 *  DISP       - PRINT DISPERSION AND HYDROGEN BOND ENERGIES
 *******************************************************************************
PM7 1SCF GRADIENTS DISP RELSCF=0.0001
 Title: ASE calculation

   ATOM   CHEMICAL          X               Y               Z
  NUMBER   SYMBOL      (ANGSTROMS)     (ANGSTROMS)     (ANGSTROMS)

     1       C         -2.30657706  *  -1.10494777  *  -1.27085939  *
     2       N         -1.34354308  *  -0.84914530  *  -0.19767033  *
     3       C         -1.78443886  *   0.17057120  *   0.82620599  *
     4       C         -0.54150164  *   1.04810469  *   0.51529625  *
     5       C         -0.16589408  *   0.01210668  *  -0.58527313  *
     6       C          1.14497214  *  -0.78539473  *  -0.38066626  *
     7       N          2.27243130  *   0.06243857  *  -0.83938006  *
     8       C          1.35742928  *  -1.11589856  *   1.02633966  *
     9       N          1.52342584  *  -1.38871095  *   2.13699852  *
    10       H         -2.62927380  *  -0.21590170  *  -1.83358961  *
    11       H         -3.20319543  *  -1.58076255  *  -0.83364495  *
    12       H         -1.86689136  *  -1.82787336  *  -1.98034507  *
    13       H         -1.79653416  *  -0.29274334  *   1.82519568  *
    14       H         -2.74935484  *   0.65273648  *   0.64059772  *
    15       H          0.18042223  *   1.14449479  *   1.33170367  *
    16       H         -0.75657448  *   2.04951974  *   0.14077474  *
    17       H         -0.19846489  *   0.42856791  *  -1.60892558  *
    18       H          1.05952161  *  -1.75216208  *  -0.96326932  *
    19       H          3.16861195  *  -0.34693968  *  -0.62798803  *
    20       H          2.21675896  *   0.26678803  *  -1.82354457  *



          CARTESIAN COORDINATES 

    NO.       ATOM           X           Y           Z

     1         C         -2.3066     -1.1049     -1.2709
     2         N         -1.3435     -0.8491     -0.1977
     3         C         -1.7844      0.1706      0.8262
     4         C         -0.5415      1.0481      0.5153
     5         C         -0.1659      0.0121     -0.5853
     6         C          1.1450     -0.7854     -0.3807
     7         N          2.2724      0.0624     -0.8394
     8         C          1.3574     -1.1159      1.0263
     9         N          1.5234     -1.3887      2.1370
    10         H         -2.6293     -0.2159     -1.8336
    11         H         -3.2032     -1.5808     -0.8336
    12         H         -1.8669     -1.8279     -1.9803
    13         H         -1.7965     -0.2927      1.8252
    14         H         -2.7494      0.6527      0.6406
    15         H          0.1804      1.1445      1.3317
    16         H         -0.7566      2.0495      0.1408
    17         H         -0.1985      0.4286     -1.6089
    18         H          1.0595     -1.7522     -0.9633
    19         H          3.1686     -0.3469     -0.6280
    20         H          2.2168      0.2668     -1.8235

 General Reference for PM7:
 "Optimization of Parameters for Semiempirical Methods VI: More Modifications to the 
 NDDO Approximations and Re-optimization of Parameters", J. J. P. Stewart, J. Mol. Mod., 1:32, 19 (2013)
 https://link.springer.com/article/10.1007/s00894-012-1667-x

           Empirical Formula: C6 H11 N3  =    20 atoms



      MOLECULAR POINT GROUP   :   C1  


      RHF CALCULATION, NO. OF DOUBLY OCCUPIED LEVELS = 25

  SCF CRITERION =    0.1000E-07

 -------------------------------------------------------------------------------
 PM7 1SCF GRADIENTS DISP RELSCF=0.0001
 Title: ASE calculation



     1SCF WAS SPECIFIED, SO BFGS WAS NOT USED                 
     SCF FIELD WAS ACHIEVED                                   


                              PM7 CALCULATION
                                                       MOPAC v23.2 Linux
                                                       Fri Sep 19 21:27:49 2025




          FINAL HEAT OF FORMATION =         51.42914 KCAL/MOL =     215.17954 KJ/MOL

          TOTAL ENERGY            =     -33268.11007 KCAL/MOL = ELECTRONIC ENERGY + CORE-CORE REPULSION
          ENERGY OF ATOMS         =      33321.83911 KCAL/MOL
                              SUM =         53.72904 KCAL/MOL
          DISPERSION ENERGY       =         -2.29990 KCAL/MOL
                              SUM =         51.42914 KCAL/MOL = FINAL HEAT OF FORMATION



          TOTAL ENERGY            =      -1442.64179 EV
          ELECTRONIC ENERGY       =      -7299.01498 EV 
          CORE-CORE REPULSION     =       5856.37319 EV
          COSMO AREA              =        170.77 SQUARE ANGSTROMS
          COSMO VOLUME            =        172.29 CUBIC ANGSTROMS

          GRADIENT NORM           =          1.39824          =       0.31266 PER ATOM
          IONIZATION POTENTIAL    =          9.420060 EV
          HOMO LUMO ENERGIES (EV) =         -9.420  1.199
          NO. OF FILLED LEVELS    =         25
          MOLECULAR WEIGHT        =        125.1730         POINT GROUP:  C1  

          MOLECULAR DIMENSIONS (Angstroms)

            Atom       Atom       Distance
            H    19    H    11     6.49342
            H    10    N     9     4.30846
            H    18    H    16     4.15266


          SCF CALCULATIONS        =          1

          WALL-CLOCK TIME         =      0.711 SECONDS
          COMPUTATION TIME        =      0.832 SECONDS

          LARGEST ATOMIC GRADIENTS

          Atom     Label                     Cartesian Gradients           Cartesian Coordinates       |Gradient|
                                           X          Y          Z        X          Y          Z

            12       H                  -0.110     -0.333     -0.298   -1.86689   -1.82787   -1.98035      0.460
            16       H                  -0.055     -0.427     -0.075   -0.75657    2.04952    0.14077      0.437
            20       H                  -0.030      0.389     -0.186    2.21676    0.26679   -1.82354      0.432
             3       C                   0.029      0.252      0.308   -1.78444    0.17057    0.82621      0.399
             7       N                   0.017      0.360     -0.100    2.27243    0.06244   -0.83938      0.374
             2       N                  -0.128     -0.027      0.334   -1.34354   -0.84915   -0.19767      0.359
            19       H                  -0.223     -0.243      0.096    3.16861   -0.34694   -0.62799      0.344
            18       H                   0.303     -0.056      0.138    1.05952   -1.75216   -0.96327      0.338
             8       C                  -0.018     -0.279      0.165    1.35743   -1.11590    1.02634      0.325
            14       H                   0.215      0.176      0.063   -2.74935    0.65274    0.64060      0.285



       FINAL  POINT  AND  DERIVATIVES

   PARAMETER     ATOM    TYPE            VALUE        GRADIENT
      1          1  C    CARTESIAN X    -2.306577      0.137956  KCAL/ANGSTROM
      2          1  C    CARTESIAN Y    -1.104948      0.002727  KCAL/ANGSTROM
      3          1  C    CARTESIAN Z    -1.270859      0.122435  KCAL/ANGSTROM
      4          2  N    CARTESIAN X    -1.343543     -0.128289  KCAL/ANGSTROM
      5          2  N    CARTESIAN Y    -0.849145     -0.026502  KCAL/ANGSTROM
      6          2  N    CARTESIAN Z    -0.197670      0.333742  KCAL/ANGSTROM
      7          3  C    CARTESIAN X    -1.784439      0.028631  KCAL/ANGSTROM
      8          3  C    CARTESIAN Y     0.170571      0.252191  KCAL/ANGSTROM
      9          3  C    CARTESIAN Z     0.826206      0.307989  KCAL/ANGSTROM
     10          4  C    CARTESIAN X    -0.541502      0.217616  KCAL/ANGSTROM
     11          4  C    CARTESIAN Y     1.048105     -0.079255  KCAL/ANGSTROM
     12          4  C    CARTESIAN Z     0.515296     -0.031011  KCAL/ANGSTROM
     13          5  C    CARTESIAN X    -0.165894     -0.018580  KCAL/ANGSTROM
     14          5  C    CARTESIAN Y     0.012107     -0.173996  KCAL/ANGSTROM
     15          5  C    CARTESIAN Z    -0.585273     -0.121909  KCAL/ANGSTROM
     16          6  C    CARTESIAN X     1.144972      0.139514  KCAL/ANGSTROM
     17          6  C    CARTESIAN Y    -0.785395      0.109371  KCAL/ANGSTROM
     18          6  C    CARTESIAN Z    -0.380666     -0.131134  KCAL/ANGSTROM
     19          7  N    CARTESIAN X     2.272431      0.016651  KCAL/ANGSTROM
     20          7  N    CARTESIAN Y     0.062439      0.359973  KCAL/ANGSTROM
     21          7  N    CARTESIAN Z    -0.839380     -0.100438  KCAL/ANGSTROM
     22          8  C    CARTESIAN X     1.357429     -0.017873  KCAL/ANGSTROM
     23          8  C    CARTESIAN Y    -1.115899     -0.279169  KCAL/ANGSTROM
     24          8  C    CARTESIAN Z     1.026340      0.165050  KCAL/ANGSTROM
     25          9  N    CARTESIAN X     1.523426     -0.131656  KCAL/ANGSTROM
     26          9  N    CARTESIAN Y    -1.388711      0.184912  KCAL/ANGSTROM
     27          9  N    CARTESIAN Z     2.136999      0.018927  KCAL/ANGSTROM
     28         10  H    CARTESIAN X    -2.629274     -0.056254  KCAL/ANGSTROM
     29         10  H    CARTESIAN Y    -0.215902      0.116801  KCAL/ANGSTROM
     30         10  H    CARTESIAN Z    -1.833590     -0.205442  KCAL/ANGSTROM
     31         11  H    CARTESIAN X    -3.203195     -0.172216  KCAL/ANGSTROM
     32         11  H    CARTESIAN Y    -1.580763      0.166232  KCAL/ANGSTROM
     33         11  H    CARTESIAN Z    -0.833645      0.135885  KCAL/ANGSTROM
     34         12  H    CARTESIAN X    -1.866891     -0.109820  KCAL/ANGSTROM
     35         12  H    CARTESIAN Y    -1.827873     -0.332716  KCAL/ANGSTROM
     36         12  H    CARTESIAN Z    -1.980345     -0.297752  KCAL/ANGSTROM
     37         13  H    CARTESIAN X    -1.796534     -0.161544  KCAL/ANGSTROM
     38         13  H    CARTESIAN Y    -0.292743     -0.113997  KCAL/ANGSTROM
     39         13  H    CARTESIAN Z     1.825196     -0.116450  KCAL/ANGSTROM
     40         14  H    CARTESIAN X    -2.749355      0.214643  KCAL/ANGSTROM
     41         14  H    CARTESIAN Y     0.652736      0.176362  KCAL/ANGSTROM
     42         14  H    CARTESIAN Z     0.640598      0.063384  KCAL/ANGSTROM
     43         15  H    CARTESIAN X     0.180422     -0.115210  KCAL/ANGSTROM
     44         15  H    CARTESIAN Y     1.144495     -0.081559  KCAL/ANGSTROM
     45         15  H    CARTESIAN Z     1.331704      0.085379  KCAL/ANGSTROM
     46         16  H    CARTESIAN X    -0.756574     -0.055487  KCAL/ANGSTROM
     47         16  H    CARTESIAN Y     2.049520     -0.426935  KCAL/ANGSTROM
     48         16  H    CARTESIAN Z     0.140775     -0.074637  KCAL/ANGSTROM
     49         17  H    CARTESIAN X    -0.198465      0.162003  KCAL/ANGSTROM
     50         17  H    CARTESIAN Y     0.428568      0.056263  KCAL/ANGSTROM
     51         17  H    CARTESIAN Z    -1.608926     -0.202545  KCAL/ANGSTROM
     52         18  H    CARTESIAN X     1.059522      0.302733  KCAL/ANGSTROM
     53         18  H    CARTESIAN Y    -1.752162     -0.056177  KCAL/ANGSTROM
     54         18  H    CARTESIAN Z    -0.963269      0.138416  KCAL/ANGSTROM
     55         19  H    CARTESIAN X     3.168612     -0.223118  KCAL/ANGSTROM
     56         19  H    CARTESIAN Y    -0.346940     -0.243244  KCAL/ANGSTROM
     57         19  H    CARTESIAN Z    -0.627988      0.095876  KCAL/ANGSTROM
     58         20  H    CARTESIAN X     2.216759     -0.029697  KCAL/ANGSTROM
     59         20  H    CARTESIAN Y     0.266788      0.388714  KCAL/ANGSTROM
     60         20  H    CARTESIAN Z    -1.823545     -0.185770  KCAL/ANGSTROM




   ATOM   CHEMICAL          X               Y               Z
  NUMBER   SYMBOL      (ANGSTROMS)     (ANGSTROMS)     (ANGSTROMS)

     1       C         -2.30657706  *  -1.10494777  *  -1.27085939  *
     2       N         -1.34354308  *  -0.84914530  *  -0.19767033  *
     3       C         -1.78443886  *   0.17057120  *   0.82620599  *
     4       C         -0.54150164  *   1.04810469  *   0.51529625  *
     5       C         -0.16589408  *   0.01210668  *  -0.58527313  *
     6       C          1.14497214  *  -0.78539473  *  -0.38066626  *
     7       N          2.27243130  *   0.06243857  *  -0.83938006  *
     8       C          1.35742928  *  -1.11589856  *   1.02633966  *
     9       N          1.52342584  *  -1.38871095  *   2.13699852  *
    10       H         -2.62927380  *  -0.21590170  *  -1.83358961  *
    11       H         -3.20319543  *  -1.58076255  *  -0.83364495  *
    12       H         -1.86689136  *  -1.82787336  *  -1.98034507  *
    13       H         -1.79653416  *  -0.29274334  *   1.82519568  *
    14       H         -2.74935484  *   0.65273648  *   0.64059772  *
    15       H          0.18042223  *   1.14449479  *   1.33170367  *
    16       H         -0.75657448  *   2.04951974  *   0.14077474  *
    17       H         -0.19846489  *   0.42856791  *  -1.60892558  *
    18       H          1.05952161  *  -1.75216208  *  -0.96326932  *
    19       H          3.16861195  *  -0.34693968  *  -0.62798803  *
    20       H          2.21675896  *   0.26678803  *  -1.82354457  *

                             CARTESIAN COORDINATES

   1    C       -2.306577060    -1.104947771    -1.270859387
   2    N       -1.343543076    -0.849145302    -0.197670334
   3    C       -1.784438859     0.170571204     0.826205987
   4    C       -0.541501643     1.048104685     0.515296248
   5    C       -0.165894077     0.012106681    -0.585273133
   6    C        1.144972145    -0.785394731    -0.380666263
   7    N        2.272431300     0.062438573    -0.839380060
   8    C        1.357429281    -1.115898555     1.026339660
   9    N        1.523425836    -1.388710952     2.136998523
  10    H       -2.629273801    -0.215901699    -1.833589610
  11    H       -3.203195426    -1.580762549    -0.833644946
  12    H       -1.866891361    -1.827873363    -1.980345071
  13    H       -1.796534160    -0.292743336     1.825195684
  14    H       -2.749354837     0.652736481     0.640597719
  15    H        0.180422228     1.144494785     1.331703666
  16    H       -0.756574476     2.049519745     0.140774743
  17    H       -0.198464887     0.428567908    -1.608925584
  18    H        1.059521612    -1.752162077    -0.963269319
  19    H        3.168611950    -0.346939682    -0.627988033
  20    H        2.216758963     0.266788027    -1.823544567


           Empirical Formula: C6 H11 N3  =    20 atoms



      MOLECULAR POINT GROUP   :   C1  


                  EIGENVALUES  
 -36.24861 -35.68310 -34.72013 -27.45765 -25.80969 -23.31381 -22.73546 -19.92681
 -17.84879 -17.34410 -17.13276 -16.21875 -16.02128 -15.23875 -14.45903 -14.25431
 -13.18620 -13.15915 -13.06068 -12.83130 -12.57900 -11.88497 -11.78614 -10.10021
  -9.42006   1.19874   1.39310   2.14168   2.83916   2.99452   3.06706   3.49202
   3.85631   3.94803   4.69936   4.86975   5.16129   5.32379   5.42645   5.51831
   5.59326   5.84687   5.99875   6.06979   6.26085   6.37102   6.49423


              NET ATOMIC CHARGES AND DIPOLE CONTRIBUTIONS

  ATOM NO.   TYPE          CHARGE      No. of ELECS.   s-Pop       p-Pop       
    1          C          -0.282820        4.2828     1.06095     3.22187
    2          N          -0.412791        5.4128     1.72090     3.69189
    3          C          -0.125095        4.1251     1.08166     3.04343
    4          C          -0.317415        4.3174     1.07629     3.24113
    5          C           0.019632        3.9804     1.08774     2.89263
    6          C           0.054884        3.9451     1.05836     2.88675
    7          N          -0.649664        5.6497     1.63661     4.01305
    8          C           0.118163        3.8818     1.12425     2.75759
    9          N          -0.251555        5.2516     1.83009     3.42147
   10          H           0.122311        0.8777     0.87769
   11          H           0.155453        0.8445     0.84455
   12          H           0.148539        0.8515     0.85146
   13          H           0.158022        0.8420     0.84198
   14          H           0.129666        0.8703     0.87033
   15          H           0.168330        0.8317     0.83167
   16          H           0.148422        0.8516     0.85158
   17          H           0.136148        0.8639     0.86385
   18          H           0.154441        0.8456     0.84556
   19          H           0.264788        0.7352     0.73521
   20          H           0.260542        0.7395     0.73946
 DIPOLE           X         Y         Z       TOTAL
 POINT-CHG.    -1.458     0.961    -3.698     4.090
 HYBRID         0.103    -0.002    -1.301     1.305
 SUM           -1.355     0.959    -4.999     5.267


          ATOMIC ORBITAL ELECTRON POPULATIONS

     Atom    s        px        py        pz   
    1  C   1.06095   1.05695   1.14028   1.02464
    2  N   1.72090   1.12507   1.39745   1.16938
    3  C   1.08166   1.04173   0.95789   1.04382
    4  C   1.07629   1.07417   1.06763   1.09932
    5  C   1.08774   0.89647   0.93573   1.06043
    6  C   1.05836   0.93096   1.01468   0.94111
    7  N   1.63661   1.14294   1.54090   1.32922
    8  C   1.12425   0.91717   0.91303   0.92739
    9  N   1.83009   1.09534   1.11184   1.21429
   10  H   0.87769
   11  H   0.84455
   12  H   0.85146
   13  H   0.84198
   14  H   0.87033
   15  H   0.83167
   16  H   0.85158
   17  H   0.86385
   18  H   0.84556
   19  H   0.73521
   20  H   0.73946

 **********************
 *                    *
 * JOB ENDED NORMALLY *
 *                    *
 **********************



 TOTAL JOB TIME:             1.11 SECONDS

 == MOPAC DONE ==
