 *******************************************************************************
 **                                                                           **
 **                              MOPAC v23.2                                  **
 **                                                                           **
 *******************************************************************************
 **          Digital Object Identifier (DOI): 10.5281/zenodo.6511958          **
 **    Visit the DOI location for information on how to cite this program.    **
 *******************************************************************************

                              PM7 CALCULATION RESULTS

 *******************************************************************************
 *  CALCULATION DONE: (MAX THREADS = 40)             Fri Sep 19 21:31:14 2025  *
 *  PM7        - The PM7 Hamiltonian to be used
 *  1SCF       - DO 1 SCF AND THEN STOP 
 *  T=         - A TIME OF 172800.0 SECONDS REQUESTED
 *  DUMP=N     - RESTART FILE WRITTEN EVERY 7200.0 SECONDS REQUESTED
 *  RELSCF     - DEFAULT SCF CRITERION MULTIPLIED BY 0.0001
 *              (DEFAULT SCF CRITERION = 0.00010)
 *  GRADIENTS  - ALL GRADIENTS TO BE PRINTED
 *  DISP       - PRINT DISPERSION AND HYDROGEN BOND ENERGIES
 *******************************************************************************
PM7 1SCF GRADIENTS DISP RELSCF=0.0001
 Title: ASE calculation

   ATOM   CHEMICAL          X               Y               Z
  NUMBER   SYMBOL      (ANGSTROMS)     (ANGSTROMS)     (ANGSTROMS)

     1       C         -2.72412341  *  -1.17671243  *   0.79316498  *
     2       C         -2.44219187  *   0.24960179  *   0.29195011  *
     3       C         -2.86610172  *   0.40208677  *  -1.17758576  *
     4       C         -1.04586942  *   0.53803076  *   0.42999927  *
     5       C          0.21230100  *   0.78801058  *   0.53325715  *
     6       C          1.59070850  *   1.05579448  *   0.68417108  *
     7       O          2.14864306  *   1.15160157  *   1.75574355  *
     8       C          2.38469563  *   1.20720370  *  -0.60408781  *
     9       O          3.69701185  *   1.65931332  *  -0.37198757  *
    10       H         -2.42383784  *  -1.30184284  *   1.84096300  *
    11       H         -2.18083450  *  -1.92640788  *   0.20522892  *
    12       H         -3.79175483  *  -1.41292651  *   0.72264447  *
    13       H         -3.03963695  *   0.97485586  *   0.91804192  *
    14       H         -2.32563008  *  -0.29603434  *  -1.82798611  *
    15       H         -3.93634456  *   0.20302614  *  -1.30080022  *
    16       H         -2.67202620  *   1.41492881  *  -1.54961172  *
    17       H          2.46553388  *   0.23711328  *  -1.13431063  *
    18       H          1.93503642  *   1.95795954  *  -1.28288787  *
    19       H          3.91903846  *   1.58549375  *   0.58834812  *



          CARTESIAN COORDINATES 

    NO.       ATOM           X           Y           Z

     1         C         -2.7241     -1.1767      0.7932
     2         C         -2.4422      0.2496      0.2920
     3         C         -2.8661      0.4021     -1.1776
     4         C         -1.0459      0.5380      0.4300
     5         C          0.2123      0.7880      0.5333
     6         C          1.5907      1.0558      0.6842
     7         O          2.1486      1.1516      1.7557
     8         C          2.3847      1.2072     -0.6041
     9         O          3.6970      1.6593     -0.3720
    10         H         -2.4238     -1.3018      1.8410
    11         H         -2.1808     -1.9264      0.2052
    12         H         -3.7918     -1.4129      0.7226
    13         H         -3.0396      0.9749      0.9180
    14         H         -2.3256     -0.2960     -1.8280
    15         H         -3.9363      0.2030     -1.3008
    16         H         -2.6720      1.4149     -1.5496
    17         H          2.4655      0.2371     -1.1343
    18         H          1.9350      1.9580     -1.2829
    19         H          3.9190      1.5855      0.5883

 General Reference for PM7:
 "Optimization of Parameters for Semiempirical Methods VI: More Modifications to the 
 NDDO Approximations and Re-optimization of Parameters", J. J. P. Stewart, J. Mol. Mod., 1:32, 19 (2013)
 https://link.springer.com/article/10.1007/s00894-012-1667-x

           Empirical Formula: C7 H10 O2  =    19 atoms



      MOLECULAR POINT GROUP   :   C1  


      RHF CALCULATION, NO. OF DOUBLY OCCUPIED LEVELS = 25

  SCF CRITERION =    0.1000E-07

 -------------------------------------------------------------------------------
 PM7 1SCF GRADIENTS DISP RELSCF=0.0001
 Title: ASE calculation



     1SCF WAS SPECIFIED, SO BFGS WAS NOT USED                 
     SCF FIELD WAS ACHIEVED                                   


                              PM7 CALCULATION
                                                       MOPAC v23.2 Linux
                                                       Fri Sep 19 21:31:14 2025




          FINAL HEAT OF FORMATION =        -43.03441 KCAL/MOL =    -180.05596 KJ/MOL

          TOTAL ENERGY            =     -36528.30446 KCAL/MOL = ELECTRONIC ENERGY + CORE-CORE REPULSION
          ENERGY OF ATOMS         =      36482.50324 KCAL/MOL
                              SUM =        -45.80122 KCAL/MOL
          DISPERSION ENERGY       =         -1.50421 KCAL/MOL
          H-BOND ENERGY           =         -0.33411 KCAL/MOL
                              SUM =        -47.63954 KCAL/MOL = FINAL HEAT OF FORMATION

     *    WARNING - An energy term is incorrect or missing!

     *    FINAL HEAT OF FORMATION     =    -43.03441 KCAL/MOL
     *    SUM OF CONTRIBUTIONS TO HoF =    -47.63954 KCAL/MOL
     *                     DIFFERENCE =      4.60513 KCAL/MOL



          TOTAL ENERGY            =      -1584.01720 EV
          ELECTRONIC ENERGY       =      -6866.75467 EV 
          CORE-CORE REPULSION     =       5282.73747 EV
          COSMO AREA              =        180.69 SQUARE ANGSTROMS
          COSMO VOLUME            =        168.82 CUBIC ANGSTROMS

          GRADIENT NORM           =          0.90584          =       0.20782 PER ATOM
          IONIZATION POTENTIAL    =         10.460027 EV
          HOMO LUMO ENERGIES (EV) =        -10.460 -0.491
          NO. OF FILLED LEVELS    =         25
          MOLECULAR WEIGHT        =        126.1548         POINT GROUP:  C1  

          MOLECULAR DIMENSIONS (Angstroms)

            Atom       Atom       Distance
            H    19    H    12     8.27435
            H    10    H    16     4.27612
            H    13    H    17     3.32914


          SCF CALCULATIONS        =          1

          WALL-CLOCK TIME         =      0.641 SECONDS
          COMPUTATION TIME        =      0.446 SECONDS

          LARGEST ATOMIC GRADIENTS

          Atom     Label                     Cartesian Gradients           Cartesian Coordinates       |Gradient|
                                           X          Y          Z        X          Y          Z

             2       C                  -0.219      0.137      0.216   -2.44219    0.24960    0.29195      0.337
             9       O                   0.284      0.089     -0.017    3.69701    1.65931   -0.37199      0.298
            13       H                  -0.226      0.107      0.149   -3.03964    0.97486    0.91804      0.291
             5       C                  -0.170      0.223     -0.028    0.21230    0.78801    0.53326      0.282
            18       H                  -0.110     -0.170     -0.167    1.93504    1.95796   -1.28289      0.263
             4       C                  -0.193      0.039     -0.167   -1.04587    0.53803    0.43000      0.258
            16       H                   0.076     -0.173     -0.110   -2.67203    1.41493   -1.54961      0.219
            10       H                   0.013     -0.189     -0.085   -2.42384   -1.30184    1.84096      0.208
             7       O                   0.135     -0.126      0.086    2.14864    1.15160    1.75574      0.204
             8       C                   0.162      0.087     -0.006    2.38470    1.20720   -0.60409      0.185



       FINAL  POINT  AND  DERIVATIVES

   PARAMETER     ATOM    TYPE            VALUE        GRADIENT
      1          1  C    CARTESIAN X    -2.724123     -0.001583  KCAL/ANGSTROM
      2          1  C    CARTESIAN Y    -1.176712      0.011503  KCAL/ANGSTROM
      3          1  C    CARTESIAN Z     0.793165     -0.032066  KCAL/ANGSTROM
      4          2  C    CARTESIAN X    -2.442192     -0.219075  KCAL/ANGSTROM
      5          2  C    CARTESIAN Y     0.249602      0.137164  KCAL/ANGSTROM
      6          2  C    CARTESIAN Z     0.291950      0.216195  KCAL/ANGSTROM
      7          3  C    CARTESIAN X    -2.866102      0.029393  KCAL/ANGSTROM
      8          3  C    CARTESIAN Y     0.402087     -0.025446  KCAL/ANGSTROM
      9          3  C    CARTESIAN Z    -1.177586      0.153427  KCAL/ANGSTROM
     10          4  C    CARTESIAN X    -1.045869     -0.193131  KCAL/ANGSTROM
     11          4  C    CARTESIAN Y     0.538031      0.038633  KCAL/ANGSTROM
     12          4  C    CARTESIAN Z     0.429999     -0.167314  KCAL/ANGSTROM
     13          5  C    CARTESIAN X     0.212301     -0.169662  KCAL/ANGSTROM
     14          5  C    CARTESIAN Y     0.788011      0.223483  KCAL/ANGSTROM
     15          5  C    CARTESIAN Z     0.533257     -0.027549  KCAL/ANGSTROM
     16          6  C    CARTESIAN X     1.590708     -0.097823  KCAL/ANGSTROM
     17          6  C    CARTESIAN Y     1.055794     -0.033612  KCAL/ANGSTROM
     18          6  C    CARTESIAN Z     0.684171      0.140309  KCAL/ANGSTROM
     19          7  O    CARTESIAN X     2.148643      0.135124  KCAL/ANGSTROM
     20          7  O    CARTESIAN Y     1.151602     -0.125647  KCAL/ANGSTROM
     21          7  O    CARTESIAN Z     1.755744      0.086083  KCAL/ANGSTROM
     22          8  C    CARTESIAN X     2.384696      0.162333  KCAL/ANGSTROM
     23          8  C    CARTESIAN Y     1.207204      0.087498  KCAL/ANGSTROM
     24          8  C    CARTESIAN Z    -0.604088     -0.006471  KCAL/ANGSTROM
     25          9  O    CARTESIAN X     3.697012      0.283503  KCAL/ANGSTROM
     26          9  O    CARTESIAN Y     1.659313      0.088855  KCAL/ANGSTROM
     27          9  O    CARTESIAN Z    -0.371988     -0.016631  KCAL/ANGSTROM
     28         10  H    CARTESIAN X    -2.423838      0.012555  KCAL/ANGSTROM
     29         10  H    CARTESIAN Y    -1.301843     -0.189328  KCAL/ANGSTROM
     30         10  H    CARTESIAN Z     1.840963     -0.084835  KCAL/ANGSTROM
     31         11  H    CARTESIAN X    -2.180835      0.062585  KCAL/ANGSTROM
     32         11  H    CARTESIAN Y    -1.926408     -0.089003  KCAL/ANGSTROM
     33         11  H    CARTESIAN Z     0.205229      0.014768  KCAL/ANGSTROM
     34         12  H    CARTESIAN X    -3.791755      0.055299  KCAL/ANGSTROM
     35         12  H    CARTESIAN Y    -1.412927      0.078588  KCAL/ANGSTROM
     36         12  H    CARTESIAN Z     0.722644     -0.083934  KCAL/ANGSTROM
     37         13  H    CARTESIAN X    -3.039637     -0.225930  KCAL/ANGSTROM
     38         13  H    CARTESIAN Y     0.974856      0.106600  KCAL/ANGSTROM
     39         13  H    CARTESIAN Z     0.918042      0.148526  KCAL/ANGSTROM
     40         14  H    CARTESIAN X    -2.325630      0.023565  KCAL/ANGSTROM
     41         14  H    CARTESIAN Y    -0.296034      0.090659  KCAL/ANGSTROM
     42         14  H    CARTESIAN Z    -1.827986     -0.028269  KCAL/ANGSTROM
     43         15  H    CARTESIAN X    -3.936345      0.167791  KCAL/ANGSTROM
     44         15  H    CARTESIAN Y     0.203026     -0.035992  KCAL/ANGSTROM
     45         15  H    CARTESIAN Z    -1.300800      0.024317  KCAL/ANGSTROM
     46         16  H    CARTESIAN X    -2.672026      0.075577  KCAL/ANGSTROM
     47         16  H    CARTESIAN Y     1.414929     -0.172785  KCAL/ANGSTROM
     48         16  H    CARTESIAN Z    -1.549612     -0.110365  KCAL/ANGSTROM
     49         17  H    CARTESIAN X     2.465534      0.040595  KCAL/ANGSTROM
     50         17  H    CARTESIAN Y     0.237113      0.064506  KCAL/ANGSTROM
     51         17  H    CARTESIAN Z    -1.134311      0.047687  KCAL/ANGSTROM
     52         18  H    CARTESIAN X     1.935036     -0.110136  KCAL/ANGSTROM
     53         18  H    CARTESIAN Y     1.957960     -0.169965  KCAL/ANGSTROM
     54         18  H    CARTESIAN Z    -1.282888     -0.167060  KCAL/ANGSTROM
     55         19  H    CARTESIAN X     3.919038     -0.031052  KCAL/ANGSTROM
     56         19  H    CARTESIAN Y     1.585494     -0.085691  KCAL/ANGSTROM
     57         19  H    CARTESIAN Z     0.588348     -0.106768  KCAL/ANGSTROM




   ATOM   CHEMICAL          X               Y               Z
  NUMBER   SYMBOL      (ANGSTROMS)     (ANGSTROMS)     (ANGSTROMS)

     1       C         -2.72412341  *  -1.17671243  *   0.79316498  *
     2       C         -2.44219187  *   0.24960179  *   0.29195011  *
     3       C         -2.86610172  *   0.40208677  *  -1.17758576  *
     4       C         -1.04586942  *   0.53803076  *   0.42999927  *
     5       C          0.21230100  *   0.78801058  *   0.53325715  *
     6       C          1.59070850  *   1.05579448  *   0.68417108  *
     7       O          2.14864306  *   1.15160157  *   1.75574355  *
     8       C          2.38469563  *   1.20720370  *  -0.60408781  *
     9       O          3.69701185  *   1.65931332  *  -0.37198757  *
    10       H         -2.42383784  *  -1.30184284  *   1.84096300  *
    11       H         -2.18083450  *  -1.92640788  *   0.20522892  *
    12       H         -3.79175483  *  -1.41292651  *   0.72264447  *
    13       H         -3.03963695  *   0.97485586  *   0.91804192  *
    14       H         -2.32563008  *  -0.29603434  *  -1.82798611  *
    15       H         -3.93634456  *   0.20302614  *  -1.30080022  *
    16       H         -2.67202620  *   1.41492881  *  -1.54961172  *
    17       H          2.46553388  *   0.23711328  *  -1.13431063  *
    18       H          1.93503642  *   1.95795954  *  -1.28288787  *
    19       H          3.91903846  *   1.58549375  *   0.58834812  *

                             CARTESIAN COORDINATES

   1    C       -2.724123410    -1.176712427     0.793164981
   2    C       -2.442191871     0.249601790     0.291950114
   3    C       -2.866101717     0.402086770    -1.177585757
   4    C       -1.045869424     0.538030762     0.429999266
   5    C        0.212300998     0.788010580     0.533257147
   6    C        1.590708496     1.055794480     0.684171080
   7    O        2.148643059     1.151601566     1.755743549
   8    C        2.384695630     1.207203705    -0.604087807
   9    O        3.697011848     1.659313322    -0.371987566
  10    H       -2.423837843    -1.301842836     1.840963003
  11    H       -2.180834500    -1.926407885     0.205228918
  12    H       -3.791754826    -1.412926510     0.722644467
  13    H       -3.039636949     0.974855864     0.918041919
  14    H       -2.325630083    -0.296034339    -1.827986106
  15    H       -3.936344558     0.203026145    -1.300800219
  16    H       -2.672026204     1.414928813    -1.549611723
  17    H        2.465533879     0.237113280    -1.134310631
  18    H        1.935036416     1.957959537    -1.282887867
  19    H        3.919038462     1.585493747     0.588348115


           Empirical Formula: C7 H10 O2  =    19 atoms



      MOLECULAR POINT GROUP   :   C1  


                  EIGENVALUES  
 -31.42007 -29.72938 -29.14534 -26.71152 -24.89863 -24.61392 -22.26614 -20.69056
 -18.13280 -17.09825 -16.44130 -16.10802 -15.99170 -15.08728 -14.41990 -13.94422
 -13.89453 -13.34126 -13.25960 -12.95806 -12.81636 -10.92210 -10.84087 -10.75952
 -10.46003  -0.49150   0.46121   1.65638   2.65387   2.88810   3.34993   3.40483
   3.77425   4.36870   4.86266   4.88184   5.15574   5.20033   5.22844   5.27871
   5.33997   5.40126   5.84446   6.24871   6.31912   6.41420


              NET ATOMIC CHARGES AND DIPOLE CONTRIBUTIONS

  ATOM NO.   TYPE          CHARGE      No. of ELECS.   s-Pop       p-Pop       
    1          C          -0.438287        4.4383     1.05569     3.38260
    2          C          -0.062377        4.0624     1.03991     3.02246
    3          C          -0.440833        4.4408     1.05568     3.38516
    4          C           0.072212        3.9278     1.14389     2.78389
    5          C          -0.287340        4.2873     1.11598     3.17136
    6          C           0.461687        3.5383     1.09709     2.44122
    7          O          -0.424926        6.4249     1.88303     4.54190
    8          C          -0.096144        4.0961     1.09582     3.00033
    9          O          -0.525270        6.5253     1.85270     4.67257
   10          H           0.157146        0.8429     0.84285
   11          H           0.155133        0.8449     0.84487
   12          H           0.152775        0.8472     0.84722
   13          H           0.168163        0.8318     0.83184
   14          H           0.154808        0.8452     0.84519
   15          H           0.151356        0.8486     0.84864
   16          H           0.153024        0.8470     0.84698
   17          H           0.152590        0.8474     0.84741
   18          H           0.159628        0.8404     0.84037
   19          H           0.336655        0.6633     0.66334
 DIPOLE           X         Y         Z       TOTAL
 POINT-CHG.    -5.026    -1.564    -2.193     5.703
 HYBRID         0.253     0.005     0.505     0.565
 SUM           -4.774    -1.559    -1.687     5.298


          ATOMIC ORBITAL ELECTRON POPULATIONS

     Atom    s        px        py        pz   
    1  C   1.05569   1.17751   1.03644   1.16865
    2  C   1.03991   0.96035   1.03826   1.02385
    3  C   1.05568   1.17060   1.18293   1.03163
    4  C   1.14389   0.95890   0.86458   0.96042
    5  C   1.11598   0.99395   1.11420   1.06321
    6  C   1.09709   0.87137   0.68950   0.88034
    7  O   1.88303   1.73842   1.41384   1.38963
    8  C   1.09582   0.85007   1.11732   1.03294
    9  O   1.85270   1.34717   1.89539   1.43002
   10  H   0.84285
   11  H   0.84487
   12  H   0.84722
   13  H   0.83184
   14  H   0.84519
   15  H   0.84864
   16  H   0.84698
   17  H   0.84741
   18  H   0.84037
   19  H   0.66334

 **********************
 *                    *
 * JOB ENDED NORMALLY *
 *                    *
 **********************



 TOTAL JOB TIME:             0.84 SECONDS

 == MOPAC DONE ==
