 *******************************************************************************
 **                                                                           **
 **                              MOPAC v23.2                                  **
 **                                                                           **
 *******************************************************************************
 **          Digital Object Identifier (DOI): 10.5281/zenodo.6511958          **
 **    Visit the DOI location for information on how to cite this program.    **
 *******************************************************************************

                              PM7 CALCULATION RESULTS

 *******************************************************************************
 *  CALCULATION DONE: (MAX THREADS = 40)             Fri Sep 19 21:28:22 2025  *
 *  PM7        - The PM7 Hamiltonian to be used
 *
 *
 *
 *                 CHARGE ON SYSTEM = +1
 *
 *
 *
 *  1SCF       - DO 1 SCF AND THEN STOP 
 *  T=         - A TIME OF 172800.0 SECONDS REQUESTED
 *  DUMP=N     - RESTART FILE WRITTEN EVERY 7200.0 SECONDS REQUESTED
 *  RELSCF     - DEFAULT SCF CRITERION MULTIPLIED BY 0.0001
 *              (DEFAULT SCF CRITERION = 0.00010)
 *  GRADIENTS  - ALL GRADIENTS TO BE PRINTED
 *  DISP       - PRINT DISPERSION AND HYDROGEN BOND ENERGIES
 *******************************************************************************
PM7 1SCF GRADIENTS DISP RELSCF=0.0001 CHARGE=1
 Title: ASE calculation

   ATOM   CHEMICAL          X               Y               Z
  NUMBER   SYMBOL      (ANGSTROMS)     (ANGSTROMS)     (ANGSTROMS)

     1       C          1.99025791  *  -0.14469605  *  -0.02840198  *
     2       C          0.51151485  *  -0.15408162  *   0.00675615  *
     3       C         -0.22572337  *  -1.25620589  *   0.18511534  *
     4       C         -1.71829561  *  -1.26492419  *   0.24189289  *
     5       N         -2.32897834  *   0.03564384  *   0.28293733  *
     6       C         -1.67721646  *   1.19819518  *  -0.20756980  *
     7       C         -0.12349553  *   1.17002644  *  -0.16531761  *
     8       O          0.44925638  *   2.21033335  *  -0.29109284  *
     9       H          2.38103143  *   0.28450386  *  -0.97164118  *
    10       H          2.44132055  *  -1.14435476  *   0.07309886  *
    11       H          2.41972548  *   0.48008586  *   0.77930561  *
    12       H          0.23488599  *  -2.24544876  *   0.30812798  *
    13       H         -2.12486375  *  -1.82618170  *  -0.66598800  *
    14       H         -2.07171511  *  -1.88642794  *   1.12053015  *
    15       H         -3.26143590  *   0.12918473  *   0.68761817  *
    16       H         -2.03792363  *   2.13144825  *   0.31661149  *
    17       H         -1.96562318  *   1.38126582  *  -1.29368457  *



          CARTESIAN COORDINATES 

    NO.       ATOM           X           Y           Z

     1         C          1.9903     -0.1447     -0.0284
     2         C          0.5115     -0.1541      0.0068
     3         C         -0.2257     -1.2562      0.1851
     4         C         -1.7183     -1.2649      0.2419
     5         N         -2.3290      0.0356      0.2829
     6         C         -1.6772      1.1982     -0.2076
     7         C         -0.1235      1.1700     -0.1653
     8         O          0.4493      2.2103     -0.2911
     9         H          2.3810      0.2845     -0.9716
    10         H          2.4413     -1.1444      0.0731
    11         H          2.4197      0.4801      0.7793
    12         H          0.2349     -2.2454      0.3081
    13         H         -2.1249     -1.8262     -0.6660
    14         H         -2.0717     -1.8864      1.1205
    15         H         -3.2614      0.1292      0.6876
    16         H         -2.0379      2.1314      0.3166
    17         H         -1.9656      1.3813     -1.2937

 General Reference for PM7:
 "Optimization of Parameters for Semiempirical Methods VI: More Modifications to the 
 NDDO Approximations and Re-optimization of Parameters", J. J. P. Stewart, J. Mol. Mod., 1:32, 19 (2013)
 https://link.springer.com/article/10.1007/s00894-012-1667-x

           Empirical Formula: C6 H9 N O  =    17 atoms



      MOLECULAR POINT GROUP   :   C1  


          UHF CALCULATION, NO. OF ALPHA ELECTRONS =   22
                           NO. OF BETA  ELECTRONS =   21
  SCF CRITERION =    0.1000E-07

 -------------------------------------------------------------------------------
 PM7 1SCF GRADIENTS DISP RELSCF=0.0001 CHARGE=1
 Title: ASE calculation



     1SCF WAS SPECIFIED, SO BFGS WAS NOT USED                 
     SCF FIELD WAS ACHIEVED                                   


                              PM7 CALCULATION
                                                       MOPAC v23.2 Linux
                                                       Fri Sep 19 21:28:23 2025




          FINAL HEAT OF FORMATION =        162.25384 KCAL/MOL =     678.87008 KJ/MOL

          TOTAL ENERGY            =     -30706.64244 KCAL/MOL = ELECTRONIC ENERGY + CORE-CORE REPULSION
          ENERGY OF ATOMS         =      30870.38327 KCAL/MOL
                              SUM =        163.74083 KCAL/MOL
          DISPERSION ENERGY       =         -1.48699 KCAL/MOL
                              SUM =        162.25384 KCAL/MOL = FINAL HEAT OF FORMATION



          TOTAL ENERGY            =      -1331.56604 EV
          ELECTRONIC ENERGY       =      -6061.63801 EV 
          CORE-CORE REPULSION     =       4730.07196 EV
          COSMO AREA              =        148.72 SQUARE ANGSTROMS
          COSMO VOLUME            =        141.95 CUBIC ANGSTROMS

          GRADIENT NORM           =          0.94910          =       0.23019 PER ATOM
          IONIZATION POTENTIAL    =         14.594542 EV
          ALPHA SOMO LUMO (EV)    =        -14.595 -4.853
          BETA  SOMO LUMO (EV)    =        -14.608 -6.994
          NO. OF ALPHA ELECTRONS  =         22
          NO. OF BETA  ELECTRONS  =         21
          MOLECULAR WEIGHT        =        111.1432         POINT GROUP:  C1  

          MOLECULAR DIMENSIONS (Angstroms)

            Atom       Atom       Distance
            H    15    H     9     5.88343
            H    12    O     8     4.47401
            H    17    H    11     3.09002


          SCF CALCULATIONS        =          1

          WALL-CLOCK TIME         =      1.078 SECONDS
          COMPUTATION TIME        =      0.578 SECONDS

          LARGEST ATOMIC GRADIENTS

          Atom     Label                     Cartesian Gradients           Cartesian Coordinates       |Gradient|
                                           X          Y          Z        X          Y          Z

            17       H                  -0.362     -0.020     -0.023   -1.96562    1.38127   -1.29368      0.363
             3       C                  -0.024     -0.033      0.323   -0.22572   -1.25621    0.18512      0.326
             4       C                  -0.082     -0.262     -0.129   -1.71830   -1.26492    0.24189      0.303
            14       H                  -0.063     -0.078     -0.252   -2.07172   -1.88643    1.12053      0.271
            13       H                  -0.261      0.032     -0.040   -2.12486   -1.82618   -0.66599      0.266
             9       H                   0.226     -0.070     -0.114    2.38103    0.28450   -0.97164      0.263
            11       H                   0.222     -0.025      0.066    2.41973    0.48009    0.77931      0.233
            12       H                   0.107      0.055      0.184    0.23489   -2.24545    0.30813      0.220
             2       C                  -0.059     -0.141      0.152    0.51151   -0.15408    0.00676      0.215
            10       H                  -0.080      0.172     -0.099    2.44132   -1.14435    0.07310      0.214



       FINAL  POINT  AND  DERIVATIVES

   PARAMETER     ATOM    TYPE            VALUE        GRADIENT
      1          1  C    CARTESIAN X     1.990258      0.060256  KCAL/ANGSTROM
      2          1  C    CARTESIAN Y    -0.144696      0.130519  KCAL/ANGSTROM
      3          1  C    CARTESIAN Z    -0.028402     -0.026796  KCAL/ANGSTROM
      4          2  C    CARTESIAN X     0.511515     -0.058618  KCAL/ANGSTROM
      5          2  C    CARTESIAN Y    -0.154082     -0.140812  KCAL/ANGSTROM
      6          2  C    CARTESIAN Z     0.006756      0.151589  KCAL/ANGSTROM
      7          3  C    CARTESIAN X    -0.225723     -0.023938  KCAL/ANGSTROM
      8          3  C    CARTESIAN Y    -1.256206     -0.032800  KCAL/ANGSTROM
      9          3  C    CARTESIAN Z     0.185115      0.323111  KCAL/ANGSTROM
     10          4  C    CARTESIAN X    -1.718296     -0.081852  KCAL/ANGSTROM
     11          4  C    CARTESIAN Y    -1.264924     -0.261830  KCAL/ANGSTROM
     12          4  C    CARTESIAN Z     0.241893     -0.128842  KCAL/ANGSTROM
     13          5  N    CARTESIAN X    -2.328978      0.083382  KCAL/ANGSTROM
     14          5  N    CARTESIAN Y     0.035644     -0.057271  KCAL/ANGSTROM
     15          5  N    CARTESIAN Z     0.282937     -0.015694  KCAL/ANGSTROM
     16          6  C    CARTESIAN X    -1.677216      0.069768  KCAL/ANGSTROM
     17          6  C    CARTESIAN Y     1.198195     -0.025397  KCAL/ANGSTROM
     18          6  C    CARTESIAN Z    -0.207570     -0.091686  KCAL/ANGSTROM
     19          7  C    CARTESIAN X    -0.123496      0.099864  KCAL/ANGSTROM
     20          7  C    CARTESIAN Y     1.170026      0.167411  KCAL/ANGSTROM
     21          7  C    CARTESIAN Z    -0.165318      0.056865  KCAL/ANGSTROM
     22          8  O    CARTESIAN X     0.449256     -0.021196  KCAL/ANGSTROM
     23          8  O    CARTESIAN Y     2.210333     -0.018813  KCAL/ANGSTROM
     24          8  O    CARTESIAN Z    -0.291093     -0.085695  KCAL/ANGSTROM
     25          9  H    CARTESIAN X     2.381031      0.226242  KCAL/ANGSTROM
     26          9  H    CARTESIAN Y     0.284504     -0.070007  KCAL/ANGSTROM
     27          9  H    CARTESIAN Z    -0.971641     -0.113625  KCAL/ANGSTROM
     28         10  H    CARTESIAN X     2.441321     -0.080454  KCAL/ANGSTROM
     29         10  H    CARTESIAN Y    -1.144355      0.171582  KCAL/ANGSTROM
     30         10  H    CARTESIAN Z     0.073099     -0.098906  KCAL/ANGSTROM
     31         11  H    CARTESIAN X     2.419725      0.222396  KCAL/ANGSTROM
     32         11  H    CARTESIAN Y     0.480086     -0.025026  KCAL/ANGSTROM
     33         11  H    CARTESIAN Z     0.779306      0.065794  KCAL/ANGSTROM
     34         12  H    CARTESIAN X     0.234886      0.107147  KCAL/ANGSTROM
     35         12  H    CARTESIAN Y    -2.245449      0.055411  KCAL/ANGSTROM
     36         12  H    CARTESIAN Z     0.308128      0.183924  KCAL/ANGSTROM
     37         13  H    CARTESIAN X    -2.124864     -0.260644  KCAL/ANGSTROM
     38         13  H    CARTESIAN Y    -1.826182      0.031770  KCAL/ANGSTROM
     39         13  H    CARTESIAN Z    -0.665988     -0.039703  KCAL/ANGSTROM
     40         14  H    CARTESIAN X    -2.071715     -0.062556  KCAL/ANGSTROM
     41         14  H    CARTESIAN Y    -1.886428     -0.078406  KCAL/ANGSTROM
     42         14  H    CARTESIAN Z     1.120530     -0.251525  KCAL/ANGSTROM
     43         15  H    CARTESIAN X    -3.261436      0.001539  KCAL/ANGSTROM
     44         15  H    CARTESIAN Y     0.129185      0.190484  KCAL/ANGSTROM
     45         15  H    CARTESIAN Z     0.687618     -0.055352  KCAL/ANGSTROM
     46         16  H    CARTESIAN X    -2.037924      0.080284  KCAL/ANGSTROM
     47         16  H    CARTESIAN Y     2.131448     -0.016601  KCAL/ANGSTROM
     48         16  H    CARTESIAN Z     0.316611      0.149537  KCAL/ANGSTROM
     49         17  H    CARTESIAN X    -1.965623     -0.361621  KCAL/ANGSTROM
     50         17  H    CARTESIAN Y     1.381266     -0.020219  KCAL/ANGSTROM
     51         17  H    CARTESIAN Z    -1.293685     -0.022998  KCAL/ANGSTROM




   ATOM   CHEMICAL          X               Y               Z
  NUMBER   SYMBOL      (ANGSTROMS)     (ANGSTROMS)     (ANGSTROMS)

     1       C          1.99025791  *  -0.14469605  *  -0.02840198  *
     2       C          0.51151485  *  -0.15408162  *   0.00675615  *
     3       C         -0.22572337  *  -1.25620589  *   0.18511534  *
     4       C         -1.71829561  *  -1.26492419  *   0.24189289  *
     5       N         -2.32897834  *   0.03564384  *   0.28293733  *
     6       C         -1.67721646  *   1.19819518  *  -0.20756980  *
     7       C         -0.12349553  *   1.17002644  *  -0.16531761  *
     8       O          0.44925638  *   2.21033335  *  -0.29109284  *
     9       H          2.38103143  *   0.28450386  *  -0.97164118  *
    10       H          2.44132055  *  -1.14435476  *   0.07309886  *
    11       H          2.41972548  *   0.48008586  *   0.77930561  *
    12       H          0.23488599  *  -2.24544876  *   0.30812798  *
    13       H         -2.12486375  *  -1.82618170  *  -0.66598800  *
    14       H         -2.07171511  *  -1.88642794  *   1.12053015  *
    15       H         -3.26143590  *   0.12918473  *   0.68761817  *
    16       H         -2.03792363  *   2.13144825  *   0.31661149  *
    17       H         -1.96562318  *   1.38126582  *  -1.29368457  *

                             CARTESIAN COORDINATES

   1    C        1.990257906    -0.144696054    -0.028401983
   2    C        0.511514847    -0.154081616     0.006756147
   3    C       -0.225723372    -1.256205894     0.185115338
   4    C       -1.718295614    -1.264924192     0.241892888
   5    N       -2.328978342     0.035643840     0.282937329
   6    C       -1.677216462     1.198195182    -0.207569803
   7    C       -0.123495533     1.170026441    -0.165317614
   8    O        0.449256380     2.210333352    -0.291092838
   9    H        2.381031435     0.284503860    -0.971641178
  10    H        2.441320548    -1.144354755     0.073098864
  11    H        2.419725481     0.480085855     0.779305609
  12    H        0.234885989    -2.245448764     0.308127979
  13    H       -2.124863755    -1.826181700    -0.665987996
  14    H       -2.071715108    -1.886427936     1.120530145
  15    H       -3.261435898     0.129184727     0.687618166
  16    H       -2.037923631     2.131448247     0.316611488
  17    H       -1.965623180     1.381265824    -1.293684566


           Empirical Formula: C6 H9 N O  =    17 atoms



      MOLECULAR POINT GROUP   :   C1  


          ALPHA EIGENVALUES  
 -43.43192 -36.26918 -33.60625 -31.72432 -30.08126 -26.82337 -26.50913 -24.56047
 -22.85857 -22.62490 -21.26021 -20.17414 -19.93372 -19.51768 -19.02079 -18.41595
 -17.65668 -17.48225 -16.95643 -16.72625 -14.79866 -14.59454  -4.85259  -4.52115
  -2.99801  -2.37227  -1.95019  -1.76659  -0.89871  -0.81863  -0.72995  -0.34035
  -0.14064   0.07794   0.21166   0.51471   0.81492   1.40476   1.98638   2.04540
   3.17843


           BETA EIGENVALUES 
 -41.75145 -36.22495 -33.49181 -31.54588 -29.88016 -26.71658 -26.37400 -24.17387
 -22.41851 -21.96880 -20.99955 -19.93602 -19.72899 -19.42775 -18.67178 -18.34629
 -17.60748 -17.40127 -16.83527 -14.84560 -14.60820  -6.99415  -4.83137  -3.86696
  -2.96341  -2.33734  -1.76928  -1.50177  -0.82826  -0.65637  -0.57942  -0.11060
  -0.00541   0.14046   0.27052   0.52788   0.82956   1.40422   1.98768   2.04633
   3.17899


              NET ATOMIC CHARGES AND DIPOLE CONTRIBUTIONS

  ATOM NO.   TYPE          CHARGE      No. of ELECS.   s-Pop       p-Pop       
    1          C          -0.447854        4.4479     1.04747     3.40039
    2          C          -0.028792        4.0288     1.08388     2.94492
    3          C          -0.176463        4.1765     1.09097     3.08549
    4          C          -0.178759        4.1788     1.07609     3.10267
    5          N          -0.027498        5.0275     1.52707     3.50043
    6          C          -0.327873        4.3279     1.09847     3.22941
    7          C           0.415663        3.5843     1.12365     2.46068
    8          O          -0.278801        6.2788     1.87990     4.39890
    9          H           0.194819        0.8052     0.80518
   10          H           0.180846        0.8192     0.81915
   11          H           0.195750        0.8043     0.80425
   12          H           0.204638        0.7954     0.79536
   13          H           0.238456        0.7615     0.76154
   14          H           0.221520        0.7785     0.77848
   15          H           0.327331        0.6727     0.67267
   16          H           0.234859        0.7651     0.76514
   17          H           0.252158        0.7478     0.74784
 DIPOLE           X         Y         Z       TOTAL
 POINT-CHG.    -6.257    -3.532     0.533     7.205
 HYBRID        -0.992     0.348     0.128     1.060
 SUM           -7.250    -3.184     0.662     7.946


          ATOMIC ORBITAL ELECTRON POPULATIONS

     Atom    s        px        py        pz   
    1  C   1.04747   0.97027   1.21529   1.21482
    2  C   1.08388   1.02120   0.95651   0.96721
    3  C   1.09097   0.93517   1.10563   1.04469
    4  C   1.07609   1.04862   0.85617   1.19788
    5  N   1.52707   1.18904   1.12985   1.18154
    6  C   1.09847   1.11905   0.94477   1.16559
    7  C   1.12365   0.83092   0.89632   0.73344
    8  O   1.87990   1.70052   1.37020   1.32818
    9  H   0.80518
   10  H   0.81915
   11  H   0.80425
   12  H   0.79536
   13  H   0.76154
   14  H   0.77848
   15  H   0.67267
   16  H   0.76514
   17  H   0.74784


                    (SZ)    =    0.500000
                    (S**2)  =    0.759172


          ATOMIC ORBITAL SPIN POPULATIONS

    Atom   Total    s     px     py     pz   
         Atomic
    1  C  0.0016  0.000  0.001  0.000  0.000
    2  C  0.0107  0.000  0.001  0.003  0.007
    3  C  0.0060  0.001  0.008 -0.000 -0.004
    4  C -0.0447 -0.007 -0.007 -0.042  0.011
    5  N  0.9249  0.041  0.159  0.064  0.661
    6  C -0.0421 -0.008 -0.010 -0.029  0.005
    7  C  0.0131  0.001  0.012 -0.000 -0.000
    8  O  0.0121  0.000  0.013  0.000 -0.001
    9  H  0.0002  0.000
   10  H  0.0001  0.000
   11  H  0.0003  0.000
   12  H -0.0003 -0.000
   13  H  0.0580  0.058
   14  H  0.0221  0.022
   15  H -0.0385 -0.038
   16  H  0.0160  0.016
   17  H  0.0606  0.061

 **********************
 *                    *
 * JOB ENDED NORMALLY *
 *                    *
 **********************



 TOTAL JOB TIME:             1.51 SECONDS

 == MOPAC DONE ==
