 *******************************************************************************
 **                                                                           **
 **                              MOPAC v23.2                                  **
 **                                                                           **
 *******************************************************************************
 **          Digital Object Identifier (DOI): 10.5281/zenodo.6511958          **
 **    Visit the DOI location for information on how to cite this program.    **
 *******************************************************************************

                              PM7 CALCULATION RESULTS

 *******************************************************************************
 *  CALCULATION DONE: (MAX THREADS = 40)             Fri Sep 19 21:28:06 2025  *
 *  PM7        - The PM7 Hamiltonian to be used
 *  1SCF       - DO 1 SCF AND THEN STOP 
 *  T=         - A TIME OF 172800.0 SECONDS REQUESTED
 *  DUMP=N     - RESTART FILE WRITTEN EVERY 7200.0 SECONDS REQUESTED
 *  RELSCF     - DEFAULT SCF CRITERION MULTIPLIED BY 0.0001
 *              (DEFAULT SCF CRITERION = 0.00010)
 *  GRADIENTS  - ALL GRADIENTS TO BE PRINTED
 *  DISP       - PRINT DISPERSION AND HYDROGEN BOND ENERGIES
 *******************************************************************************
PM7 1SCF GRADIENTS DISP RELSCF=0.0001
 Title: ASE calculation

   ATOM   CHEMICAL          X               Y               Z
  NUMBER   SYMBOL      (ANGSTROMS)     (ANGSTROMS)     (ANGSTROMS)

     1       O          2.12692645  *  -0.84896736  *   1.03952362  *
     2       C          1.74862381  *   0.25622135  *   0.24749330  *
     3       C          0.31500403  *   0.10962755  *  -0.21851018  *
     4       C         -0.24755507  *   1.25413195  *  -1.00379451  *
     5       C         -1.46550046  *   1.59432469  *  -0.55974693  *
     6       C         -1.94127269  *   0.74285436  *   0.59321072  *
     7       C         -0.81870061  *  -0.27713350  *   0.81153934  *
     8       C         -0.91646486  *  -1.58567303  *  -0.00923640  *
     9       O          0.15732787  *  -1.16618414  *  -0.90071372  *
    10       H          1.90044315  *  -1.68055007  *   0.56411205  *
    11       H          2.44690262  *   0.33443307  *  -0.60776047  *
    12       H          1.88526289  *   1.12201377  *   0.92215290  *
    13       H          0.30507810  *   1.68599138  *  -1.81697726  *
    14       H         -2.09931832  *   2.37868547  *  -0.93768659  *
    15       H         -2.90512834  *   0.25520835  *   0.36192701  *
    16       H         -2.11886848  *   1.35512950  *   1.49617875  *
    17       H         -0.51264242  *  -0.39542853  *   1.85331846  *
    18       H         -1.83041547  *  -1.73289506  *  -0.58946151  *
    19       H         -0.61490782  *  -2.50027329  *   0.50724984  *



          CARTESIAN COORDINATES 

    NO.       ATOM           X           Y           Z

     1         O          2.1269     -0.8490      1.0395
     2         C          1.7486      0.2562      0.2475
     3         C          0.3150      0.1096     -0.2185
     4         C         -0.2476      1.2541     -1.0038
     5         C         -1.4655      1.5943     -0.5597
     6         C         -1.9413      0.7429      0.5932
     7         C         -0.8187     -0.2771      0.8115
     8         C         -0.9165     -1.5857     -0.0092
     9         O          0.1573     -1.1662     -0.9007
    10         H          1.9004     -1.6806      0.5641
    11         H          2.4469      0.3344     -0.6078
    12         H          1.8853      1.1220      0.9222
    13         H          0.3051      1.6860     -1.8170
    14         H         -2.0993      2.3787     -0.9377
    15         H         -2.9051      0.2552      0.3619
    16         H         -2.1189      1.3551      1.4962
    17         H         -0.5126     -0.3954      1.8533
    18         H         -1.8304     -1.7329     -0.5895
    19         H         -0.6149     -2.5003      0.5072

 General Reference for PM7:
 "Optimization of Parameters for Semiempirical Methods VI: More Modifications to the 
 NDDO Approximations and Re-optimization of Parameters", J. J. P. Stewart, J. Mol. Mod., 1:32, 19 (2013)
 https://link.springer.com/article/10.1007/s00894-012-1667-x

           Empirical Formula: C7 H10 O2  =    19 atoms



      MOLECULAR POINT GROUP   :   C1  


      RHF CALCULATION, NO. OF DOUBLY OCCUPIED LEVELS = 25

  SCF CRITERION =    0.1000E-07

 -------------------------------------------------------------------------------
 PM7 1SCF GRADIENTS DISP RELSCF=0.0001
 Title: ASE calculation



     1SCF WAS SPECIFIED, SO BFGS WAS NOT USED                 
     SCF FIELD WAS ACHIEVED                                   


                              PM7 CALCULATION
                                                       MOPAC v23.2 Linux
                                                       Fri Sep 19 21:28:06 2025




          FINAL HEAT OF FORMATION =        -52.47310 KCAL/MOL =    -219.54746 KJ/MOL

          TOTAL ENERGY            =     -36533.04094 KCAL/MOL = ELECTRONIC ENERGY + CORE-CORE REPULSION
          ENERGY OF ATOMS         =      36482.50324 KCAL/MOL
                              SUM =        -50.53770 KCAL/MOL
          DISPERSION ENERGY       =         -1.76162 KCAL/MOL
          H-BOND ENERGY           =         -0.17379 KCAL/MOL
                              SUM =        -52.47310 KCAL/MOL = FINAL HEAT OF FORMATION



          TOTAL ENERGY            =      -1584.22260 EV
          ELECTRONIC ENERGY       =      -7749.19479 EV 
          CORE-CORE REPULSION     =       6164.97220 EV
          COSMO AREA              =        155.49 SQUARE ANGSTROMS
          COSMO VOLUME            =        157.02 CUBIC ANGSTROMS

          GRADIENT NORM           =          0.95212          =       0.21843 PER ATOM
          IONIZATION POTENTIAL    =         10.103669 EV
          HOMO LUMO ENERGIES (EV) =        -10.104  0.531
          NO. OF FILLED LEVELS    =         25
          MOLECULAR WEIGHT        =        126.1548         POINT GROUP:  C1  

          MOLECULAR DIMENSIONS (Angstroms)

            Atom       Atom       Distance
            H    14    H    10     5.89329
            H    12    H    18     4.83291
            H    16    H    13     3.97534


          SCF CALCULATIONS        =          1

          WALL-CLOCK TIME         =      0.461 SECONDS
          COMPUTATION TIME        =      0.535 SECONDS

          LARGEST ATOMIC GRADIENTS

          Atom     Label                     Cartesian Gradients           Cartesian Coordinates       |Gradient|
                                           X          Y          Z        X          Y          Z

            14       H                  -0.150      0.232     -0.282   -2.09932    2.37869   -0.93769      0.395
            16       H                  -0.308     -0.063      0.139   -2.11887    1.35513    1.49618      0.344
             1       O                  -0.045      0.260     -0.180    2.12693   -0.84897    1.03952      0.320
             2       C                   0.214     -0.221     -0.019    1.74862    0.25622    0.24749      0.308
            12       H                   0.138     -0.200     -0.143    1.88526    1.12201    0.92215      0.282
             7       C                  -0.050     -0.214      0.042   -0.81870   -0.27713    0.81154      0.223
             6       C                   0.086     -0.078      0.167   -1.94127    0.74285    0.59321      0.203
             8       C                   0.092     -0.131     -0.098   -0.91646   -1.58567   -0.00924      0.187
             5       C                   0.019      0.147      0.108   -1.46550    1.59432   -0.55975      0.183
            19       H                   0.003      0.058      0.169   -0.61491   -2.50027    0.50725      0.179



       FINAL  POINT  AND  DERIVATIVES

   PARAMETER     ATOM    TYPE            VALUE        GRADIENT
      1          1  O    CARTESIAN X     2.126926     -0.044686  KCAL/ANGSTROM
      2          1  O    CARTESIAN Y    -0.848967      0.260224  KCAL/ANGSTROM
      3          1  O    CARTESIAN Z     1.039524     -0.180233  KCAL/ANGSTROM
      4          2  C    CARTESIAN X     1.748624      0.214031  KCAL/ANGSTROM
      5          2  C    CARTESIAN Y     0.256221     -0.220991  KCAL/ANGSTROM
      6          2  C    CARTESIAN Z     0.247493     -0.019145  KCAL/ANGSTROM
      7          3  C    CARTESIAN X     0.315004      0.002492  KCAL/ANGSTROM
      8          3  C    CARTESIAN Y     0.109628     -0.022106  KCAL/ANGSTROM
      9          3  C    CARTESIAN Z    -0.218510      0.082667  KCAL/ANGSTROM
     10          4  C    CARTESIAN X    -0.247555     -0.097796  KCAL/ANGSTROM
     11          4  C    CARTESIAN Y     1.254132     -0.036892  KCAL/ANGSTROM
     12          4  C    CARTESIAN Z    -1.003795     -0.020127  KCAL/ANGSTROM
     13          5  C    CARTESIAN X    -1.465500      0.019428  KCAL/ANGSTROM
     14          5  C    CARTESIAN Y     1.594325      0.146751  KCAL/ANGSTROM
     15          5  C    CARTESIAN Z    -0.559747      0.108032  KCAL/ANGSTROM
     16          6  C    CARTESIAN X    -1.941273      0.085735  KCAL/ANGSTROM
     17          6  C    CARTESIAN Y     0.742854     -0.078164  KCAL/ANGSTROM
     18          6  C    CARTESIAN Z     0.593211      0.167058  KCAL/ANGSTROM
     19          7  C    CARTESIAN X    -0.818701     -0.049772  KCAL/ANGSTROM
     20          7  C    CARTESIAN Y    -0.277133     -0.213635  KCAL/ANGSTROM
     21          7  C    CARTESIAN Z     0.811539      0.042485  KCAL/ANGSTROM
     22          8  C    CARTESIAN X    -0.916465      0.092221  KCAL/ANGSTROM
     23          8  C    CARTESIAN Y    -1.585673     -0.130854  KCAL/ANGSTROM
     24          8  C    CARTESIAN Z    -0.009236     -0.097540  KCAL/ANGSTROM
     25          9  O    CARTESIAN X     0.157328      0.017962  KCAL/ANGSTROM
     26          9  O    CARTESIAN Y    -1.166184      0.102325  KCAL/ANGSTROM
     27          9  O    CARTESIAN Z    -0.900714     -0.062602  KCAL/ANGSTROM
     28         10  H    CARTESIAN X     1.900443     -0.059194  KCAL/ANGSTROM
     29         10  H    CARTESIAN Y    -1.680550      0.142286  KCAL/ANGSTROM
     30         10  H    CARTESIAN Z     0.564112     -0.033033  KCAL/ANGSTROM
     31         11  H    CARTESIAN X     2.446903      0.002852  KCAL/ANGSTROM
     32         11  H    CARTESIAN Y     0.334433     -0.075402  KCAL/ANGSTROM
     33         11  H    CARTESIAN Z    -0.607760      0.148031  KCAL/ANGSTROM
     34         12  H    CARTESIAN X     1.885263      0.138166  KCAL/ANGSTROM
     35         12  H    CARTESIAN Y     1.122014     -0.199606  KCAL/ANGSTROM
     36         12  H    CARTESIAN Z     0.922153     -0.142691  KCAL/ANGSTROM
     37         13  H    CARTESIAN X     0.305078      0.139464  KCAL/ANGSTROM
     38         13  H    CARTESIAN Y     1.685991      0.090409  KCAL/ANGSTROM
     39         13  H    CARTESIAN Z    -1.816977      0.014772  KCAL/ANGSTROM
     40         14  H    CARTESIAN X    -2.099318     -0.150150  KCAL/ANGSTROM
     41         14  H    CARTESIAN Y     2.378685      0.231865  KCAL/ANGSTROM
     42         14  H    CARTESIAN Z    -0.937687     -0.281957  KCAL/ANGSTROM
     43         15  H    CARTESIAN X    -2.905128      0.094502  KCAL/ANGSTROM
     44         15  H    CARTESIAN Y     0.255208      0.048633  KCAL/ANGSTROM
     45         15  H    CARTESIAN Z     0.361927     -0.138936  KCAL/ANGSTROM
     46         16  H    CARTESIAN X    -2.118868     -0.308076  KCAL/ANGSTROM
     47         16  H    CARTESIAN Y     1.355129     -0.063188  KCAL/ANGSTROM
     48         16  H    CARTESIAN Z     1.496179      0.138778  KCAL/ANGSTROM
     49         17  H    CARTESIAN X    -0.512642     -0.033483  KCAL/ANGSTROM
     50         17  H    CARTESIAN Y    -0.395429      0.024291  KCAL/ANGSTROM
     51         17  H    CARTESIAN Z     1.853318      0.008619  KCAL/ANGSTROM
     52         18  H    CARTESIAN X    -1.830415     -0.067183  KCAL/ANGSTROM
     53         18  H    CARTESIAN Y    -1.732895     -0.064363  KCAL/ANGSTROM
     54         18  H    CARTESIAN Z    -0.589462      0.096940  KCAL/ANGSTROM
     55         19  H    CARTESIAN X    -0.614908      0.003478  KCAL/ANGSTROM
     56         19  H    CARTESIAN Y    -2.500273      0.058379  KCAL/ANGSTROM
     57         19  H    CARTESIAN Z     0.507250      0.168887  KCAL/ANGSTROM




   ATOM   CHEMICAL          X               Y               Z
  NUMBER   SYMBOL      (ANGSTROMS)     (ANGSTROMS)     (ANGSTROMS)

     1       O          2.12692645  *  -0.84896736  *   1.03952362  *
     2       C          1.74862381  *   0.25622135  *   0.24749330  *
     3       C          0.31500403  *   0.10962755  *  -0.21851018  *
     4       C         -0.24755507  *   1.25413195  *  -1.00379451  *
     5       C         -1.46550046  *   1.59432469  *  -0.55974693  *
     6       C         -1.94127269  *   0.74285436  *   0.59321072  *
     7       C         -0.81870061  *  -0.27713350  *   0.81153934  *
     8       C         -0.91646486  *  -1.58567303  *  -0.00923640  *
     9       O          0.15732787  *  -1.16618414  *  -0.90071372  *
    10       H          1.90044315  *  -1.68055007  *   0.56411205  *
    11       H          2.44690262  *   0.33443307  *  -0.60776047  *
    12       H          1.88526289  *   1.12201377  *   0.92215290  *
    13       H          0.30507810  *   1.68599138  *  -1.81697726  *
    14       H         -2.09931832  *   2.37868547  *  -0.93768659  *
    15       H         -2.90512834  *   0.25520835  *   0.36192701  *
    16       H         -2.11886848  *   1.35512950  *   1.49617875  *
    17       H         -0.51264242  *  -0.39542853  *   1.85331846  *
    18       H         -1.83041547  *  -1.73289506  *  -0.58946151  *
    19       H         -0.61490782  *  -2.50027329  *   0.50724984  *

                             CARTESIAN COORDINATES

   1    O        2.126926447    -0.848967364     1.039523623
   2    C        1.748623812     0.256221352     0.247493297
   3    C        0.315004025     0.109627554    -0.218510180
   4    C       -0.247555067     1.254131948    -1.003794508
   5    C       -1.465500458     1.594324693    -0.559746928
   6    C       -1.941272694     0.742854361     0.593210721
   7    C       -0.818700610    -0.277133499     0.811539343
   8    C       -0.916464862    -1.585673032    -0.009236397
   9    O        0.157327866    -1.166184139    -0.900713717
  10    H        1.900443154    -1.680550068     0.564112050
  11    H        2.446902620     0.334433069    -0.607760467
  12    H        1.885262886     1.122013765     0.922152896
  13    H        0.305078099     1.685991377    -1.816977262
  14    H       -2.099318316     2.378685474    -0.937686586
  15    H       -2.905128342     0.255208354     0.361927010
  16    H       -2.118868479     1.355129500     1.496178753
  17    H       -0.512642423    -0.395428529     1.853318460
  18    H       -1.830415474    -1.732895055    -0.589461515
  19    H       -0.614907820    -2.500273292     0.507249840


           Empirical Formula: C7 H10 O2  =    19 atoms



      MOLECULAR POINT GROUP   :   C1  


                  EIGENVALUES  
 -32.02139 -29.29507 -28.50293 -25.99562 -24.94088 -23.22991 -21.86392 -19.27968
 -18.58521 -17.99127 -16.89981 -16.25319 -15.30944 -15.07109 -14.66596 -14.50484
 -13.59237 -13.08536 -12.58439 -12.22622 -12.03948 -11.64155 -10.68609 -10.15709
 -10.10367   0.53091   2.03199   2.56690   3.01472   3.39355   3.72023   3.95786
   4.11649   4.24819   4.56971   5.23814   5.38785   5.48245   5.66597   5.70789
   5.78910   5.80791   5.96011   6.03118   6.16198   6.28794


              NET ATOMIC CHARGES AND DIPOLE CONTRIBUTIONS

  ATOM NO.   TYPE          CHARGE      No. of ELECS.   s-Pop       p-Pop       
    1          O          -0.535451        6.5355     1.85351     4.68194
    2          C          -0.040906        4.0409     1.08725     2.95366
    3          C           0.190696        3.8093     1.10127     2.70803
    4          C          -0.227535        4.2275     1.09701     3.13052
    5          C          -0.104041        4.1040     1.10185     3.00219
    6          C          -0.290445        4.2904     1.06101     3.22943
    7          C          -0.189136        4.1891     1.08907     3.10007
    8          C          -0.052978        4.0530     1.09875     2.95423
    9          O          -0.412668        6.4127     1.90861     4.50406
   10          H           0.325228        0.6748     0.67477
   11          H           0.135398        0.8646     0.86460
   12          H           0.152125        0.8479     0.84788
   13          H           0.161945        0.8381     0.83805
   14          H           0.147988        0.8520     0.85201
   15          H           0.155820        0.8442     0.84418
   16          H           0.154094        0.8459     0.84591
   17          H           0.160599        0.8394     0.83940
   18          H           0.137070        0.8629     0.86293
   19          H           0.132196        0.8678     0.86780
 DIPOLE           X         Y         Z       TOTAL
 POINT-CHG.    -2.200     1.571     0.499     2.749
 HYBRID        -0.012    -0.586    -0.338     0.677
 SUM           -2.212     0.985     0.161     2.427


          ATOMIC ORBITAL ELECTRON POPULATIONS

     Atom    s        px        py        pz   
    1  O   1.85351   1.86840   1.29300   1.52054
    2  C   1.08725   0.99369   0.92129   1.03868
    3  C   1.10127   0.96327   0.83963   0.90513
    4  C   1.09701   1.03243   1.03087   1.06723
    5  C   1.10185   1.00519   1.01336   0.98365
    6  C   1.06101   1.07981   1.06317   1.08645
    7  C   1.08907   1.01186   0.99856   1.08964
    8  C   1.09875   0.97025   1.02574   0.95824
    9  O   1.90861   1.57491   1.37649   1.55266
   10  H   0.67477
   11  H   0.86460
   12  H   0.84788
   13  H   0.83805
   14  H   0.85201
   15  H   0.84418
   16  H   0.84591
   17  H   0.83940
   18  H   0.86293
   19  H   0.86780

 **********************
 *                    *
 * JOB ENDED NORMALLY *
 *                    *
 **********************



 TOTAL JOB TIME:             0.83 SECONDS

 == MOPAC DONE ==
