 *******************************************************************************
 **                                                                           **
 **                              MOPAC v23.2                                  **
 **                                                                           **
 *******************************************************************************
 **          Digital Object Identifier (DOI): 10.5281/zenodo.6511958          **
 **    Visit the DOI location for information on how to cite this program.    **
 *******************************************************************************

                              PM7 CALCULATION RESULTS

 *******************************************************************************
 *  CALCULATION DONE: (MAX THREADS = 40)             Fri Sep 19 21:32:09 2025  *
 *  PM7        - The PM7 Hamiltonian to be used
 *  EPS=37.5   - USE ANDREAS KLAMT'S COSMO IMPLICIT SOLVATION MODEL
 *  1SCF       - DO 1 SCF AND THEN STOP 
 *  T=         - A TIME OF 172800.0 SECONDS REQUESTED
 *  DUMP=N     - RESTART FILE WRITTEN EVERY 7200.0 SECONDS REQUESTED
 *  RELSCF     - DEFAULT SCF CRITERION MULTIPLIED BY 0.0001
 *              (DEFAULT SCF CRITERION = 0.00010)
 *  GRADIENTS  - ALL GRADIENTS TO BE PRINTED
 *  DISP       - PRINT DISPERSION AND HYDROGEN BOND ENERGIES
 *******************************************************************************
PM7 1SCF GRADIENTS EPS=37.5 DISP RELSCF=0.0001
 Title: ASE calculation

   ATOM   CHEMICAL          X               Y               Z
  NUMBER   SYMBOL      (ANGSTROMS)     (ANGSTROMS)     (ANGSTROMS)

     1       C         -2.27333305  *  -0.30893439  *   0.73014302  *
     2       C         -1.09363975  *   0.62746641  *   0.96647564  *
     3       C          0.08610603  *   0.34696774  *   0.02070253  *
     4       C         -0.26394684  *   0.54643090  *  -1.44961883  *
     5       C          0.76357699  *  -1.00833849  *   0.30188353  *
     6       C          2.03716397  *  -0.65500577  *   1.02133836  *
     7       O          2.82110060  *  -1.42688232  *   1.49574670  *
     8       C          2.14790062  *   0.85301031  *   1.05091092  *
     9       O          1.06331433  *   1.37010247  *   0.30412474  *
    10       H         -2.71983427  *  -0.15466965  *  -0.25916051  *
    11       H         -3.06357231  *  -0.14119405  *   1.47196407  *
    12       H         -1.98337730  *  -1.36328952  *   0.80010496  *
    13       H         -0.74637967  *   0.55707481  *   2.01535462  *
    14       H         -1.41010810  *   1.68290727  *   0.84073362  *
    15       H         -0.95085330  *  -0.22542787  *  -1.81047629  *
    16       H         -0.73850410  *   1.52309513  *  -1.61333286  *
    17       H          0.63682491  *   0.52727721  *  -2.07657836  *
    18       H          0.13499351  *  -1.68290727  *   0.91072217  *
    19       H          0.98189550  *  -1.56931446  *  -0.62511417  *
    20       H          2.08401389  *   1.25819827  *   2.07657836  *
    21       H          3.06357231  *   1.23188241  *   0.56238823  *



          CARTESIAN COORDINATES 

    NO.       ATOM           X           Y           Z

     1         C         -2.2733     -0.3089      0.7301
     2         C         -1.0936      0.6275      0.9665
     3         C          0.0861      0.3470      0.0207
     4         C         -0.2639      0.5464     -1.4496
     5         C          0.7636     -1.0083      0.3019
     6         C          2.0372     -0.6550      1.0213
     7         O          2.8211     -1.4269      1.4957
     8         C          2.1479      0.8530      1.0509
     9         O          1.0633      1.3701      0.3041
    10         H         -2.7198     -0.1547     -0.2592
    11         H         -3.0636     -0.1412      1.4720
    12         H         -1.9834     -1.3633      0.8001
    13         H         -0.7464      0.5571      2.0154
    14         H         -1.4101      1.6829      0.8407
    15         H         -0.9509     -0.2254     -1.8105
    16         H         -0.7385      1.5231     -1.6133
    17         H          0.6368      0.5273     -2.0766
    18         H          0.1350     -1.6829      0.9107
    19         H          0.9819     -1.5693     -0.6251
    20         H          2.0840      1.2582      2.0766
    21         H          3.0636      1.2319      0.5624

 General Reference for PM7:
 "Optimization of Parameters for Semiempirical Methods VI: More Modifications to the 
 NDDO Approximations and Re-optimization of Parameters", J. J. P. Stewart, J. Mol. Mod., 1:32, 19 (2013)
 https://link.springer.com/article/10.1007/s00894-012-1667-x

           Empirical Formula: C7 H12 O2  =    21 atoms



      MOLECULAR POINT GROUP   :   C1  


      RHF CALCULATION, NO. OF DOUBLY OCCUPIED LEVELS = 26

  SCF CRITERION =    0.1000E-07

 -------------------------------------------------------------------------------
 PM7 1SCF GRADIENTS EPS=37.5 DISP RELSCF=0.0001
 Title: ASE calculation



     1SCF WAS SPECIFIED, SO BFGS WAS NOT USED                 
     SCF FIELD WAS ACHIEVED                                   


                              PM7 CALCULATION
                                                       MOPAC v23.2 Linux
                                                       Fri Sep 19 21:32:10 2025




          FINAL HEAT OF FORMATION =       -108.32626 KCAL/MOL =    -453.23708 KJ/MOL

          TOTAL ENERGY            =     -37203.47515 KCAL/MOL = ELECTRONIC ENERGY + CORE-CORE REPULSION + SOLVATION ENERGY
          ENERGY OF ATOMS         =      37097.27293 KCAL/MOL
                              SUM =       -106.20221 KCAL/MOL
          DISPERSION ENERGY       =         -2.12405 KCAL/MOL
                              SUM =       -108.32626 KCAL/MOL = FINAL HEAT OF FORMATION

          VAN DER WAALS AREA      =        166.73 SQUARE ANGSTROMS


          TOTAL ENERGY            =      -1613.29537 EV
          ELECTRONIC ENERGY       =      -2511.50162 EV 
          CORE-CORE REPULSION     =        898.20624 EV

          DIELECTRIC ENERGY       =         -0.40505 EV
          COSMO AREA              =        166.73 SQUARE ANGSTROMS
          COSMO VOLUME            =        169.42 CUBIC ANGSTROMS

          GRADIENT NORM           =         25.53058          =       5.57123 PER ATOM
          IONIZATION POTENTIAL    =         10.338435 EV
          HOMO LUMO ENERGIES (EV) =        -10.338  0.351
          NO. OF FILLED LEVELS    =         26
          MOLECULAR WEIGHT        =        128.1706         POINT GROUP:  C1  

          MOLECULAR DIMENSIONS (Angstroms)

            Atom       Atom       Distance
            H    21    H    11     6.34465
            H    16    O     7     5.04984
            H    19    H    20     3.84864


          SCF CALCULATIONS        =          2

          WALL-CLOCK TIME         =      0.922 SECONDS
          COMPUTATION TIME        =      0.571 SECONDS

          LARGEST ATOMIC GRADIENTS

          Atom     Label                     Cartesian Gradients           Cartesian Coordinates       |Gradient|
                                           X          Y          Z        X          Y          Z

             6       C                  13.177    -10.827      7.850    2.03716   -0.65501    1.02134     18.775
             7       O                  -8.349      7.523     -4.628    2.82110   -1.42688    1.49575     12.154
             5       C                  -5.938     -3.673     -3.535    0.76358   -1.00834    0.30188      7.826
             3       C                   4.955      2.846      2.148    0.08611    0.34697    0.02070      6.104
             4       C                  -2.530     -2.561     -2.215   -0.26395    0.54643   -1.44962      4.227
             9       O                  -1.990      1.150     -1.268    1.06331    1.37010    0.30412      2.625
            19       H                   0.320      1.723      1.742    0.98190   -1.56931   -0.62511      2.471
            18       H                   1.477      1.508      0.015    0.13499   -1.68291    0.91072      2.111
             8       C                  -0.839      1.893      0.240    2.14790    0.85301    1.05091      2.085
            20       H                   0.045     -0.669     -1.517    2.08401    1.25820    2.07658      1.658



       FINAL  POINT  AND  DERIVATIVES

   PARAMETER     ATOM    TYPE            VALUE        GRADIENT
      1          1  C    CARTESIAN X    -2.273333     -0.812716  KCAL/ANGSTROM
      2          1  C    CARTESIAN Y    -0.308934     -1.316885  KCAL/ANGSTROM
      3          1  C    CARTESIAN Z     0.730143     -0.274804  KCAL/ANGSTROM
      4          2  C    CARTESIAN X    -1.093640     -0.848965  KCAL/ANGSTROM
      5          2  C    CARTESIAN Y     0.627466     -0.757668  KCAL/ANGSTROM
      6          2  C    CARTESIAN Z     0.966476      0.246062  KCAL/ANGSTROM
      7          3  C    CARTESIAN X     0.086106      4.954593  KCAL/ANGSTROM
      8          3  C    CARTESIAN Y     0.346968      2.846124  KCAL/ANGSTROM
      9          3  C    CARTESIAN Z     0.020703      2.148353  KCAL/ANGSTROM
     10          4  C    CARTESIAN X    -0.263947     -2.529808  KCAL/ANGSTROM
     11          4  C    CARTESIAN Y     0.546431     -2.560892  KCAL/ANGSTROM
     12          4  C    CARTESIAN Z    -1.449619     -2.215152  KCAL/ANGSTROM
     13          5  C    CARTESIAN X     0.763577     -5.937604  KCAL/ANGSTROM
     14          5  C    CARTESIAN Y    -1.008338     -3.672617  KCAL/ANGSTROM
     15          5  C    CARTESIAN Z     0.301884     -3.535496  KCAL/ANGSTROM
     16          6  C    CARTESIAN X     2.037164     13.176750  KCAL/ANGSTROM
     17          6  C    CARTESIAN Y    -0.655006    -10.827103  KCAL/ANGSTROM
     18          6  C    CARTESIAN Z     1.021338      7.850459  KCAL/ANGSTROM
     19          7  O    CARTESIAN X     2.821101     -8.349215  KCAL/ANGSTROM
     20          7  O    CARTESIAN Y    -1.426882      7.523267  KCAL/ANGSTROM
     21          7  O    CARTESIAN Z     1.495747     -4.627578  KCAL/ANGSTROM
     22          8  C    CARTESIAN X     2.147901     -0.838919  KCAL/ANGSTROM
     23          8  C    CARTESIAN Y     0.853010      1.893287  KCAL/ANGSTROM
     24          8  C    CARTESIAN Z     1.050911      0.239999  KCAL/ANGSTROM
     25          9  O    CARTESIAN X     1.063314     -1.990358  KCAL/ANGSTROM
     26          9  O    CARTESIAN Y     1.370102      1.149850  KCAL/ANGSTROM
     27          9  O    CARTESIAN Z     0.304125     -1.268276  KCAL/ANGSTROM
     28         10  H    CARTESIAN X    -2.719834      0.227568  KCAL/ANGSTROM
     29         10  H    CARTESIAN Y    -0.154670      0.323522  KCAL/ANGSTROM
     30         10  H    CARTESIAN Z    -0.259161      0.472013  KCAL/ANGSTROM
     31         11  H    CARTESIAN X    -3.063572      0.385289  KCAL/ANGSTROM
     32         11  H    CARTESIAN Y    -0.141194     -0.072622  KCAL/ANGSTROM
     33         11  H    CARTESIAN Z     1.471964     -0.175285  KCAL/ANGSTROM
     34         12  H    CARTESIAN X    -1.983377      0.081158  KCAL/ANGSTROM
     35         12  H    CARTESIAN Y    -1.363290      0.642154  KCAL/ANGSTROM
     36         12  H    CARTESIAN Z     0.800105      0.108885  KCAL/ANGSTROM
     37         13  H    CARTESIAN X    -0.746380      0.046665  KCAL/ANGSTROM
     38         13  H    CARTESIAN Y     0.557075      0.479526  KCAL/ANGSTROM
     39         13  H    CARTESIAN Z     2.015355     -0.660275  KCAL/ANGSTROM
     40         14  H    CARTESIAN X    -1.410108      0.461001  KCAL/ANGSTROM
     41         14  H    CARTESIAN Y     1.682907     -0.011251  KCAL/ANGSTROM
     42         14  H    CARTESIAN Z     0.840734      0.123185  KCAL/ANGSTROM
     43         15  H    CARTESIAN X    -0.950853      0.423563  KCAL/ANGSTROM
     44         15  H    CARTESIAN Y    -0.225428      0.582544  KCAL/ANGSTROM
     45         15  H    CARTESIAN Z    -1.810476      0.162424  KCAL/ANGSTROM
     46         16  H    CARTESIAN X    -0.738504      0.869250  KCAL/ANGSTROM
     47         16  H    CARTESIAN Y     1.523095      0.428063  KCAL/ANGSTROM
     48         16  H    CARTESIAN Z    -1.613333      0.324693  KCAL/ANGSTROM
     49         17  H    CARTESIAN X     0.636825      0.150070  KCAL/ANGSTROM
     50         17  H    CARTESIAN Y     0.527277      1.047554  KCAL/ANGSTROM
     51         17  H    CARTESIAN Z    -2.076578      0.664785  KCAL/ANGSTROM
     52         18  H    CARTESIAN X     0.134994      1.476983  KCAL/ANGSTROM
     53         18  H    CARTESIAN Y    -1.682907      1.508357  KCAL/ANGSTROM
     54         18  H    CARTESIAN Z     0.910722      0.015498  KCAL/ANGSTROM
     55         19  H    CARTESIAN X     0.981895      0.319876  KCAL/ANGSTROM
     56         19  H    CARTESIAN Y    -1.569314      1.722714  KCAL/ANGSTROM
     57         19  H    CARTESIAN Z    -0.625114      1.742095  KCAL/ANGSTROM
     58         20  H    CARTESIAN X     2.084014      0.045378  KCAL/ANGSTROM
     59         20  H    CARTESIAN Y     1.258198     -0.668813  KCAL/ANGSTROM
     60         20  H    CARTESIAN Z     2.076578     -1.516765  KCAL/ANGSTROM
     61         21  H    CARTESIAN X     3.063572     -1.310559  KCAL/ANGSTROM
     62         21  H    CARTESIAN Y     1.231882     -0.259114  KCAL/ANGSTROM
     63         21  H    CARTESIAN Z     0.562388      0.175177  KCAL/ANGSTROM




   ATOM   CHEMICAL          X               Y               Z
  NUMBER   SYMBOL      (ANGSTROMS)     (ANGSTROMS)     (ANGSTROMS)

     1       C         -2.27333305  *  -0.30893439  *   0.73014302  *
     2       C         -1.09363975  *   0.62746641  *   0.96647564  *
     3       C          0.08610603  *   0.34696774  *   0.02070253  *
     4       C         -0.26394684  *   0.54643090  *  -1.44961883  *
     5       C          0.76357699  *  -1.00833849  *   0.30188353  *
     6       C          2.03716397  *  -0.65500577  *   1.02133836  *
     7       O          2.82110060  *  -1.42688232  *   1.49574670  *
     8       C          2.14790062  *   0.85301031  *   1.05091092  *
     9       O          1.06331433  *   1.37010247  *   0.30412474  *
    10       H         -2.71983427  *  -0.15466965  *  -0.25916051  *
    11       H         -3.06357231  *  -0.14119405  *   1.47196407  *
    12       H         -1.98337730  *  -1.36328952  *   0.80010496  *
    13       H         -0.74637967  *   0.55707481  *   2.01535462  *
    14       H         -1.41010810  *   1.68290727  *   0.84073362  *
    15       H         -0.95085330  *  -0.22542787  *  -1.81047629  *
    16       H         -0.73850410  *   1.52309513  *  -1.61333286  *
    17       H          0.63682491  *   0.52727721  *  -2.07657836  *
    18       H          0.13499351  *  -1.68290727  *   0.91072217  *
    19       H          0.98189550  *  -1.56931446  *  -0.62511417  *
    20       H          2.08401389  *   1.25819827  *   2.07657836  *
    21       H          3.06357231  *   1.23188241  *   0.56238823  *

                             CARTESIAN COORDINATES

   1    C       -2.273333051    -0.308934388     0.730143022
   2    C       -1.093639749     0.627466413     0.966475639
   3    C        0.086106030     0.346967735     0.020702529
   4    C       -0.263946842     0.546430896    -1.449618826
   5    C        0.763576991    -1.008338491     0.301883531
   6    C        2.037163974    -0.655005768     1.021338360
   7    O        2.821100602    -1.426882321     1.495746696
   8    C        2.147900622     0.853010314     1.050910922
   9    O        1.063314328     1.370102467     0.304124736
  10    H       -2.719834272    -0.154669646    -0.259160513
  11    H       -3.063572308    -0.141194054     1.471964067
  12    H       -1.983377297    -1.363289525     0.800104959
  13    H       -0.746379675     0.557074807     2.015354625
  14    H       -1.410108104     1.682907270     0.840733623
  15    H       -0.950853299    -0.225427866    -1.810476291
  16    H       -0.738504104     1.523095129    -1.613332863
  17    H        0.636824915     0.527277206    -2.076578355
  18    H        0.134993514    -1.682907270     0.910722169
  19    H        0.981895498    -1.569314462    -0.625114166
  20    H        2.084013893     1.258198272     2.076578355
  21    H        3.063572308     1.231882407     0.562388226


           Empirical Formula: C7 H12 O2  =    21 atoms



      MOLECULAR POINT GROUP   :   C1  


                  EIGENVALUES  
 -31.89818 -30.97760 -28.45249 -26.35515 -25.73820 -23.87401 -22.17986 -19.95835
 -19.18354 -16.97476 -16.67320 -16.04459 -15.68152 -15.04814 -14.84320 -14.59896
 -13.72321 -13.55455 -13.40096 -13.09645 -12.64356 -12.55331 -12.02548 -11.64248
 -10.78807 -10.33843   0.35102   1.74552   2.75063   3.12220   3.55635   3.79002
   3.89609   4.29732   4.51683   4.85403   5.18826   5.23901   5.47207   5.70400
   5.71622   5.78596   5.83010   5.95615   6.14542   6.54011   6.90245   7.03166


              NET ATOMIC CHARGES AND DIPOLE CONTRIBUTIONS

  ATOM NO.   TYPE          CHARGE      No. of ELECS.   s-Pop       p-Pop       
    1          C          -0.442066        4.4421     1.05103     3.39103
    2          C          -0.315335        4.3153     1.06472     3.25062
    3          C           0.322545        3.6775     1.08681     2.59064
    4          C          -0.491587        4.4916     1.06083     3.43075
    5          C          -0.464167        4.4642     1.08523     3.37894
    6          C           0.527897        3.4721     1.13387     2.33824
    7          O          -0.548038        6.5480     1.86928     4.67876
    8          C          -0.151155        4.1512     1.10253     3.04862
    9          O          -0.467997        6.4680     1.88165     4.58635
   10          H           0.151200        0.8488     0.84880
   11          H           0.150145        0.8499     0.84986
   12          H           0.150924        0.8491     0.84908
   13          H           0.153046        0.8470     0.84695
   14          H           0.157000        0.8430     0.84300
   15          H           0.166931        0.8331     0.83307
   16          H           0.164483        0.8355     0.83552
   17          H           0.164642        0.8354     0.83536
   18          H           0.203497        0.7965     0.79650
   19          H           0.205190        0.7948     0.79481
   20          H           0.178957        0.8210     0.82104
   21          H           0.183890        0.8161     0.81611
 DIPOLE           X         Y         Z       TOTAL
 POINT-CHG.    -3.152     0.491    -1.270     3.434
 HYBRID         0.153    -0.111     0.013     0.189
 SUM           -3.000     0.380    -1.258     3.275


          ATOMIC ORBITAL ELECTRON POPULATIONS

     Atom    s        px        py        pz   
    1  C   1.05103   1.08679   1.12372   1.18053
    2  C   1.06472   1.01909   1.11729   1.11424
    3  C   1.08681   0.84443   0.80860   0.93762
    4  C   1.06083   1.18534   1.19241   1.05300
    5  C   1.08523   1.08702   1.10885   1.18307
    6  C   1.13387   0.79440   0.88276   0.66108
    7  O   1.86928   1.53743   1.65186   1.48947
    8  C   1.10253   0.95929   1.00809   1.08125
    9  O   1.88165   1.39743   1.42268   1.76624
   10  H   0.84880
   11  H   0.84986
   12  H   0.84908
   13  H   0.84695
   14  H   0.84300
   15  H   0.83307
   16  H   0.83552
   17  H   0.83536
   18  H   0.79650
   19  H   0.79481
   20  H   0.82104
   21  H   0.81611

 **********************
 *                    *
 * JOB ENDED NORMALLY *
 *                    *
 **********************



 TOTAL JOB TIME:             1.42 SECONDS

 == MOPAC DONE ==
