 *******************************************************************************
 **                                                                           **
 **                              MOPAC v23.2                                  **
 **                                                                           **
 *******************************************************************************
 **          Digital Object Identifier (DOI): 10.5281/zenodo.6511958          **
 **    Visit the DOI location for information on how to cite this program.    **
 *******************************************************************************

                              PM7 CALCULATION RESULTS

 *******************************************************************************
 *  CALCULATION DONE: (MAX THREADS = 40)             Fri Sep 19 21:32:05 2025  *
 *  PM7        - The PM7 Hamiltonian to be used
 *  EPS=37.5   - USE ANDREAS KLAMT'S COSMO IMPLICIT SOLVATION MODEL
 *  1SCF       - DO 1 SCF AND THEN STOP 
 *  T=         - A TIME OF 172800.0 SECONDS REQUESTED
 *  DUMP=N     - RESTART FILE WRITTEN EVERY 7200.0 SECONDS REQUESTED
 *  RELSCF     - DEFAULT SCF CRITERION MULTIPLIED BY 0.0001
 *              (DEFAULT SCF CRITERION = 0.00010)
 *  GRADIENTS  - ALL GRADIENTS TO BE PRINTED
 *  DISP       - PRINT DISPERSION AND HYDROGEN BOND ENERGIES
 *******************************************************************************
PM7 1SCF GRADIENTS EPS=37.5 DISP RELSCF=0.0001
 Title: ASE calculation

   ATOM   CHEMICAL          X               Y               Z
  NUMBER   SYMBOL      (ANGSTROMS)     (ANGSTROMS)     (ANGSTROMS)

     1       O          1.78310125  *   1.81610095  *  -1.34140032  *
     2       C          1.35330614  *   0.81937853  *  -0.82074162  *
     3       N          2.07931831  *  -0.30745969  *  -0.35842164  *
     4       N          1.26570145  *  -1.25870806  *   0.23396627  *
     5       C          0.02571127  *  -0.80712751  *   0.10353176  *
     6       N          0.02017531  *   0.43464112  *  -0.58164066  *
     7       C         -1.27962039  *   1.09566982  *  -0.54967237  *
     8       C         -2.19282899  *   0.07771065  *   0.20333706  *
     9       C         -1.34287346  *  -1.19157333  *   0.51682833  *
    10       H          3.07056102  *  -0.41795784  *  -0.26933185  *
    11       H         -1.63171622  *   1.28491370  *  -1.58758879  *
    12       H         -1.22049064  *   2.07370291  *  -0.02738784  *
    13       H         -2.57711439  *   0.52247613  *   1.13550028  *
    14       H         -3.07056102  *  -0.18389389  *  -0.40762357  *
    15       H         -1.70553191  *  -2.07370291  *  -0.04756889  *
    16       H         -1.39618664  *  -1.46733517  *   1.58758879  *



          CARTESIAN COORDINATES 

    NO.       ATOM           X           Y           Z

     1         O          1.7831      1.8161     -1.3414
     2         C          1.3533      0.8194     -0.8207
     3         N          2.0793     -0.3075     -0.3584
     4         N          1.2657     -1.2587      0.2340
     5         C          0.0257     -0.8071      0.1035
     6         N          0.0202      0.4346     -0.5816
     7         C         -1.2796      1.0957     -0.5497
     8         C         -2.1928      0.0777      0.2033
     9         C         -1.3429     -1.1916      0.5168
    10         H          3.0706     -0.4180     -0.2693
    11         H         -1.6317      1.2849     -1.5876
    12         H         -1.2205      2.0737     -0.0274
    13         H         -2.5771      0.5225      1.1355
    14         H         -3.0706     -0.1839     -0.4076
    15         H         -1.7055     -2.0737     -0.0476
    16         H         -1.3962     -1.4673      1.5876

 General Reference for PM7:
 "Optimization of Parameters for Semiempirical Methods VI: More Modifications to the 
 NDDO Approximations and Re-optimization of Parameters", J. J. P. Stewart, J. Mol. Mod., 1:32, 19 (2013)
 https://link.springer.com/article/10.1007/s00894-012-1667-x

           Empirical Formula: C5 H7 N3 O  =    16 atoms



      MOLECULAR POINT GROUP   :   C1  


      RHF CALCULATION, NO. OF DOUBLY OCCUPIED LEVELS = 24

  SCF CRITERION =    0.1000E-07

 -------------------------------------------------------------------------------
 PM7 1SCF GRADIENTS EPS=37.5 DISP RELSCF=0.0001
 Title: ASE calculation



     1SCF WAS SPECIFIED, SO BFGS WAS NOT USED                 
     SCF FIELD WAS ACHIEVED                                   


                              PM7 CALCULATION
                                                       MOPAC v23.2 Linux
                                                       Fri Sep 19 21:32:06 2025




          FINAL HEAT OF FORMATION =        -12.49752 KCAL/MOL =     -52.28961 KJ/MOL

          TOTAL ENERGY            =     -36033.13139 KCAL/MOL = ELECTRONIC ENERGY + CORE-CORE REPULSION + SOLVATION ENERGY
          ENERGY OF ATOMS         =      36022.11410 KCAL/MOL
                              SUM =        -11.01730 KCAL/MOL
          DISPERSION ENERGY       =         -1.56583 KCAL/MOL
          MM CORR. FOR -CO-NH-    =          0.08561 KCAL/MOL
                              SUM =        -12.49752 KCAL/MOL = FINAL HEAT OF FORMATION

          VAN DER WAALS AREA      =        149.66 SQUARE ANGSTROMS


          TOTAL ENERGY            =      -1562.54447 EV
          ELECTRONIC ENERGY       =      -2167.81380 EV 
          CORE-CORE REPULSION     =        605.26933 EV

          DIELECTRIC ENERGY       =         -0.68689 EV
          COSMO AREA              =        149.66 SQUARE ANGSTROMS
          COSMO VOLUME            =        142.65 CUBIC ANGSTROMS

          GRADIENT NORM           =         40.69796          =       10.17449 PER ATOM
          IONIZATION POTENTIAL    =          9.675797 EV
          HOMO LUMO ENERGIES (EV) =         -9.676  0.126
          NO. OF FILLED LEVELS    =         24
          MOLECULAR WEIGHT        =        125.1298         POINT GROUP:  C1  

          MOLECULAR DIMENSIONS (Angstroms)

            Atom       Atom       Distance
            H    14    H    10     6.14714
            O     1    H    16     4.53387
            H    12    H    15     2.76130


          SCF CALCULATIONS        =          2

          WALL-CLOCK TIME         =      0.555 SECONDS
          COMPUTATION TIME        =      0.272 SECONDS

          LARGEST ATOMIC GRADIENTS

          Atom     Label                     Cartesian Gradients           Cartesian Coordinates       |Gradient|
                                           X          Y          Z        X          Y          Z

             2       C                   9.582     26.358    -15.240    1.35331    0.81938   -0.82074     31.919
             1       O                  -6.246    -12.994      7.811    1.78310    1.81610   -1.34140     16.397
             3       N                   2.859     -7.587      5.250    2.07932   -0.30746   -0.35842      9.659
             6       N                  -8.522      0.630     -0.110    0.02018    0.43464   -0.58164      8.546
             5       C                   7.665     -3.725      0.433    0.02571   -0.80713    0.10353      8.534
            10       H                  -7.613     -0.373     -0.339    3.07056   -0.41796   -0.26933      7.629
             7       C                   4.325     -0.311      0.046   -1.27962    1.09567   -0.54967      4.336
             9       C                  -2.760     -2.622      1.967   -1.34287   -1.19157    0.51683      4.285
             8       C                  -3.615      0.264      0.936   -2.19283    0.07771    0.20334      3.744
             4       N                  -2.196     -0.237      1.064    1.26570   -1.25871    0.23397      2.452



       FINAL  POINT  AND  DERIVATIVES

   PARAMETER     ATOM    TYPE            VALUE        GRADIENT
      1          1  O    CARTESIAN X     1.783101     -6.246037  KCAL/ANGSTROM
      2          1  O    CARTESIAN Y     1.816101    -12.994137  KCAL/ANGSTROM
      3          1  O    CARTESIAN Z    -1.341400      7.810781  KCAL/ANGSTROM
      4          2  C    CARTESIAN X     1.353306      9.582233  KCAL/ANGSTROM
      5          2  C    CARTESIAN Y     0.819379     26.358110  KCAL/ANGSTROM
      6          2  C    CARTESIAN Z    -0.820742    -15.240124  KCAL/ANGSTROM
      7          3  N    CARTESIAN X     2.079318      2.858671  KCAL/ANGSTROM
      8          3  N    CARTESIAN Y    -0.307460     -7.586890  KCAL/ANGSTROM
      9          3  N    CARTESIAN Z    -0.358422      5.250468  KCAL/ANGSTROM
     10          4  N    CARTESIAN X     1.265701     -2.196166  KCAL/ANGSTROM
     11          4  N    CARTESIAN Y    -1.258708     -0.236796  KCAL/ANGSTROM
     12          4  N    CARTESIAN Z     0.233966      1.064427  KCAL/ANGSTROM
     13          5  C    CARTESIAN X     0.025711      7.665462  KCAL/ANGSTROM
     14          5  C    CARTESIAN Y    -0.807128     -3.725362  KCAL/ANGSTROM
     15          5  C    CARTESIAN Z     0.103532      0.433146  KCAL/ANGSTROM
     16          6  N    CARTESIAN X     0.020175     -8.522180  KCAL/ANGSTROM
     17          6  N    CARTESIAN Y     0.434641      0.629580  KCAL/ANGSTROM
     18          6  N    CARTESIAN Z    -0.581641     -0.110417  KCAL/ANGSTROM
     19          7  C    CARTESIAN X    -1.279620      4.324752  KCAL/ANGSTROM
     20          7  C    CARTESIAN Y     1.095670     -0.310997  KCAL/ANGSTROM
     21          7  C    CARTESIAN Z    -0.549672      0.045547  KCAL/ANGSTROM
     22          8  C    CARTESIAN X    -2.192829     -3.615173  KCAL/ANGSTROM
     23          8  C    CARTESIAN Y     0.077711      0.264170  KCAL/ANGSTROM
     24          8  C    CARTESIAN Z     0.203337      0.935897  KCAL/ANGSTROM
     25          9  C    CARTESIAN X    -1.342873     -2.760250  KCAL/ANGSTROM
     26          9  C    CARTESIAN Y    -1.191573     -2.621835  KCAL/ANGSTROM
     27          9  C    CARTESIAN Z     0.516828      1.967459  KCAL/ANGSTROM
     28         10  H    CARTESIAN X     3.070561     -7.612546  KCAL/ANGSTROM
     29         10  H    CARTESIAN Y    -0.417958     -0.373083  KCAL/ANGSTROM
     30         10  H    CARTESIAN Z    -0.269332     -0.339240  KCAL/ANGSTROM
     31         11  H    CARTESIAN X    -1.631716      0.945161  KCAL/ANGSTROM
     32         11  H    CARTESIAN Y     1.284914     -0.527582  KCAL/ANGSTROM
     33         11  H    CARTESIAN Z    -1.587589      0.269132  KCAL/ANGSTROM
     34         12  H    CARTESIAN X    -1.220491      0.779115  KCAL/ANGSTROM
     35         12  H    CARTESIAN Y     2.073703     -0.678534  KCAL/ANGSTROM
     36         12  H    CARTESIAN Z    -0.027388     -0.384038  KCAL/ANGSTROM
     37         13  H    CARTESIAN X    -2.577114      1.011489  KCAL/ANGSTROM
     38         13  H    CARTESIAN Y     0.522476     -0.469912  KCAL/ANGSTROM
     39         13  H    CARTESIAN Z     1.135500     -0.712085  KCAL/ANGSTROM
     40         14  H    CARTESIAN X    -3.070561      1.304383  KCAL/ANGSTROM
     41         14  H    CARTESIAN Y    -0.183894      0.002799  KCAL/ANGSTROM
     42         14  H    CARTESIAN Z    -0.407624      0.487779  KCAL/ANGSTROM
     43         15  H    CARTESIAN X    -1.705532      1.512106  KCAL/ANGSTROM
     44         15  H    CARTESIAN Y    -2.073703      1.555025  KCAL/ANGSTROM
     45         15  H    CARTESIAN Z    -0.047569     -0.162360  KCAL/ANGSTROM
     46         16  H    CARTESIAN X    -1.396187      0.968975  KCAL/ANGSTROM
     47         16  H    CARTESIAN Y    -1.467335      0.715441  KCAL/ANGSTROM
     48         16  H    CARTESIAN Z     1.587589     -1.316374  KCAL/ANGSTROM




   ATOM   CHEMICAL          X               Y               Z
  NUMBER   SYMBOL      (ANGSTROMS)     (ANGSTROMS)     (ANGSTROMS)

     1       O          1.78310125  *   1.81610095  *  -1.34140032  *
     2       C          1.35330614  *   0.81937853  *  -0.82074162  *
     3       N          2.07931831  *  -0.30745969  *  -0.35842164  *
     4       N          1.26570145  *  -1.25870806  *   0.23396627  *
     5       C          0.02571127  *  -0.80712751  *   0.10353176  *
     6       N          0.02017531  *   0.43464112  *  -0.58164066  *
     7       C         -1.27962039  *   1.09566982  *  -0.54967237  *
     8       C         -2.19282899  *   0.07771065  *   0.20333706  *
     9       C         -1.34287346  *  -1.19157333  *   0.51682833  *
    10       H          3.07056102  *  -0.41795784  *  -0.26933185  *
    11       H         -1.63171622  *   1.28491370  *  -1.58758879  *
    12       H         -1.22049064  *   2.07370291  *  -0.02738784  *
    13       H         -2.57711439  *   0.52247613  *   1.13550028  *
    14       H         -3.07056102  *  -0.18389389  *  -0.40762357  *
    15       H         -1.70553191  *  -2.07370291  *  -0.04756889  *
    16       H         -1.39618664  *  -1.46733517  *   1.58758879  *

                             CARTESIAN COORDINATES

   1    O        1.783101251     1.816100946    -1.341400317
   2    C        1.353306138     0.819378533    -0.820741621
   3    N        2.079318311    -0.307459691    -0.358421639
   4    N        1.265701446    -1.258708055     0.233966268
   5    C        0.025711265    -0.807127511     0.103531763
   6    N        0.020175308     0.434641118    -0.581640664
   7    C       -1.279620392     1.095669818    -0.549672368
   8    C       -2.192828988     0.077710645     0.203337060
   9    C       -1.342873457    -1.191573326     0.516828329
  10    H        3.070561017    -0.417957842    -0.269331846
  11    H       -1.631716216     1.284913703    -1.587588792
  12    H       -1.220490638     2.073702910    -0.027387838
  13    H       -2.577114389     0.522476135     1.135500279
  14    H       -3.070561017    -0.183893893    -0.407623575
  15    H       -1.705531915    -2.073702910    -0.047568895
  16    H       -1.396186639    -1.467335173     1.587588792


           Empirical Formula: C5 H7 N3 O  =    16 atoms



      MOLECULAR POINT GROUP   :   C1  


                  EIGENVALUES  
 -41.22248 -36.43110 -32.12628 -30.26119 -28.68694 -25.52117 -22.75669 -21.05953
 -20.82797 -17.95349 -17.73327 -16.79060 -16.27536 -15.88294 -14.75771 -14.65710
 -13.72930 -13.48576 -13.39382 -13.18662 -12.48501 -11.46484 -10.82114  -9.67580
   0.12578   0.28913   0.77698   1.48755   2.26599   2.76105   3.09965   3.62128
   4.01947   4.04016   4.71864   4.82436   5.00125   5.14690   5.56540   5.63515
   5.85607   6.14455   6.20042


              NET ATOMIC CHARGES AND DIPOLE CONTRIBUTIONS

  ATOM NO.   TYPE          CHARGE      No. of ELECS.   s-Pop       p-Pop       
    1          O          -0.599555        6.5996     1.87347     4.72608
    2          C           0.671408        3.3286     1.03079     2.29780
    3          N          -0.400807        5.4008     1.55658     3.84422
    4          N          -0.322336        5.3223     1.79111     3.53122
    5          C           0.259556        3.7404     1.09081     2.64963
    6          N          -0.464180        5.4642     1.58294     3.88124
    7          C          -0.043942        4.0439     1.07855     2.96539
    8          C          -0.281410        4.2814     1.07514     3.20627
    9          C          -0.270577        4.2706     1.06150     3.20908
   10          H           0.386382        0.6136     0.61362
   11          H           0.171132        0.8289     0.82887
   12          H           0.169930        0.8301     0.83007
   13          H           0.168481        0.8315     0.83152
   14          H           0.170747        0.8293     0.82925
   15          H           0.192665        0.8073     0.80734
   16          H           0.192507        0.8075     0.80749
 DIPOLE           X         Y         Z       TOTAL
 POINT-CHG.    -5.879    -1.841     2.321     6.583
 HYBRID         0.487     0.618    -0.245     0.824
 SUM           -5.392    -1.223     2.075     5.906


          ATOMIC ORBITAL ELECTRON POPULATIONS

     Atom    s        px        py        pz   
    1  O   1.87347   1.75813   1.37475   1.59320
    2  C   1.03079   0.74626   0.75542   0.79613
    3  N   1.55658   1.15829   1.15995   1.52598
    4  N   1.79111   1.06692   1.19476   1.26955
    5  C   1.09081   0.92031   0.83071   0.89861
    6  N   1.58294   1.13696   1.21613   1.52816
    7  C   1.07855   0.78261   1.03699   1.14579
    8  C   1.07514   1.06946   0.98856   1.14824
    9  C   1.06150   0.94060   1.08560   1.18288
   10  H   0.61362
   11  H   0.82887
   12  H   0.83007
   13  H   0.83152
   14  H   0.82925
   15  H   0.80734
   16  H   0.80749

 **********************
 *                    *
 * JOB ENDED NORMALLY *
 *                    *
 **********************



 TOTAL JOB TIME:             0.88 SECONDS

 == MOPAC DONE ==
