 *******************************************************************************
 **                                                                           **
 **                              MOPAC v23.2                                  **
 **                                                                           **
 *******************************************************************************
 **          Digital Object Identifier (DOI): 10.5281/zenodo.6511958          **
 **    Visit the DOI location for information on how to cite this program.    **
 *******************************************************************************

                              PM7 CALCULATION RESULTS

 *******************************************************************************
 *  CALCULATION DONE: (MAX THREADS = 40)             Fri Sep 19 21:28:56 2025  *
 *  PM7        - The PM7 Hamiltonian to be used
 *
 *
 *
 *                 CHARGE ON SYSTEM = +1
 *
 *
 *
 *  1SCF       - DO 1 SCF AND THEN STOP 
 *  T=         - A TIME OF 172800.0 SECONDS REQUESTED
 *  DUMP=N     - RESTART FILE WRITTEN EVERY 7200.0 SECONDS REQUESTED
 *  RELSCF     - DEFAULT SCF CRITERION MULTIPLIED BY 0.0001
 *              (DEFAULT SCF CRITERION = 0.00010)
 *  GRADIENTS  - ALL GRADIENTS TO BE PRINTED
 *  DISP       - PRINT DISPERSION AND HYDROGEN BOND ENERGIES
 *******************************************************************************
PM7 1SCF GRADIENTS DISP RELSCF=0.0001 CHARGE=1
 Title: ASE calculation

   ATOM   CHEMICAL          X               Y               Z
  NUMBER   SYMBOL      (ANGSTROMS)     (ANGSTROMS)     (ANGSTROMS)

     1       C         -1.73391936  *  -0.10704164  *  -0.30760792  *
     2       C         -0.81454540  *   0.10645019  *   0.95131825  *
     3       C         -0.06376388  *   1.35879997  *   0.76658667  *
     4       O          0.97519968  *   1.48447086  *   0.04980719  *
     5       C          1.56448816  *   0.35934656  *  -0.69746205  *
     6       C          1.26624040  *  -0.97697212  *  -0.10517736  *
     7       C          0.14198544  *  -1.09047016  *   0.90419655  *
     8       N          0.02298346  *  -1.74707163  *  -0.43248892  *
     9       C         -0.99677594  *  -1.09908197  *  -1.13865565  *
    10       H         -1.97872871  *   0.82297833  *  -0.85110735  *
    11       H         -2.72377544  *  -0.52020489  *   0.01085786  *
    12       H         -1.43127588  *   0.10450588  *   1.88740015  *
    13       H         -0.34567056  *   2.32790849  *   1.23051057  *
    14       H          1.18786457  *   0.49457071  *  -1.73662879  *
    15       H          2.64482639  *   0.64055925  *  -0.65135936  *
    16       H          2.15395584  *  -1.64176220  *  -0.01111501  *
    17       H          0.21734348  *  -1.72028128  *   1.79729190  *
    18       H         -1.27388190  *  -1.42459716  *  -2.12522555  *



          CARTESIAN COORDINATES 

    NO.       ATOM           X           Y           Z

     1         C         -1.7339     -0.1070     -0.3076
     2         C         -0.8145      0.1065      0.9513
     3         C         -0.0638      1.3588      0.7666
     4         O          0.9752      1.4845      0.0498
     5         C          1.5645      0.3593     -0.6975
     6         C          1.2662     -0.9770     -0.1052
     7         C          0.1420     -1.0905      0.9042
     8         N          0.0230     -1.7471     -0.4325
     9         C         -0.9968     -1.0991     -1.1387
    10         H         -1.9787      0.8230     -0.8511
    11         H         -2.7238     -0.5202      0.0109
    12         H         -1.4313      0.1045      1.8874
    13         H         -0.3457      2.3279      1.2305
    14         H          1.1879      0.4946     -1.7366
    15         H          2.6448      0.6406     -0.6514
    16         H          2.1540     -1.6418     -0.0111
    17         H          0.2173     -1.7203      1.7973
    18         H         -1.2739     -1.4246     -2.1252

 General Reference for PM7:
 "Optimization of Parameters for Semiempirical Methods VI: More Modifications to the 
 NDDO Approximations and Re-optimization of Parameters", J. J. P. Stewart, J. Mol. Mod., 1:32, 19 (2013)
 https://link.springer.com/article/10.1007/s00894-012-1667-x

           Empirical Formula: C7 H9 N O  =    18 atoms



      MOLECULAR POINT GROUP   :   C1  


          UHF CALCULATION, NO. OF ALPHA ELECTRONS =   24
                           NO. OF BETA  ELECTRONS =   23
  SCF CRITERION =    0.1000E-07

 -------------------------------------------------------------------------------
 PM7 1SCF GRADIENTS DISP RELSCF=0.0001 CHARGE=1
 Title: ASE calculation



     1SCF WAS SPECIFIED, SO BFGS WAS NOT USED                 
     SCF FIELD WAS ACHIEVED                                   


                              PM7 CALCULATION
                                                       MOPAC v23.2 Linux
                                                       Fri Sep 19 21:28:57 2025




          FINAL HEAT OF FORMATION =        216.37822 KCAL/MOL =     905.32649 KJ/MOL

          TOTAL ENERGY            =     -33491.23134 KCAL/MOL = ELECTRONIC ENERGY + CORE-CORE REPULSION
          ENERGY OF ATOMS         =      33709.16394 KCAL/MOL
                              SUM =        217.93260 KCAL/MOL
          DISPERSION ENERGY       =         -1.55438 KCAL/MOL
                              SUM =        216.37822 KCAL/MOL = FINAL HEAT OF FORMATION



          TOTAL ENERGY            =      -1452.31725 EV
          ELECTRONIC ENERGY       =      -7326.96198 EV 
          CORE-CORE REPULSION     =       5874.64473 EV
          COSMO AREA              =        146.26 SQUARE ANGSTROMS
          COSMO VOLUME            =        146.30 CUBIC ANGSTROMS

          GRADIENT NORM           =          0.90164          =       0.21252 PER ATOM
          IONIZATION POTENTIAL    =         13.066132 EV
          ALPHA SOMO LUMO (EV)    =        -13.066 -6.505
          BETA  SOMO LUMO (EV)    =        -14.806 -6.500
          NO. OF ALPHA ELECTRONS  =         24
          NO. OF BETA  ELECTRONS  =         23
          MOLECULAR WEIGHT        =        123.1542         POINT GROUP:  C1  

          MOLECULAR DIMENSIONS (Angstroms)

            Atom       Atom       Distance
            H    15    H    11     5.53243
            H    13    H    18     4.95470
            H    10    H    17     4.08198


          SCF CALCULATIONS        =          1

          WALL-CLOCK TIME         =      0.781 SECONDS
          COMPUTATION TIME        =      0.649 SECONDS

          LARGEST ATOMIC GRADIENTS

          Atom     Label                     Cartesian Gradients           Cartesian Coordinates       |Gradient|
                                           X          Y          Z        X          Y          Z

            17       H                   0.362      0.080     -0.176    0.21734   -1.72028    1.79729      0.410
             2       C                  -0.212      0.174     -0.110   -0.81455    0.10645    0.95132      0.295
            10       H                   0.223     -0.157     -0.034   -1.97873    0.82298   -0.85111      0.275
             6       C                  -0.038      0.110      0.247    1.26624   -0.97697   -0.10518      0.273
             7       C                  -0.226      0.125     -0.042    0.14199   -1.09047    0.90420      0.262
             3       C                   0.157     -0.009      0.148   -0.06376    1.35880    0.76659      0.216
            11       H                  -0.178      0.076      0.095   -2.72378   -0.52020    0.01086      0.215
            18       H                  -0.067      0.193      0.046   -1.27388   -1.42460   -2.12523      0.209
            14       H                   0.067      0.173     -0.015    1.18786    0.49457   -1.73663      0.186
             1       C                  -0.110     -0.139      0.013   -1.73392   -0.10704   -0.30761      0.178



       FINAL  POINT  AND  DERIVATIVES

   PARAMETER     ATOM    TYPE            VALUE        GRADIENT
      1          1  C    CARTESIAN X    -1.733919     -0.109646  KCAL/ANGSTROM
      2          1  C    CARTESIAN Y    -0.107042     -0.139227  KCAL/ANGSTROM
      3          1  C    CARTESIAN Z    -0.307608      0.012984  KCAL/ANGSTROM
      4          2  C    CARTESIAN X    -0.814545     -0.211873  KCAL/ANGSTROM
      5          2  C    CARTESIAN Y     0.106450      0.173948  KCAL/ANGSTROM
      6          2  C    CARTESIAN Z     0.951318     -0.109611  KCAL/ANGSTROM
      7          3  C    CARTESIAN X    -0.063764      0.157235  KCAL/ANGSTROM
      8          3  C    CARTESIAN Y     1.358800     -0.008942  KCAL/ANGSTROM
      9          3  C    CARTESIAN Z     0.766587      0.148399  KCAL/ANGSTROM
     10          4  O    CARTESIAN X     0.975200     -0.067861  KCAL/ANGSTROM
     11          4  O    CARTESIAN Y     1.484471     -0.033596  KCAL/ANGSTROM
     12          4  O    CARTESIAN Z     0.049807     -0.133563  KCAL/ANGSTROM
     13          5  C    CARTESIAN X     1.564488     -0.032862  KCAL/ANGSTROM
     14          5  C    CARTESIAN Y     0.359347     -0.081891  KCAL/ANGSTROM
     15          5  C    CARTESIAN Z    -0.697462     -0.006667  KCAL/ANGSTROM
     16          6  C    CARTESIAN X     1.266240     -0.038212  KCAL/ANGSTROM
     17          6  C    CARTESIAN Y    -0.976972      0.110360  KCAL/ANGSTROM
     18          6  C    CARTESIAN Z    -0.105177      0.246825  KCAL/ANGSTROM
     19          7  C    CARTESIAN X     0.141985     -0.225914  KCAL/ANGSTROM
     20          7  C    CARTESIAN Y    -1.090470      0.124970  KCAL/ANGSTROM
     21          7  C    CARTESIAN Z     0.904197     -0.041935  KCAL/ANGSTROM
     22          8  N    CARTESIAN X     0.022983      0.060035  KCAL/ANGSTROM
     23          8  N    CARTESIAN Y    -1.747072     -0.147786  KCAL/ANGSTROM
     24          8  N    CARTESIAN Z    -0.432489      0.028939  KCAL/ANGSTROM
     25          9  C    CARTESIAN X    -0.996776      0.156234  KCAL/ANGSTROM
     26          9  C    CARTESIAN Y    -1.099082     -0.040102  KCAL/ANGSTROM
     27          9  C    CARTESIAN Z    -1.138656     -0.071154  KCAL/ANGSTROM
     28         10  H    CARTESIAN X    -1.978729      0.222994  KCAL/ANGSTROM
     29         10  H    CARTESIAN Y     0.822978     -0.157495  KCAL/ANGSTROM
     30         10  H    CARTESIAN Z    -0.851107     -0.034272  KCAL/ANGSTROM
     31         11  H    CARTESIAN X    -2.723775     -0.178131  KCAL/ANGSTROM
     32         11  H    CARTESIAN Y    -0.520205      0.075595  KCAL/ANGSTROM
     33         11  H    CARTESIAN Z     0.010858      0.094818  KCAL/ANGSTROM
     34         12  H    CARTESIAN X    -1.431276     -0.032597  KCAL/ANGSTROM
     35         12  H    CARTESIAN Y     0.104506     -0.051783  KCAL/ANGSTROM
     36         12  H    CARTESIAN Z     1.887400      0.031422  KCAL/ANGSTROM
     37         13  H    CARTESIAN X    -0.345671     -0.018821  KCAL/ANGSTROM
     38         13  H    CARTESIAN Y     2.327908     -0.121196  KCAL/ANGSTROM
     39         13  H    CARTESIAN Z     1.230511     -0.037721  KCAL/ANGSTROM
     40         14  H    CARTESIAN X     1.187865      0.066758  KCAL/ANGSTROM
     41         14  H    CARTESIAN Y     0.494571      0.172573  KCAL/ANGSTROM
     42         14  H    CARTESIAN Z    -1.736629     -0.014505  KCAL/ANGSTROM
     43         15  H    CARTESIAN X     2.644826     -0.012475  KCAL/ANGSTROM
     44         15  H    CARTESIAN Y     0.640559     -0.156289  KCAL/ANGSTROM
     45         15  H    CARTESIAN Z    -0.651359      0.007175  KCAL/ANGSTROM
     46         16  H    CARTESIAN X     2.153956     -0.029717  KCAL/ANGSTROM
     47         16  H    CARTESIAN Y    -1.641762      0.008583  KCAL/ANGSTROM
     48         16  H    CARTESIAN Z    -0.011115      0.008529  KCAL/ANGSTROM
     49         17  H    CARTESIAN X     0.217343      0.362142  KCAL/ANGSTROM
     50         17  H    CARTESIAN Y    -1.720281      0.079721  KCAL/ANGSTROM
     51         17  H    CARTESIAN Z     1.797292     -0.175942  KCAL/ANGSTROM
     52         18  H    CARTESIAN X    -1.273882     -0.067295  KCAL/ANGSTROM
     53         18  H    CARTESIAN Y    -1.424597      0.192553  KCAL/ANGSTROM
     54         18  H    CARTESIAN Z    -2.125226      0.046271  KCAL/ANGSTROM




   ATOM   CHEMICAL          X               Y               Z
  NUMBER   SYMBOL      (ANGSTROMS)     (ANGSTROMS)     (ANGSTROMS)

     1       C         -1.73391936  *  -0.10704164  *  -0.30760792  *
     2       C         -0.81454540  *   0.10645019  *   0.95131825  *
     3       C         -0.06376388  *   1.35879997  *   0.76658667  *
     4       O          0.97519968  *   1.48447086  *   0.04980719  *
     5       C          1.56448816  *   0.35934656  *  -0.69746205  *
     6       C          1.26624040  *  -0.97697212  *  -0.10517736  *
     7       C          0.14198544  *  -1.09047016  *   0.90419655  *
     8       N          0.02298346  *  -1.74707163  *  -0.43248892  *
     9       C         -0.99677594  *  -1.09908197  *  -1.13865565  *
    10       H         -1.97872871  *   0.82297833  *  -0.85110735  *
    11       H         -2.72377544  *  -0.52020489  *   0.01085786  *
    12       H         -1.43127588  *   0.10450588  *   1.88740015  *
    13       H         -0.34567056  *   2.32790849  *   1.23051057  *
    14       H          1.18786457  *   0.49457071  *  -1.73662879  *
    15       H          2.64482639  *   0.64055925  *  -0.65135936  *
    16       H          2.15395584  *  -1.64176220  *  -0.01111501  *
    17       H          0.21734348  *  -1.72028128  *   1.79729190  *
    18       H         -1.27388190  *  -1.42459716  *  -2.12522555  *

                             CARTESIAN COORDINATES

   1    C       -1.733919361    -0.107041643    -0.307607923
   2    C       -0.814545400     0.106450189     0.951318254
   3    C       -0.063763881     1.358799973     0.766586667
   4    O        0.975199677     1.484470860     0.049807192
   5    C        1.564488164     0.359346556    -0.697462045
   6    C        1.266240397    -0.976972117    -0.105177358
   7    C        0.141985444    -1.090470162     0.904196553
   8    N        0.022983459    -1.747071628    -0.432488919
   9    C       -0.996775945    -1.099081972    -1.138655653
  10    H       -1.978728715     0.822978328    -0.851107346
  11    H       -2.723775436    -0.520204886     0.010857861
  12    H       -1.431275883     0.104505881     1.887400154
  13    H       -0.345670561     2.327908487     1.230510574
  14    H        1.187864569     0.494570706    -1.736628788
  15    H        2.644826391     0.640559247    -0.651359360
  16    H        2.153955841    -1.641762201    -0.011115012
  17    H        0.217343477    -1.720281282     1.797291899
  18    H       -1.273881901    -1.424597157    -2.125225552


           Empirical Formula: C7 H9 N O  =    18 atoms



      MOLECULAR POINT GROUP   :   C1  


          ALPHA EIGENVALUES  
 -41.74275 -38.63946 -33.75439 -31.88284 -30.90469 -28.31924 -26.91765 -24.79480
 -23.84179 -23.02210 -22.75662 -21.77401 -21.24477 -20.34315 -19.94483 -19.29118
 -18.46344 -18.26842 -17.73225 -17.63286 -17.12515 -16.85269 -15.04680 -13.06613
  -6.50527  -4.97342  -3.02262  -2.69994  -2.32028  -2.05107  -1.96933  -1.55878
  -1.37850  -1.14928  -0.79134  -0.40750  -0.05038   0.21277   0.39085   0.44254
   0.64885   1.13418   1.22475   1.43313   1.96753


           BETA EIGENVALUES 
 -41.75493 -38.61884 -33.73474 -31.86795 -30.78835 -28.28598 -26.87397 -24.65083
 -23.81466 -22.99189 -22.69007 -21.69060 -21.17800 -20.28337 -19.83272 -19.18101
 -18.33895 -18.12994 -17.66502 -17.57589 -16.97401 -16.74503 -14.80642  -6.49957
  -4.99684  -4.18522  -2.98230  -2.57979  -2.27254  -1.99622  -1.81280  -1.53231
  -1.33845  -1.08847  -0.74791  -0.13495  -0.02371   0.23744   0.40079   0.58722
   0.79724   1.22596   1.26149   1.49119   2.15923


              NET ATOMIC CHARGES AND DIPOLE CONTRIBUTIONS

  ATOM NO.   TYPE          CHARGE      No. of ELECS.   s-Pop       p-Pop       
    1          C          -0.272564        4.2726     1.07464     3.19792
    2          C          -0.257179        4.2572     1.08486     3.17232
    3          C           0.358927        3.6411     1.20791     2.43316
    4          O          -0.124384        6.1244     1.85241     4.27198
    5          C          -0.076201        4.0762     1.12677     2.94943
    6          C          -0.123692        4.1237     1.08031     3.04338
    7          C          -0.076645        4.0766     1.08493     2.99172
    8          N          -0.243661        5.2437     1.73685     3.50681
    9          C          -0.084251        4.0843     1.12103     2.96323
   10          H           0.176139        0.8239     0.82386
   11          H           0.212609        0.7874     0.78739
   12          H           0.223846        0.7762     0.77615
   13          H           0.223747        0.7763     0.77625
   14          H           0.199468        0.8005     0.80053
   15          H           0.208175        0.7918     0.79183
   16          H           0.230937        0.7691     0.76906
   17          H           0.218482        0.7815     0.78152
   18          H           0.206248        0.7938     0.79375
 DIPOLE           X         Y         Z       TOTAL
 POINT-CHG.     0.093     4.403     1.615     4.691
 HYBRID        -0.081     0.999     0.092     1.007
 SUM            0.012     5.402     1.707     5.666


          ATOMIC ORBITAL ELECTRON POPULATIONS

     Atom    s        px        py        pz   
    1  C   1.07464   1.09664   1.12694   0.97433
    2  C   1.08486   1.05754   0.97258   1.14220
    3  C   1.20791   0.72930   1.04741   0.65646
    4  O   1.85241   1.35944   1.47261   1.43993
    5  C   1.12677   1.08012   0.85824   1.01107
    6  C   1.08031   0.99728   0.99238   1.05372
    7  C   1.08493   1.00059   0.98818   1.00294
    8  N   1.73685   1.08812   1.34702   1.07167
    9  C   1.12103   0.94939   0.97174   1.04210
   10  H   0.82386
   11  H   0.78739
   12  H   0.77615
   13  H   0.77625
   14  H   0.80053
   15  H   0.79183
   16  H   0.76906
   17  H   0.78152
   18  H   0.79375


                    (SZ)    =    0.500000
                    (S**2)  =    0.758495


          ATOMIC ORBITAL SPIN POPULATIONS

    Atom   Total    s     px     py     pz   
         Atomic
    1  C -0.0381 -0.006 -0.011 -0.013 -0.008
    2  C  0.0036  0.000  0.002  0.000  0.001
    3  C -0.0001 -0.000 -0.001  0.000  0.001
    4  O  0.0065  0.000  0.001  0.005  0.001
    5  C -0.0045 -0.001  0.001 -0.004 -0.001
    6  C  0.1500  0.015  0.045  0.027  0.063
    7  C -0.0045 -0.001 -0.006  0.000  0.002
    8  N -0.0526  0.015 -0.039 -0.022 -0.007
    9  C  0.9236  0.024  0.303  0.456  0.141
   10  H  0.0167  0.017
   11  H  0.0257  0.026
   12  H -0.0005 -0.000
   13  H  0.0001  0.000
   14  H  0.0012  0.001
   15  H  0.0013  0.001
   16  H -0.0043 -0.004
   17  H -0.0002 -0.000
   18  H -0.0240 -0.024

 **********************
 *                    *
 * JOB ENDED NORMALLY *
 *                    *
 **********************



 TOTAL JOB TIME:             1.19 SECONDS

 == MOPAC DONE ==
