 *******************************************************************************
 **                                                                           **
 **                              MOPAC v23.2                                  **
 **                                                                           **
 *******************************************************************************
 **          Digital Object Identifier (DOI): 10.5281/zenodo.6511958          **
 **    Visit the DOI location for information on how to cite this program.    **
 *******************************************************************************

                              PM7 CALCULATION RESULTS

 *******************************************************************************
 *  CALCULATION DONE: (MAX THREADS = 40)             Fri Sep 19 21:28:07 2025  *
 *  PM7        - The PM7 Hamiltonian to be used
 *
 *
 *
 *                 CHARGE ON SYSTEM = +1
 *
 *
 *
 *  1SCF       - DO 1 SCF AND THEN STOP 
 *  T=         - A TIME OF 172800.0 SECONDS REQUESTED
 *  DUMP=N     - RESTART FILE WRITTEN EVERY 7200.0 SECONDS REQUESTED
 *  RELSCF     - DEFAULT SCF CRITERION MULTIPLIED BY 0.0001
 *              (DEFAULT SCF CRITERION = 0.00010)
 *  GRADIENTS  - ALL GRADIENTS TO BE PRINTED
 *  DISP       - PRINT DISPERSION AND HYDROGEN BOND ENERGIES
 *******************************************************************************
PM7 1SCF GRADIENTS DISP RELSCF=0.0001 CHARGE=1
 Title: ASE calculation

   ATOM   CHEMICAL          X               Y               Z
  NUMBER   SYMBOL      (ANGSTROMS)     (ANGSTROMS)     (ANGSTROMS)

     1       C         -1.88222705  *   1.43835059  *   0.02466437  *
     2       C         -0.68020946  *   0.63990843  *   0.20494394  *
     3       C          0.63746019  *   1.31364297  *   0.23621935  *
     4       O          0.71149171  *   2.51618364  *   0.11277761  *
     5       C          1.80457567  *   0.44722544  *   0.42088940  *
     6       C          1.68155978  *  -0.88387775  *   0.55369723  *
     7       N          0.41777696  *  -1.52285842  *   0.52280748  *
     8       C         -0.73368838  *  -0.80525266  *   0.35550702  *
     9       N         -1.91321678  *  -1.46644095  *   0.33364000  *
    10       H         -1.65545221  *   2.52900041  *  -0.07427582  *
    11       H         -2.44901209  *   1.18594919  *  -0.89376518  *
    12       H         -2.58887683  *   1.37549269  *   0.87623624  *
    13       H          2.78056857  *   0.95324681  *   0.44343899  *
    14       H          2.53123268  *  -1.57214382  *   0.69414973  *
    15       H          0.39670770  *  -2.54023649  *   0.63004678  *
    16       H         -2.78922515  *  -0.96974662  *   0.21160812  *
    17       H         -1.99107754  *  -2.46828317  *   0.43472181  *



          CARTESIAN COORDINATES 

    NO.       ATOM           X           Y           Z

     1         C         -1.8822      1.4384      0.0247
     2         C         -0.6802      0.6399      0.2049
     3         C          0.6375      1.3136      0.2362
     4         O          0.7115      2.5162      0.1128
     5         C          1.8046      0.4472      0.4209
     6         C          1.6816     -0.8839      0.5537
     7         N          0.4178     -1.5229      0.5228
     8         C         -0.7337     -0.8053      0.3555
     9         N         -1.9132     -1.4664      0.3336
    10         H         -1.6555      2.5290     -0.0743
    11         H         -2.4490      1.1859     -0.8938
    12         H         -2.5889      1.3755      0.8762
    13         H          2.7806      0.9532      0.4434
    14         H          2.5312     -1.5721      0.6941
    15         H          0.3967     -2.5402      0.6300
    16         H         -2.7892     -0.9697      0.2116
    17         H         -1.9911     -2.4683      0.4347

 General Reference for PM7:
 "Optimization of Parameters for Semiempirical Methods VI: More Modifications to the 
 NDDO Approximations and Re-optimization of Parameters", J. J. P. Stewart, J. Mol. Mod., 1:32, 19 (2013)
 https://link.springer.com/article/10.1007/s00894-012-1667-x

           Empirical Formula: C6 H8 N2 O  =    17 atoms



      MOLECULAR POINT GROUP   :   Cs  


          UHF CALCULATION, NO. OF ALPHA ELECTRONS =   24
                           NO. OF BETA  ELECTRONS =   23
  SCF CRITERION =    0.1000E-07

 -------------------------------------------------------------------------------
 PM7 1SCF GRADIENTS DISP RELSCF=0.0001 CHARGE=1
 Title: ASE calculation



     1SCF WAS SPECIFIED, SO BFGS WAS NOT USED                 
     SCF FIELD WAS ACHIEVED                                   


                              PM7 CALCULATION
                                                       MOPAC v23.2 Linux
                                                       Fri Sep 19 21:28:08 2025




          FINAL HEAT OF FORMATION =        161.15731 KCAL/MOL =     674.28218 KJ/MOL

          TOTAL ENERGY            =     -34702.49545 KCAL/MOL = ELECTRONIC ENERGY + CORE-CORE REPULSION
          ENERGY OF ATOMS         =      34865.63902 KCAL/MOL
                              SUM =        163.14356 KCAL/MOL
          DISPERSION ENERGY       =         -1.98625 KCAL/MOL
                              SUM =        161.15731 KCAL/MOL = FINAL HEAT OF FORMATION



          TOTAL ENERGY            =      -1504.84263 EV
          ELECTRONIC ENERGY       =      -6992.81367 EV 
          CORE-CORE REPULSION     =       5487.97104 EV
          COSMO AREA              =        154.78 SQUARE ANGSTROMS
          COSMO VOLUME            =        150.31 CUBIC ANGSTROMS

          GRADIENT NORM           =          0.99054          =       0.24024 PER ATOM
          IONIZATION POTENTIAL    =         14.193664 EV
          ALPHA SOMO LUMO (EV)    =        -14.401 -5.328
          BETA  SOMO LUMO (EV)    =        -14.194 -6.952
          NO. OF ALPHA ELECTRONS  =         24
          NO. OF BETA  ELECTRONS  =         23
          MOLECULAR WEIGHT        =        124.1420         POINT GROUP:  Cs  

          MOLECULAR DIMENSIONS (Angstroms)

            Atom       Atom       Distance
            H    14    H    10     5.91085
            H    17    H    13     5.78460
            H    12    H    11     1.78561


          SCF CALCULATIONS        =          1

          WALL-CLOCK TIME         =      0.922 SECONDS
          COMPUTATION TIME        =      0.826 SECONDS

          LARGEST ATOMIC GRADIENTS

          Atom     Label                     Cartesian Gradients           Cartesian Coordinates       |Gradient|
                                           X          Y          Z        X          Y          Z

            14       H                   0.214      0.382     -0.024    2.53123   -1.57214    0.69415      0.438
             2       C                   0.192      0.226     -0.009   -0.68021    0.63991    0.20494      0.297
             3       C                   0.195     -0.198      0.036    0.63746    1.31364    0.23622      0.280
            10       H                   0.166     -0.215      0.032   -1.65545    2.52900   -0.07428      0.274
             4       O                  -0.263     -0.067     -0.014    0.71149    2.51618    0.11278      0.272
            13       H                  -0.101      0.236     -0.036    2.78057    0.95325    0.44344      0.259
            16       H                  -0.096      0.222     -0.034   -2.78923   -0.96975    0.21161      0.244
             5       C                   0.217     -0.107      0.027    1.80458    0.44723    0.42089      0.243
             6       C                  -0.130     -0.185      0.010    1.68156   -0.88388    0.55370      0.226
            17       H                  -0.181     -0.121     -0.001   -1.99108   -2.46828    0.43472      0.218



       FINAL  POINT  AND  DERIVATIVES

   PARAMETER     ATOM    TYPE            VALUE        GRADIENT
      1          1  C    CARTESIAN X    -1.882227     -0.140310  KCAL/ANGSTROM
      2          1  C    CARTESIAN Y     1.438351      0.058551  KCAL/ANGSTROM
      3          1  C    CARTESIAN Z     0.024664     -0.016780  KCAL/ANGSTROM
      4          2  C    CARTESIAN X    -0.680209      0.192119  KCAL/ANGSTROM
      5          2  C    CARTESIAN Y     0.639908      0.226075  KCAL/ANGSTROM
      6          2  C    CARTESIAN Z     0.204944     -0.008801  KCAL/ANGSTROM
      7          3  C    CARTESIAN X     0.637460      0.195162  KCAL/ANGSTROM
      8          3  C    CARTESIAN Y     1.313643     -0.197518  KCAL/ANGSTROM
      9          3  C    CARTESIAN Z     0.236219      0.035992  KCAL/ANGSTROM
     10          4  O    CARTESIAN X     0.711492     -0.262969  KCAL/ANGSTROM
     11          4  O    CARTESIAN Y     2.516184     -0.066767  KCAL/ANGSTROM
     12          4  O    CARTESIAN Z     0.112778     -0.013538  KCAL/ANGSTROM
     13          5  C    CARTESIAN X     1.804576      0.216501  KCAL/ANGSTROM
     14          5  C    CARTESIAN Y     0.447225     -0.107168  KCAL/ANGSTROM
     15          5  C    CARTESIAN Z     0.420889      0.027178  KCAL/ANGSTROM
     16          6  C    CARTESIAN X     1.681560     -0.129830  KCAL/ANGSTROM
     17          6  C    CARTESIAN Y    -0.883878     -0.185049  KCAL/ANGSTROM
     18          6  C    CARTESIAN Z     0.553697      0.010007  KCAL/ANGSTROM
     19          7  N    CARTESIAN X     0.417777     -0.159332  KCAL/ANGSTROM
     20          7  N    CARTESIAN Y    -1.522858      0.004143  KCAL/ANGSTROM
     21          7  N    CARTESIAN Z     0.522807     -0.011737  KCAL/ANGSTROM
     22          8  C    CARTESIAN X    -0.733688     -0.087894  KCAL/ANGSTROM
     23          8  C    CARTESIAN Y    -0.805253      0.080795  KCAL/ANGSTROM
     24          8  C    CARTESIAN Z     0.355507     -0.015307  KCAL/ANGSTROM
     25          9  N    CARTESIAN X    -1.913217     -0.148793  KCAL/ANGSTROM
     26          9  N    CARTESIAN Y    -1.466441      0.023780  KCAL/ANGSTROM
     27          9  N    CARTESIAN Z     0.333640     -0.014713  KCAL/ANGSTROM
     28         10  H    CARTESIAN X    -1.655452      0.166277  KCAL/ANGSTROM
     29         10  H    CARTESIAN Y     2.529000     -0.215070  KCAL/ANGSTROM
     30         10  H    CARTESIAN Z    -0.074276      0.032189  KCAL/ANGSTROM
     31         11  H    CARTESIAN X    -2.449012      0.145726  KCAL/ANGSTROM
     32         11  H    CARTESIAN Y     1.185949     -0.132790  KCAL/ANGSTROM
     33         11  H    CARTESIAN Z    -0.893765     -0.075886  KCAL/ANGSTROM
     34         12  H    CARTESIAN X    -2.588877      0.134971  KCAL/ANGSTROM
     35         12  H    CARTESIAN Y     1.375493     -0.103943  KCAL/ANGSTROM
     36         12  H    CARTESIAN Z     0.876236      0.129849  KCAL/ANGSTROM
     37         13  H    CARTESIAN X     2.780569     -0.100980  KCAL/ANGSTROM
     38         13  H    CARTESIAN Y     0.953247      0.235594  KCAL/ANGSTROM
     39         13  H    CARTESIAN Z     0.443439     -0.035863  KCAL/ANGSTROM
     40         14  H    CARTESIAN X     2.531233      0.213903  KCAL/ANGSTROM
     41         14  H    CARTESIAN Y    -1.572144      0.381859  KCAL/ANGSTROM
     42         14  H    CARTESIAN Z     0.694150     -0.024195  KCAL/ANGSTROM
     43         15  H    CARTESIAN X     0.396708      0.042351  KCAL/ANGSTROM
     44         15  H    CARTESIAN Y    -2.540236     -0.102820  KCAL/ANGSTROM
     45         15  H    CARTESIAN Z     0.630047      0.016337  KCAL/ANGSTROM
     46         16  H    CARTESIAN X    -2.789225     -0.095611  KCAL/ANGSTROM
     47         16  H    CARTESIAN Y    -0.969747      0.221683  KCAL/ANGSTROM
     48         16  H    CARTESIAN Z     0.211608     -0.033826  KCAL/ANGSTROM
     49         17  H    CARTESIAN X    -1.991078     -0.181289  KCAL/ANGSTROM
     50         17  H    CARTESIAN Y    -2.468283     -0.121354  KCAL/ANGSTROM
     51         17  H    CARTESIAN Z     0.434722     -0.000908  KCAL/ANGSTROM




   ATOM   CHEMICAL          X               Y               Z
  NUMBER   SYMBOL      (ANGSTROMS)     (ANGSTROMS)     (ANGSTROMS)

     1       C         -1.88222705  *   1.43835059  *   0.02466437  *
     2       C         -0.68020946  *   0.63990843  *   0.20494394  *
     3       C          0.63746019  *   1.31364297  *   0.23621935  *
     4       O          0.71149171  *   2.51618364  *   0.11277761  *
     5       C          1.80457567  *   0.44722544  *   0.42088940  *
     6       C          1.68155978  *  -0.88387775  *   0.55369723  *
     7       N          0.41777696  *  -1.52285842  *   0.52280748  *
     8       C         -0.73368838  *  -0.80525266  *   0.35550702  *
     9       N         -1.91321678  *  -1.46644095  *   0.33364000  *
    10       H         -1.65545221  *   2.52900041  *  -0.07427582  *
    11       H         -2.44901209  *   1.18594919  *  -0.89376518  *
    12       H         -2.58887683  *   1.37549269  *   0.87623624  *
    13       H          2.78056857  *   0.95324681  *   0.44343899  *
    14       H          2.53123268  *  -1.57214382  *   0.69414973  *
    15       H          0.39670770  *  -2.54023649  *   0.63004678  *
    16       H         -2.78922515  *  -0.96974662  *   0.21160812  *
    17       H         -1.99107754  *  -2.46828317  *   0.43472181  *

                             CARTESIAN COORDINATES

   1    C       -1.882227047     1.438350587     0.024664375
   2    C       -0.680209456     0.639908432     0.204943937
   3    C        0.637460193     1.313642974     0.236219350
   4    O        0.711491707     2.516183640     0.112777609
   5    C        1.804575672     0.447225437     0.420889397
   6    C        1.681559780    -0.883877753     0.553697229
   7    N        0.417776962    -1.522858419     0.522807482
   8    C       -0.733688376    -0.805252663     0.355507021
   9    N       -1.913216784    -1.466440946     0.333639999
  10    H       -1.655452208     2.529000411    -0.074275824
  11    H       -2.449012086     1.185949194    -0.893765179
  12    H       -2.588876834     1.375492688     0.876236237
  13    H        2.780568570     0.953246810     0.443438991
  14    H        2.531232684    -1.572143821     0.694149731
  15    H        0.396707696    -2.540236493     0.630046776
  16    H       -2.789225153    -0.969746625     0.211608119
  17    H       -1.991077536    -2.468283173     0.434721806


           Empirical Formula: C6 H8 N2 O  =    17 atoms



      MOLECULAR POINT GROUP   :   Cs  


          ALPHA EIGENVALUES  
 -44.01135 -41.75884 -35.95581 -33.37216 -31.82052 -29.63368 -27.10058 -26.22399
 -24.41925 -23.70608 -22.26857 -21.28741 -21.00836 -20.26962 -19.68345 -19.05104
 -18.63511 -18.52183 -18.01431 -17.23870 -17.11364 -14.76591 -14.69956 -14.40082
  -5.32779  -4.57979  -3.93700  -3.21242  -2.66411  -2.28562  -1.33364  -1.13037
  -0.56815  -0.27415  -0.11404   0.15813   0.47402   0.77756   0.93264   0.96312
   1.07728   1.10191   1.77518   2.33527


           BETA EIGENVALUES 
 -43.86988 -41.60121 -35.36090 -33.01430 -31.76520 -29.56243 -26.92567 -26.12512
 -24.36286 -23.63088 -22.16187 -21.19316 -20.54703 -20.16049 -19.53981 -18.64984
 -18.54814 -18.06975 -17.92601 -17.18622 -16.75628 -14.44382 -14.19366  -6.95240
  -4.46076  -4.33556  -3.89489  -3.15684  -2.33350  -2.11643  -1.24885  -1.05228
  -0.45541  -0.16435  -0.08624   0.21707   0.50576   0.83544   1.02234   1.03991
   1.11104   1.15246   1.79460   2.36119


              NET ATOMIC CHARGES AND DIPOLE CONTRIBUTIONS

  ATOM NO.   TYPE          CHARGE      No. of ELECS.   s-Pop       p-Pop       
    1          C          -0.481321        4.4813     1.04714     3.43418
    2          C          -0.038561        4.0386     1.12464     2.91392
    3          C           0.372157        3.6278     1.09197     2.53587
    4          O          -0.260043        6.2600     1.88875     4.37130
    5          C          -0.272176        4.2722     1.10329     3.16889
    6          C           0.066609        3.9334     1.09570     2.83770
    7          N          -0.392623        5.3926     1.52147     3.87115
    8          C           0.406279        3.5937     1.06543     2.52829
    9          N          -0.496958        5.4970     1.51191     3.98505
   10          H           0.229933        0.7701     0.77007
   11          H           0.200401        0.7996     0.79960
   12          H           0.200390        0.7996     0.79961
   13          H           0.229641        0.7704     0.77036
   14          H           0.209654        0.7903     0.79035
   15          H           0.343426        0.6566     0.65657
   16          H           0.348564        0.6514     0.65144
   17          H           0.334628        0.6654     0.66537
 DIPOLE           X         Y         Z       TOTAL
 POINT-CHG.    -2.813    -6.237     0.447     6.857
 HYBRID        -0.827    -1.047     0.047     1.335
 SUM           -3.640    -7.284     0.494     8.158


          ATOMIC ORBITAL ELECTRON POPULATIONS

     Atom    s        px        py        pz   
    1  C   1.04714   1.06377   1.19051   1.17990
    2  C   1.12464   1.06658   0.90701   0.94034
    3  C   1.09197   0.88454   0.87024   0.78109
    4  O   1.88875   1.87703   1.21023   1.28404
    5  C   1.10329   1.12616   0.99901   1.04372
    6  C   1.09570   0.85115   1.00886   0.97768
    7  N   1.52147   1.10742   1.18861   1.57512
    8  C   1.06543   0.76602   0.92616   0.83611
    9  N   1.51191   1.14704   1.21499   1.62301
   10  H   0.77007
   11  H   0.79960
   12  H   0.79961
   13  H   0.77036
   14  H   0.79035
   15  H   0.65657
   16  H   0.65144
   17  H   0.66537


                    (SZ)    =    0.500000
                    (S**2)  =    0.788173


          ATOMIC ORBITAL SPIN POPULATIONS

    Atom   Total    s     px     py     pz   
         Atomic
    1  C -0.0189 -0.005 -0.019 -0.006  0.011
    2  C  0.7686  0.020  0.029  0.031  0.688
    3  C -0.1473 -0.010 -0.017 -0.013 -0.107
    4  O  0.2424  0.006  0.001  0.007  0.228
    5  C  0.1034  0.003  0.004  0.006  0.092
    6  C -0.1064 -0.003 -0.005 -0.006 -0.093
    7  N  0.0522  0.003  0.004  0.003  0.042
    8  C -0.0559 -0.008 -0.005 -0.016 -0.026
    9  N  0.1117  0.005  0.006  0.006  0.095
   10  H  0.0011  0.001
   11  H  0.0311  0.031
   12  H  0.0310  0.031
   13  H -0.0034 -0.003
   14  H  0.0030  0.003
   15  H -0.0026 -0.003
   16  H -0.0047 -0.005
   17  H -0.0052 -0.005

 **********************
 *                    *
 * JOB ENDED NORMALLY *
 *                    *
 **********************



 TOTAL JOB TIME:             1.42 SECONDS

 == MOPAC DONE ==
