 *******************************************************************************
 **                                                                           **
 **                              MOPAC v23.2                                  **
 **                                                                           **
 *******************************************************************************
 **          Digital Object Identifier (DOI): 10.5281/zenodo.6511958          **
 **    Visit the DOI location for information on how to cite this program.    **
 *******************************************************************************

                              PM7 CALCULATION RESULTS

 *******************************************************************************
 *  CALCULATION DONE: (MAX THREADS = 40)             Fri Sep 19 21:41:35 2025  *
 *  PM7        - The PM7 Hamiltonian to be used
 *  EPS=37.5   - USE ANDREAS KLAMT'S COSMO IMPLICIT SOLVATION MODEL
 *  1SCF       - DO 1 SCF AND THEN STOP 
 *  T=         - A TIME OF 172800.0 SECONDS REQUESTED
 *  DUMP=N     - RESTART FILE WRITTEN EVERY 7200.0 SECONDS REQUESTED
 *  RELSCF     - DEFAULT SCF CRITERION MULTIPLIED BY 0.0001
 *              (DEFAULT SCF CRITERION = 0.00010)
 *  GRADIENTS  - ALL GRADIENTS TO BE PRINTED
 *  DISP       - PRINT DISPERSION AND HYDROGEN BOND ENERGIES
 *******************************************************************************
PM7 1SCF GRADIENTS EPS=37.5 DISP RELSCF=0.0001
 Title: ASE calculation

   ATOM   CHEMICAL          X               Y               Z
  NUMBER   SYMBOL      (ANGSTROMS)     (ANGSTROMS)     (ANGSTROMS)

     1       C         -2.68916848  *  -0.21337636  *   1.21403527  *
     2       C         -2.85215593  *   0.96794932  *   0.44027215  *
     3       C         -1.79192011  *   1.02864313  *  -0.46468861  *
     4       N         -1.00191492  *  -0.09524230  *  -0.26709123  *
     5       C          0.25290425  *  -0.36999417  *  -0.94916379  *
     6       C          1.42019838  *   0.26273012  *  -0.21090173  *
     7       C          2.81422947  *  -0.26464191  *  -0.47111986  *
     8       C          2.14970129  *  -0.52447346  *   0.85722826  *
     9       C         -1.53234862  *  -0.85289619  *   0.76730297  *
    10       H         -3.34001819  *  -0.54606010  *   1.99157817  *
    11       H         -3.64681462  *   1.67361020  *   0.53727829  *
    12       H         -1.56974287  *   1.76193517  *  -1.20976302  *
    13       H          0.38761405  *  -1.47384403  *  -1.04197164  *
    14       H          0.20648660  *   0.03026601  *  -1.99157817  *
    15       H          1.28219576  *   1.33925025  *  -0.05219878  *
    16       H          2.96492152  *  -1.08442344  *  -1.16772406  *
    17       H          3.64681462  *   0.43135175  *  -0.53512585  *
    18       H          2.50019487  *  -0.01198292  *   1.74985121  *
    19       H          1.82213872  *  -1.52756026  *   1.11388266  *
    20       H         -1.08044305  *  -1.76193517  *   1.10169617  *



          CARTESIAN COORDINATES 

    NO.       ATOM           X           Y           Z

     1         C         -2.6892     -0.2134      1.2140
     2         C         -2.8522      0.9679      0.4403
     3         C         -1.7919      1.0286     -0.4647
     4         N         -1.0019     -0.0952     -0.2671
     5         C          0.2529     -0.3700     -0.9492
     6         C          1.4202      0.2627     -0.2109
     7         C          2.8142     -0.2646     -0.4711
     8         C          2.1497     -0.5245      0.8572
     9         C         -1.5323     -0.8529      0.7673
    10         H         -3.3400     -0.5461      1.9916
    11         H         -3.6468      1.6736      0.5373
    12         H         -1.5697      1.7619     -1.2098
    13         H          0.3876     -1.4738     -1.0420
    14         H          0.2065      0.0303     -1.9916
    15         H          1.2822      1.3393     -0.0522
    16         H          2.9649     -1.0844     -1.1677
    17         H          3.6468      0.4314     -0.5351
    18         H          2.5002     -0.0120      1.7499
    19         H          1.8221     -1.5276      1.1139
    20         H         -1.0804     -1.7619      1.1017

 General Reference for PM7:
 "Optimization of Parameters for Semiempirical Methods VI: More Modifications to the 
 NDDO Approximations and Re-optimization of Parameters", J. J. P. Stewart, J. Mol. Mod., 1:32, 19 (2013)
 https://link.springer.com/article/10.1007/s00894-012-1667-x

           Empirical Formula: C8 H11 N  =    20 atoms



      MOLECULAR POINT GROUP   :   C1  


      RHF CALCULATION, NO. OF DOUBLY OCCUPIED LEVELS = 24

  SCF CRITERION =    0.1000E-07

 -------------------------------------------------------------------------------
 PM7 1SCF GRADIENTS EPS=37.5 DISP RELSCF=0.0001
 Title: ASE calculation



     1SCF WAS SPECIFIED, SO BFGS WAS NOT USED                 
     SCF FIELD WAS ACHIEVED                                   


                              PM7 CALCULATION
                                                       MOPAC v23.2 Linux
                                                       Fri Sep 19 21:41:36 2025




          FINAL HEAT OF FORMATION =         38.17026 KCAL/MOL =     159.70438 KJ/MOL

          TOTAL ENERGY            =     -30353.85008 KCAL/MOL = ELECTRONIC ENERGY + CORE-CORE REPULSION + SOLVATION ENERGY
          ENERGY OF ATOMS         =      30394.11925 KCAL/MOL
                              SUM =         40.26918 KCAL/MOL
          DISPERSION ENERGY       =         -2.09891 KCAL/MOL
                              SUM =         38.17026 KCAL/MOL = FINAL HEAT OF FORMATION

          VAN DER WAALS AREA      =        171.65 SQUARE ANGSTROMS


          TOTAL ENERGY            =      -1316.26752 EV
          ELECTRONIC ENERGY       =      -2051.57429 EV 
          CORE-CORE REPULSION     =        735.30677 EV

          DIELECTRIC ENERGY       =         -0.26364 EV
          COSMO AREA              =        171.65 SQUARE ANGSTROMS
          COSMO VOLUME            =        170.80 CUBIC ANGSTROMS

          GRADIENT NORM           =          9.73066          =       2.17584 PER ATOM
          IONIZATION POTENTIAL    =          9.201928 EV
          HOMO LUMO ENERGIES (EV) =         -9.202  0.820
          NO. OF FILLED LEVELS    =         24
          MOLECULAR WEIGHT        =        121.1816         POINT GROUP:  C1  

          MOLECULAR DIMENSIONS (Angstroms)

            Atom       Atom       Distance
            H    17    H    10     7.49369
            H    12    H    19     4.89109
            H    13    H    18     3.34067


          SCF CALCULATIONS        =          2

          WALL-CLOCK TIME         =      0.734 SECONDS
          COMPUTATION TIME        =      0.494 SECONDS

          LARGEST ATOMIC GRADIENTS

          Atom     Label                     Cartesian Gradients           Cartesian Coordinates       |Gradient|
                                           X          Y          Z        X          Y          Z

             3       C                  -1.005      3.901     -1.725   -1.79192    1.02864   -0.46469      4.383
             4       N                   2.968     -1.549     -2.769   -1.00191   -0.09524   -0.26709      4.345
             9       C                  -0.200     -3.085      2.774   -1.53235   -0.85290    0.76730      4.153
             5       C                  -2.569     -0.496     -0.614    0.25290   -0.36999   -0.94916      2.687
            12       H                  -0.906     -1.678      1.786   -1.56974    1.76194   -1.20976      2.612
            20       H                  -1.311      2.023     -0.622   -1.08044   -1.76194    1.10170      2.490
             7       C                   1.311     -0.582     -1.203    2.81423   -0.26464   -0.47112      1.872
            13       H                  -0.430      1.419      0.866    0.38761   -1.47384   -1.04197      1.717
             2       C                   0.301      0.958     -1.059   -2.85216    0.96795    0.44027      1.460
             1       C                   0.607     -1.210      0.483   -2.68917   -0.21338    1.21404      1.437



       FINAL  POINT  AND  DERIVATIVES

   PARAMETER     ATOM    TYPE            VALUE        GRADIENT
      1          1  C    CARTESIAN X    -2.689168      0.606620  KCAL/ANGSTROM
      2          1  C    CARTESIAN Y    -0.213376     -1.209667  KCAL/ANGSTROM
      3          1  C    CARTESIAN Z     1.214035      0.483246  KCAL/ANGSTROM
      4          2  C    CARTESIAN X    -2.852156      0.300799  KCAL/ANGSTROM
      5          2  C    CARTESIAN Y     0.967949      0.958395  KCAL/ANGSTROM
      6          2  C    CARTESIAN Z     0.440272     -1.059389  KCAL/ANGSTROM
      7          3  C    CARTESIAN X    -1.791920     -1.005234  KCAL/ANGSTROM
      8          3  C    CARTESIAN Y     1.028643      3.901262  KCAL/ANGSTROM
      9          3  C    CARTESIAN Z    -0.464689     -1.725308  KCAL/ANGSTROM
     10          4  N    CARTESIAN X    -1.001915      2.967901  KCAL/ANGSTROM
     11          4  N    CARTESIAN Y    -0.095242     -1.549344  KCAL/ANGSTROM
     12          4  N    CARTESIAN Z    -0.267091     -2.768733  KCAL/ANGSTROM
     13          5  C    CARTESIAN X     0.252904     -2.568532  KCAL/ANGSTROM
     14          5  C    CARTESIAN Y    -0.369994     -0.496218  KCAL/ANGSTROM
     15          5  C    CARTESIAN Z    -0.949164     -0.614329  KCAL/ANGSTROM
     16          6  C    CARTESIAN X     1.420198      1.173830  KCAL/ANGSTROM
     17          6  C    CARTESIAN Y     0.262730      0.362635  KCAL/ANGSTROM
     18          6  C    CARTESIAN Z    -0.210902     -0.472665  KCAL/ANGSTROM
     19          7  C    CARTESIAN X     2.814229      1.310780  KCAL/ANGSTROM
     20          7  C    CARTESIAN Y    -0.264642     -0.581843  KCAL/ANGSTROM
     21          7  C    CARTESIAN Z    -0.471120     -1.202958  KCAL/ANGSTROM
     22          8  C    CARTESIAN X     2.149701     -0.095345  KCAL/ANGSTROM
     23          8  C    CARTESIAN Y    -0.524473     -0.738678  KCAL/ANGSTROM
     24          8  C    CARTESIAN Z     0.857228      0.229690  KCAL/ANGSTROM
     25          9  C    CARTESIAN X    -1.532349     -0.200272  KCAL/ANGSTROM
     26          9  C    CARTESIAN Y    -0.852896     -3.084554  KCAL/ANGSTROM
     27          9  C    CARTESIAN Z     0.767303      2.773714  KCAL/ANGSTROM
     28         10  H    CARTESIAN X    -3.340018      0.332888  KCAL/ANGSTROM
     29         10  H    CARTESIAN Y    -0.546060      0.404053  KCAL/ANGSTROM
     30         10  H    CARTESIAN Z     1.991578     -0.538141  KCAL/ANGSTROM
     31         11  H    CARTESIAN X    -3.646815      0.499485  KCAL/ANGSTROM
     32         11  H    CARTESIAN Y     1.673610     -0.604455  KCAL/ANGSTROM
     33         11  H    CARTESIAN Z     0.537278      0.089285  KCAL/ANGSTROM
     34         12  H    CARTESIAN X    -1.569743     -0.906249  KCAL/ANGSTROM
     35         12  H    CARTESIAN Y     1.761935     -1.677506  KCAL/ANGSTROM
     36         12  H    CARTESIAN Z    -1.209763      1.785528  KCAL/ANGSTROM
     37         13  H    CARTESIAN X     0.387614     -0.430337  KCAL/ANGSTROM
     38         13  H    CARTESIAN Y    -1.473844      1.418669  KCAL/ANGSTROM
     39         13  H    CARTESIAN Z    -1.041972      0.866076  KCAL/ANGSTROM
     40         14  H    CARTESIAN X     0.206487     -0.055519  KCAL/ANGSTROM
     41         14  H    CARTESIAN Y     0.030266      0.169066  KCAL/ANGSTROM
     42         14  H    CARTESIAN Z    -1.991578      1.313905  KCAL/ANGSTROM
     43         15  H    CARTESIAN X     1.282196     -0.546015  KCAL/ANGSTROM
     44         15  H    CARTESIAN Y     1.339250     -0.414328  KCAL/ANGSTROM
     45         15  H    CARTESIAN Z    -0.052199      0.632284  KCAL/ANGSTROM
     46         16  H    CARTESIAN X     2.964922      0.093519  KCAL/ANGSTROM
     47         16  H    CARTESIAN Y    -1.084423      0.611758  KCAL/ANGSTROM
     48         16  H    CARTESIAN Z    -1.167724      0.855007  KCAL/ANGSTROM
     49         17  H    CARTESIAN X     3.646815     -0.276435  KCAL/ANGSTROM
     50         17  H    CARTESIAN Y     0.431352     -0.370360  KCAL/ANGSTROM
     51         17  H    CARTESIAN Z    -0.535126      0.073740  KCAL/ANGSTROM
     52         18  H    CARTESIAN X     2.500195     -0.254918  KCAL/ANGSTROM
     53         18  H    CARTESIAN Y    -0.011983      0.031271  KCAL/ANGSTROM
     54         18  H    CARTESIAN Z     1.749851     -0.217821  KCAL/ANGSTROM
     55         19  H    CARTESIAN X     1.822139      0.364126  KCAL/ANGSTROM
     56         19  H    CARTESIAN Y    -1.527560      0.846582  KCAL/ANGSTROM
     57         19  H    CARTESIAN Z     1.113883      0.118875  KCAL/ANGSTROM
     58         20  H    CARTESIAN X    -1.080443     -1.311091  KCAL/ANGSTROM
     59         20  H    CARTESIAN Y    -1.761935      2.023257  KCAL/ANGSTROM
     60         20  H    CARTESIAN Z     1.101696     -0.622011  KCAL/ANGSTROM




   ATOM   CHEMICAL          X               Y               Z
  NUMBER   SYMBOL      (ANGSTROMS)     (ANGSTROMS)     (ANGSTROMS)

     1       C         -2.68916848  *  -0.21337636  *   1.21403527  *
     2       C         -2.85215593  *   0.96794932  *   0.44027215  *
     3       C         -1.79192011  *   1.02864313  *  -0.46468861  *
     4       N         -1.00191492  *  -0.09524230  *  -0.26709123  *
     5       C          0.25290425  *  -0.36999417  *  -0.94916379  *
     6       C          1.42019838  *   0.26273012  *  -0.21090173  *
     7       C          2.81422947  *  -0.26464191  *  -0.47111986  *
     8       C          2.14970129  *  -0.52447346  *   0.85722826  *
     9       C         -1.53234862  *  -0.85289619  *   0.76730297  *
    10       H         -3.34001819  *  -0.54606010  *   1.99157817  *
    11       H         -3.64681462  *   1.67361020  *   0.53727829  *
    12       H         -1.56974287  *   1.76193517  *  -1.20976302  *
    13       H          0.38761405  *  -1.47384403  *  -1.04197164  *
    14       H          0.20648660  *   0.03026601  *  -1.99157817  *
    15       H          1.28219576  *   1.33925025  *  -0.05219878  *
    16       H          2.96492152  *  -1.08442344  *  -1.16772406  *
    17       H          3.64681462  *   0.43135175  *  -0.53512585  *
    18       H          2.50019487  *  -0.01198292  *   1.74985121  *
    19       H          1.82213872  *  -1.52756026  *   1.11388266  *
    20       H         -1.08044305  *  -1.76193517  *   1.10169617  *

                             CARTESIAN COORDINATES

   1    C       -2.689168481    -0.213376356     1.214035266
   2    C       -2.852155931     0.967949318     0.440272152
   3    C       -1.791920110     1.028643131    -0.464688613
   4    N       -1.001914919    -0.095242297    -0.267091232
   5    C        0.252904248    -0.369994165    -0.949163791
   6    C        1.420198375     0.262730117    -0.210901732
   7    C        2.814229467    -0.264641914    -0.471119860
   8    C        2.149701287    -0.524473455     0.857228256
   9    C       -1.532348620    -0.852896187     0.767302974
  10    H       -3.340018193    -0.546060096     1.991578174
  11    H       -3.646814618     1.673610196     0.537278286
  12    H       -1.569742874     1.761935172    -1.209763018
  13    H        0.387614054    -1.473844033    -1.041971641
  14    H        0.206486597     0.030266006    -1.991578174
  15    H        1.282195756     1.339250245    -0.052198783
  16    H        2.964921519    -1.084423437    -1.167724063
  17    H        3.646814618     0.431351749    -0.535125850
  18    H        2.500194873    -0.011982916     1.749851208
  19    H        1.822138724    -1.527560257     1.113882655
  20    H       -1.080443048    -1.761935172     1.101696167


           Empirical Formula: C8 H11 N  =    20 atoms



      MOLECULAR POINT GROUP   :   C1  


                  EIGENVALUES  
 -37.47602 -30.73388 -28.31640 -24.81877 -24.08295 -21.02879 -20.29929 -19.85499
 -19.52466 -18.12849 -16.70413 -16.16793 -14.91937 -14.44888 -14.02245 -13.63220
 -13.19183 -13.05885 -12.56400 -12.53346 -11.70254 -11.34059  -9.54678  -9.20193
   0.82025   1.40325   1.74923   2.38896   3.64375   4.14428   4.20775   4.35605
   4.36851   4.86086   5.35724   5.40376   5.42846   5.70468   5.90468   6.01987
   6.02953   6.24758   6.25238   6.35582   6.40319   6.41767   6.48768


              NET ATOMIC CHARGES AND DIPOLE CONTRIBUTIONS

  ATOM NO.   TYPE          CHARGE      No. of ELECS.   s-Pop       p-Pop       
    1          C          -0.262985        4.2630     1.07684     3.18614
    2          C          -0.260468        4.2605     1.07689     3.18358
    3          C          -0.109924        4.1099     1.08553     3.02440
    4          N          -0.195632        5.1956     1.52015     3.67548
    5          C          -0.101418        4.1014     1.06819     3.03322
    6          C          -0.184052        4.1841     1.05284     3.13121
    7          C          -0.317379        4.3174     1.05272     3.26466
    8          C          -0.324814        4.3248     1.05322     3.27159
    9          C          -0.106520        4.1065     1.08536     3.02116
   10          H           0.163521        0.8365     0.83648
   11          H           0.163396        0.8366     0.83660
   12          H           0.176390        0.8236     0.82361
   13          H           0.175106        0.8249     0.82489
   14          H           0.176553        0.8234     0.82345
   15          H           0.171021        0.8290     0.82898
   16          H           0.166469        0.8335     0.83353
   17          H           0.165053        0.8349     0.83495
   18          H           0.164433        0.8356     0.83557
   19          H           0.166208        0.8338     0.83379
   20          H           0.175043        0.8250     0.82496
 DIPOLE           X         Y         Z       TOTAL
 POINT-CHG.     3.136    -0.761    -1.759     3.675
 HYBRID         0.194    -0.084    -0.097     0.233
 SUM            3.330    -0.845    -1.856     3.905


          ATOMIC ORBITAL ELECTRON POPULATIONS

     Atom    s        px        py        pz   
    1  C   1.07684   1.05452   1.03344   1.09818
    2  C   1.07689   1.07128   1.06412   1.04818
    3  C   1.08553   0.98250   0.94688   1.09501
    4  N   1.52015   1.18984   1.20993   1.27572
    5  C   1.06819   0.83744   1.14581   1.04997
    6  C   1.05284   0.95681   1.09125   1.08316
    7  C   1.05272   1.02990   1.16230   1.07247
    8  C   1.05322   1.12036   1.14452   1.00672
    9  C   1.08536   1.02384   1.04579   0.95153
   10  H   0.83648
   11  H   0.83660
   12  H   0.82361
   13  H   0.82489
   14  H   0.82345
   15  H   0.82898
   16  H   0.83353
   17  H   0.83495
   18  H   0.83557
   19  H   0.83379
   20  H   0.82496

 **********************
 *                    *
 * JOB ENDED NORMALLY *
 *                    *
 **********************



 TOTAL JOB TIME:             1.25 SECONDS

 == MOPAC DONE ==
