 *******************************************************************************
 **                                                                           **
 **                              MOPAC v23.2                                  **
 **                                                                           **
 *******************************************************************************
 **          Digital Object Identifier (DOI): 10.5281/zenodo.6511958          **
 **    Visit the DOI location for information on how to cite this program.    **
 *******************************************************************************

                              PM7 CALCULATION RESULTS

 *******************************************************************************
 *  CALCULATION DONE: (MAX THREADS = 40)             Fri Sep 19 21:39:51 2025  *
 *  PM7        - The PM7 Hamiltonian to be used
 *
 *
 *
 *                 CHARGE ON SYSTEM = +1
 *
 *
 *
 *  1SCF       - DO 1 SCF AND THEN STOP 
 *  T=         - A TIME OF 172800.0 SECONDS REQUESTED
 *  DUMP=N     - RESTART FILE WRITTEN EVERY 7200.0 SECONDS REQUESTED
 *  RELSCF     - DEFAULT SCF CRITERION MULTIPLIED BY 0.0001
 *              (DEFAULT SCF CRITERION = 0.00010)
 *  GRADIENTS  - ALL GRADIENTS TO BE PRINTED
 *  DISP       - PRINT DISPERSION AND HYDROGEN BOND ENERGIES
 *******************************************************************************
PM7 1SCF GRADIENTS DISP RELSCF=0.0001 CHARGE=1
 Title: ASE calculation

   ATOM   CHEMICAL          X               Y               Z
  NUMBER   SYMBOL      (ANGSTROMS)     (ANGSTROMS)     (ANGSTROMS)

     1       C          0.83690286  *  -1.90762715  *   0.63807055  *
     2       C          0.62041047  *  -0.51570210  *   0.29717617  *
     3       C          1.57949492  *   0.50187325  *   0.22452575  *
     4       C          0.90761500  *   1.74278279  *  -0.15550579  *
     5       O         -0.47813029  *   1.44871873  *  -0.30925633  *
     6       C         -0.67611120  *   0.08226102  *  -0.03981425  *
     7       C         -1.62705120  *  -0.56765490  *  -1.12772429  *
     8       O         -2.68701617  *  -0.76813605  *  -0.17203866  *
     9       C         -1.94655230  *  -0.12461722  *   0.88388144  *
    10       H          0.24588875  *  -2.23786270  *   1.52406784  *
    11       H          1.89121453  *  -2.16466497  *   0.86279258  *
    12       H          0.51587974  *  -2.60969766  *  -0.16655454  *
    13       H          2.64425113  *   0.41648981  *   0.41188892  *
    14       H          1.24608885  *   2.20458169  *  -1.12645629  *
    15       H          0.97496307  *   2.58416738  *   0.59153815  *
    16       H         -1.28716358  *  -1.53098516  *  -1.52541704  *
    17       H         -1.94454108  *   0.14022741  *  -1.91012135  *
    18       H         -1.80299953  *  -0.81573797  *   1.72261618  *
    19       H         -2.43459845  *   0.81952981  *   1.17449358  *



          CARTESIAN COORDINATES 

    NO.       ATOM           X           Y           Z

     1         C          0.8369     -1.9076      0.6381
     2         C          0.6204     -0.5157      0.2972
     3         C          1.5795      0.5019      0.2245
     4         C          0.9076      1.7428     -0.1555
     5         O         -0.4781      1.4487     -0.3093
     6         C         -0.6761      0.0823     -0.0398
     7         C         -1.6271     -0.5677     -1.1277
     8         O         -2.6870     -0.7681     -0.1720
     9         C         -1.9466     -0.1246      0.8839
    10         H          0.2459     -2.2379      1.5241
    11         H          1.8912     -2.1647      0.8628
    12         H          0.5159     -2.6097     -0.1666
    13         H          2.6443      0.4165      0.4119
    14         H          1.2461      2.2046     -1.1265
    15         H          0.9750      2.5842      0.5915
    16         H         -1.2872     -1.5310     -1.5254
    17         H         -1.9445      0.1402     -1.9101
    18         H         -1.8030     -0.8157      1.7226
    19         H         -2.4346      0.8195      1.1745

 General Reference for PM7:
 "Optimization of Parameters for Semiempirical Methods VI: More Modifications to the 
 NDDO Approximations and Re-optimization of Parameters", J. J. P. Stewart, J. Mol. Mod., 1:32, 19 (2013)
 https://link.springer.com/article/10.1007/s00894-012-1667-x

           Empirical Formula: C7 H10 O2  =    19 atoms



      MOLECULAR POINT GROUP   :   Cs  


          UHF CALCULATION, NO. OF ALPHA ELECTRONS =   25
                           NO. OF BETA  ELECTRONS =   24
  SCF CRITERION =    0.1000E-07

 -------------------------------------------------------------------------------
 PM7 1SCF GRADIENTS DISP RELSCF=0.0001 CHARGE=1
 Title: ASE calculation



     1SCF WAS SPECIFIED, SO BFGS WAS NOT USED                 
     SCF FIELD WAS ACHIEVED                                   


                              PM7 CALCULATION
                                                       MOPAC v23.2 Linux
                                                       Fri Sep 19 21:39:52 2025




          FINAL HEAT OF FORMATION =        158.75165 KCAL/MOL =     664.21691 KJ/MOL

          TOTAL ENERGY            =     -36321.78214 KCAL/MOL = ELECTRONIC ENERGY + CORE-CORE REPULSION
          ENERGY OF ATOMS         =      36482.50324 KCAL/MOL
                              SUM =        160.72110 KCAL/MOL
          DISPERSION ENERGY       =         -1.96945 KCAL/MOL
                              SUM =        158.75165 KCAL/MOL = FINAL HEAT OF FORMATION



          TOTAL ENERGY            =      -1575.06155 EV
          ELECTRONIC ENERGY       =      -7675.30894 EV 
          CORE-CORE REPULSION     =       6100.24740 EV
          COSMO AREA              =        159.36 SQUARE ANGSTROMS
          COSMO VOLUME            =        158.02 CUBIC ANGSTROMS

          GRADIENT NORM           =          0.79397          =       0.18215 PER ATOM
          IONIZATION POTENTIAL    =         14.482095 EV
          ALPHA SOMO LUMO (EV)    =        -14.483 -5.766
          BETA  SOMO LUMO (EV)    =        -14.482 -8.308
          NO. OF ALPHA ELECTRONS  =         25
          NO. OF BETA  ELECTRONS  =         24
          MOLECULAR WEIGHT        =        126.1548         POINT GROUP:  Cs  

          MOLECULAR DIMENSIONS (Angstroms)

            Atom       Atom       Distance
            H    13    O     8     5.49242
            H    12    H    15     5.00509
            H    18    H    17     3.70751


          SCF CALCULATIONS        =          1

          WALL-CLOCK TIME         =      1.086 SECONDS
          COMPUTATION TIME        =      0.465 SECONDS

          LARGEST ATOMIC GRADIENTS

          Atom     Label                     Cartesian Gradients           Cartesian Coordinates       |Gradient|
                                           X          Y          Z        X          Y          Z

             8       O                   0.349      0.043      0.048   -2.68702   -0.76814   -0.17204      0.355
             3       C                  -0.123     -0.232      0.032    1.57949    0.50187    0.22453      0.265
             1       C                  -0.047     -0.248      0.045    0.83690   -1.90763    0.63807      0.256
             6       C                   0.135      0.172     -0.018   -0.67611    0.08226   -0.03981      0.219
             7       C                  -0.168     -0.016     -0.054   -1.62705   -0.56765   -1.12772      0.177
             9       C                  -0.177     -0.004      0.006   -1.94655   -0.12462    0.88388      0.177
            13       H                  -0.170     -0.003     -0.027    2.64425    0.41649    0.41189      0.172
            12       H                  -0.044     -0.154     -0.049    0.51588   -2.60970   -0.16655      0.167
            10       H                  -0.056     -0.122      0.095    0.24589   -2.23786    1.52407      0.164
            18       H                   0.132     -0.041     -0.070   -1.80300   -0.81574    1.72262      0.155



       FINAL  POINT  AND  DERIVATIVES

   PARAMETER     ATOM    TYPE            VALUE        GRADIENT
      1          1  C    CARTESIAN X     0.836903     -0.047148  KCAL/ANGSTROM
      2          1  C    CARTESIAN Y    -1.907627     -0.247794  KCAL/ANGSTROM
      3          1  C    CARTESIAN Z     0.638071      0.044505  KCAL/ANGSTROM
      4          2  C    CARTESIAN X     0.620410      0.116225  KCAL/ANGSTROM
      5          2  C    CARTESIAN Y    -0.515702      0.092138  KCAL/ANGSTROM
      6          2  C    CARTESIAN Z     0.297176     -0.003483  KCAL/ANGSTROM
      7          3  C    CARTESIAN X     1.579495     -0.123467  KCAL/ANGSTROM
      8          3  C    CARTESIAN Y     0.501873     -0.232382  KCAL/ANGSTROM
      9          3  C    CARTESIAN Z     0.224526      0.032227  KCAL/ANGSTROM
     10          4  C    CARTESIAN X     0.907615     -0.019965  KCAL/ANGSTROM
     11          4  C    CARTESIAN Y     1.742783      0.070785  KCAL/ANGSTROM
     12          4  C    CARTESIAN Z    -0.155506     -0.018423  KCAL/ANGSTROM
     13          5  O    CARTESIAN X    -0.478130     -0.016297  KCAL/ANGSTROM
     14          5  O    CARTESIAN Y     1.448719      0.084252  KCAL/ANGSTROM
     15          5  O    CARTESIAN Z    -0.309256     -0.020778  KCAL/ANGSTROM
     16          6  C    CARTESIAN X    -0.676111      0.134859  KCAL/ANGSTROM
     17          6  C    CARTESIAN Y     0.082261      0.171593  KCAL/ANGSTROM
     18          6  C    CARTESIAN Z    -0.039814     -0.018125  KCAL/ANGSTROM
     19          7  C    CARTESIAN X    -1.627051     -0.168135  KCAL/ANGSTROM
     20          7  C    CARTESIAN Y    -0.567655     -0.015553  KCAL/ANGSTROM
     21          7  C    CARTESIAN Z    -1.127724     -0.053642  KCAL/ANGSTROM
     22          8  O    CARTESIAN X    -2.687016      0.349116  KCAL/ANGSTROM
     23          8  O    CARTESIAN Y    -0.768136      0.043051  KCAL/ANGSTROM
     24          8  O    CARTESIAN Z    -0.172039      0.047517  KCAL/ANGSTROM
     25          9  C    CARTESIAN X    -1.946552     -0.176924  KCAL/ANGSTROM
     26          9  C    CARTESIAN Y    -0.124617     -0.004242  KCAL/ANGSTROM
     27          9  C    CARTESIAN Z     0.883881      0.006490  KCAL/ANGSTROM
     28         10  H    CARTESIAN X     0.245889     -0.055638  KCAL/ANGSTROM
     29         10  H    CARTESIAN Y    -2.237863     -0.121727  KCAL/ANGSTROM
     30         10  H    CARTESIAN Z     1.524068      0.095443  KCAL/ANGSTROM
     31         11  H    CARTESIAN X     1.891215      0.088620  KCAL/ANGSTROM
     32         11  H    CARTESIAN Y    -2.164665      0.061334  KCAL/ANGSTROM
     33         11  H    CARTESIAN Z     0.862793     -0.008754  KCAL/ANGSTROM
     34         12  H    CARTESIAN X     0.515880     -0.044017  KCAL/ANGSTROM
     35         12  H    CARTESIAN Y    -2.609698     -0.154093  KCAL/ANGSTROM
     36         12  H    CARTESIAN Z    -0.166555     -0.048551  KCAL/ANGSTROM
     37         13  H    CARTESIAN X     2.644251     -0.170260  KCAL/ANGSTROM
     38         13  H    CARTESIAN Y     0.416490     -0.003183  KCAL/ANGSTROM
     39         13  H    CARTESIAN Z     0.411889     -0.026682  KCAL/ANGSTROM
     40         14  H    CARTESIAN X     1.246089     -0.110316  KCAL/ANGSTROM
     41         14  H    CARTESIAN Y     2.204582      0.015635  KCAL/ANGSTROM
     42         14  H    CARTESIAN Z    -1.126456     -0.081742  KCAL/ANGSTROM
     43         15  H    CARTESIAN X     0.974963     -0.128914  KCAL/ANGSTROM
     44         15  H    CARTESIAN Y     2.584167      0.040765  KCAL/ANGSTROM
     45         15  H    CARTESIAN Z     0.591538      0.031737  KCAL/ANGSTROM
     46         16  H    CARTESIAN X    -1.287164      0.099421  KCAL/ANGSTROM
     47         16  H    CARTESIAN Y    -1.530985      0.002043  KCAL/ANGSTROM
     48         16  H    CARTESIAN Z    -1.525417      0.117450  KCAL/ANGSTROM
     49         17  H    CARTESIAN X    -1.944541      0.064481  KCAL/ANGSTROM
     50         17  H    CARTESIAN Y     0.140227      0.123857  KCAL/ANGSTROM
     51         17  H    CARTESIAN Z    -1.910121      0.008995  KCAL/ANGSTROM
     52         18  H    CARTESIAN X    -1.803000      0.132353  KCAL/ANGSTROM
     53         18  H    CARTESIAN Y    -0.815738     -0.040949  KCAL/ANGSTROM
     54         18  H    CARTESIAN Z     1.722616     -0.069806  KCAL/ANGSTROM
     55         19  H    CARTESIAN X    -2.434598      0.076007  KCAL/ANGSTROM
     56         19  H    CARTESIAN Y     0.819530      0.114469  KCAL/ANGSTROM
     57         19  H    CARTESIAN Z     1.174494     -0.034382  KCAL/ANGSTROM




   ATOM   CHEMICAL          X               Y               Z
  NUMBER   SYMBOL      (ANGSTROMS)     (ANGSTROMS)     (ANGSTROMS)

     1       C          0.83690286  *  -1.90762715  *   0.63807055  *
     2       C          0.62041047  *  -0.51570210  *   0.29717617  *
     3       C          1.57949492  *   0.50187325  *   0.22452575  *
     4       C          0.90761500  *   1.74278279  *  -0.15550579  *
     5       O         -0.47813029  *   1.44871873  *  -0.30925633  *
     6       C         -0.67611120  *   0.08226102  *  -0.03981425  *
     7       C         -1.62705120  *  -0.56765490  *  -1.12772429  *
     8       O         -2.68701617  *  -0.76813605  *  -0.17203866  *
     9       C         -1.94655230  *  -0.12461722  *   0.88388144  *
    10       H          0.24588875  *  -2.23786270  *   1.52406784  *
    11       H          1.89121453  *  -2.16466497  *   0.86279258  *
    12       H          0.51587974  *  -2.60969766  *  -0.16655454  *
    13       H          2.64425113  *   0.41648981  *   0.41188892  *
    14       H          1.24608885  *   2.20458169  *  -1.12645629  *
    15       H          0.97496307  *   2.58416738  *   0.59153815  *
    16       H         -1.28716358  *  -1.53098516  *  -1.52541704  *
    17       H         -1.94454108  *   0.14022741  *  -1.91012135  *
    18       H         -1.80299953  *  -0.81573797  *   1.72261618  *
    19       H         -2.43459845  *   0.81952981  *   1.17449358  *

                             CARTESIAN COORDINATES

   1    C        0.836902862    -1.907627151     0.638070547
   2    C        0.620410471    -0.515702098     0.297176171
   3    C        1.579494915     0.501873249     0.224525745
   4    C        0.907614997     1.742782790    -0.155505791
   5    O       -0.478130291     1.448718729    -0.309256328
   6    C       -0.676111202     0.082261019    -0.039814247
   7    C       -1.627051202    -0.567654896    -1.127724288
   8    O       -2.687016165    -0.768136051    -0.172038663
   9    C       -1.946552296    -0.124617222     0.883881439
  10    H        0.245888754    -2.237862701     1.524067838
  11    H        1.891214527    -2.164664967     0.862792581
  12    H        0.515879742    -2.609697660    -0.166554538
  13    H        2.644251134     0.416489807     0.411888925
  14    H        1.246088845     2.204581692    -1.126456293
  15    H        0.974963066     2.584167379     0.591538153
  16    H       -1.287163576    -1.530985163    -1.525417038
  17    H       -1.944541079     0.140227409    -1.910121350
  18    H       -1.802999528    -0.815737968     1.722616175
  19    H       -2.434598447     0.819529811     1.174493576


           Empirical Formula: C7 H10 O2  =    19 atoms



      MOLECULAR POINT GROUP   :   Cs  


          ALPHA EIGENVALUES  
 -37.56330 -35.59838 -33.84030 -31.37316 -29.83276 -28.43750 -27.74579 -25.83590
 -23.89025 -22.05888 -21.93783 -21.34768 -20.72117 -20.06923 -19.53334 -19.42496
 -19.05064 -18.69260 -18.30865 -17.78063 -17.66350 -16.85542 -16.37097 -14.87525
 -14.48292  -5.76605  -3.72471  -2.90420  -2.42720  -2.06827  -1.92610  -1.42412
  -1.14633  -0.94475  -0.84880  -0.62928  -0.28660   0.32074   0.39336   0.44994
   0.65819   1.00289   1.02152   1.26728   1.31173   1.81972


           BETA EIGENVALUES 
 -37.28014 -35.49224 -33.50850 -31.25435 -29.73276 -28.36691 -27.58590 -25.73733
 -23.78087 -21.94693 -21.60907 -21.26145 -20.61759 -19.81257 -19.46061 -19.20080
 -18.98735 -18.58937 -18.23609 -17.71760 -17.16119 -16.80022 -15.05371 -14.48210
  -8.30761  -4.84943  -3.59409  -2.84256  -2.21087  -1.97599  -1.81446  -1.31874
  -1.07260  -0.87168  -0.75806  -0.59399  -0.10387   0.40899   0.48662   0.49005
   0.67198   1.03986   1.04082   1.27701   1.31484   1.83083


              NET ATOMIC CHARGES AND DIPOLE CONTRIBUTIONS

  ATOM NO.   TYPE          CHARGE      No. of ELECS.   s-Pop       p-Pop       
    1          C          -0.493482        4.4935     1.04890     3.44458
    2          C           0.165892        3.8341     1.11835     2.71576
    3          C          -0.062772        4.0628     1.14178     2.92099
    4          C          -0.130458        4.1305     1.10082     3.02963
    5          O          -0.201564        6.2016     1.89245     4.30911
    6          C          -0.021909        4.0219     1.12430     2.89761
    7          C          -0.004845        4.0048     1.11703     2.88782
    8          O          -0.306115        6.3061     1.90801     4.39811
    9          C          -0.004815        4.0048     1.11703     2.88778
   10          H           0.221450        0.7786     0.77855
   11          H           0.206750        0.7932     0.79325
   12          H           0.221493        0.7785     0.77851
   13          H           0.212587        0.7874     0.78741
   14          H           0.242998        0.7570     0.75700
   15          H           0.243008        0.7570     0.75699
   16          H           0.168624        0.8314     0.83138
   17          H           0.187240        0.8128     0.81276
   18          H           0.168653        0.8313     0.83135
   19          H           0.187266        0.8127     0.81273
 DIPOLE           X         Y         Z       TOTAL
 POINT-CHG.     5.638     0.341     0.816     5.707
 HYBRID         0.031     0.206    -0.041     0.212
 SUM            5.669     0.547     0.775     5.748


          ATOMIC ORBITAL ELECTRON POPULATIONS

     Atom    s        px        py        pz   
    1  C   1.04890   1.23651   1.00483   1.20324
    2  C   1.11835   0.96208   0.98307   0.77061
    3  C   1.14178   1.09357   0.97444   0.85299
    4  C   1.10082   0.83108   1.04918   1.14937
    5  O   1.89245   1.26041   1.26556   1.78314
    6  C   1.12430   0.99516   0.83818   1.06427
    7  C   1.11703   0.84793   1.10446   0.93543
    8  O   1.90801   1.33850   1.80164   1.25796
    9  C   1.11703   0.84871   1.10342   0.93565
   10  H   0.77855
   11  H   0.79325
   12  H   0.77851
   13  H   0.78741
   14  H   0.75700
   15  H   0.75699
   16  H   0.83138
   17  H   0.81276
   18  H   0.83135
   19  H   0.81273


                    (SZ)    =    0.500000
                    (S**2)  =    0.759451


          ATOMIC ORBITAL SPIN POPULATIONS

    Atom   Total    s     px     py     pz   
         Atomic
    1  C  0.0047 -0.001 -0.001 -0.004  0.011
    2  C  0.1545  0.002  0.004  0.008  0.141
    3  C  0.3730  0.008  0.017  0.024  0.324
    4  C  0.0059 -0.007 -0.009 -0.014  0.035
    5  O  0.1608  0.004  0.010  0.013  0.134
    6  C -0.0166 -0.007 -0.013 -0.009  0.013
    7  C  0.0979  0.010  0.027  0.016  0.045
    8  O -0.0080  0.000 -0.003 -0.001 -0.004
    9  C  0.0977  0.010  0.049  0.004  0.035
   10  H  0.0110  0.011
   11  H -0.0002 -0.000
   12  H  0.0111  0.011
   13  H -0.0104 -0.010
   14  H  0.0577  0.058
   15  H  0.0576  0.058
   16  H  0.0014  0.001
   17  H  0.0002  0.000
   18  H  0.0014  0.001
   19  H  0.0002  0.000

 **********************
 *                    *
 * JOB ENDED NORMALLY *
 *                    *
 **********************



 TOTAL JOB TIME:             1.41 SECONDS

 == MOPAC DONE ==
