 *******************************************************************************
 **                                                                           **
 **                              MOPAC v23.2                                  **
 **                                                                           **
 *******************************************************************************
 **          Digital Object Identifier (DOI): 10.5281/zenodo.6511958          **
 **    Visit the DOI location for information on how to cite this program.    **
 *******************************************************************************

                              PM7 CALCULATION RESULTS

 *******************************************************************************
 *  CALCULATION DONE: (MAX THREADS = 40)             Fri Sep 19 21:38:51 2025  *
 *  PM7        - The PM7 Hamiltonian to be used
 *  1SCF       - DO 1 SCF AND THEN STOP 
 *  T=         - A TIME OF 172800.0 SECONDS REQUESTED
 *  DUMP=N     - RESTART FILE WRITTEN EVERY 7200.0 SECONDS REQUESTED
 *  RELSCF     - DEFAULT SCF CRITERION MULTIPLIED BY 0.0001
 *              (DEFAULT SCF CRITERION = 0.00010)
 *  GRADIENTS  - ALL GRADIENTS TO BE PRINTED
 *  DISP       - PRINT DISPERSION AND HYDROGEN BOND ENERGIES
 *******************************************************************************
PM7 1SCF GRADIENTS DISP RELSCF=0.0001
 Title: ASE calculation

   ATOM   CHEMICAL          X               Y               Z
  NUMBER   SYMBOL      (ANGSTROMS)     (ANGSTROMS)     (ANGSTROMS)

     1       O         -3.17756635  *   1.46121951  *  -0.22759349  *
     2       C         -2.20157950  *   0.76318512  *  -0.19701758  *
     3       C         -2.22678990  *  -0.74474900  *  -0.10517372  *
     4       C         -0.76635743  *  -1.18809542  *   0.02076883  *
     5       C          0.09466862  *   0.01416205  *  -0.45993035  *
     6       N          1.28570026  *   0.12699149  *   0.39589729  *
     7       C          2.45805835  *   0.83166659  *  -0.16611660  *
     8       C          2.47704844  *  -0.66506059  *   0.02460485  *
     9       C         -0.78333676  *   1.26750038  *  -0.25384821  *
    10       H         -2.71844298  *  -1.17086338  *  -0.99939516  *
    11       H         -2.84017172  *  -1.07458418  *   0.75314039  *
    12       H         -0.55190394  *  -2.09314679  *  -0.56535454  *
    13       H         -0.51745932  *  -1.43530855  *   1.07213228  *
    14       H          0.33638537  *  -0.10702537  *  -1.54362343  *
    15       H          2.98316843  *   1.48616853  *   0.53367290  *
    16       H          2.43072998  *   1.26291025  *  -1.16460669  *
    17       H          3.01659489  *  -1.10778343  *   0.86586060  *
    18       H          2.46579136  *  -1.33331488  *  -0.83330879  *
    19       H         -0.52972807  *   1.77827043  *   0.70190977  *
    20       H         -0.64053001  *   2.02465264  *  -1.04044747  *



          CARTESIAN COORDINATES 

    NO.       ATOM           X           Y           Z

     1         O         -3.1776      1.4612     -0.2276
     2         C         -2.2016      0.7632     -0.1970
     3         C         -2.2268     -0.7447     -0.1052
     4         C         -0.7664     -1.1881      0.0208
     5         C          0.0947      0.0142     -0.4599
     6         N          1.2857      0.1270      0.3959
     7         C          2.4581      0.8317     -0.1661
     8         C          2.4770     -0.6651      0.0246
     9         C         -0.7833      1.2675     -0.2538
    10         H         -2.7184     -1.1709     -0.9994
    11         H         -2.8402     -1.0746      0.7531
    12         H         -0.5519     -2.0931     -0.5654
    13         H         -0.5175     -1.4353      1.0721
    14         H          0.3364     -0.1070     -1.5436
    15         H          2.9832      1.4862      0.5337
    16         H          2.4307      1.2629     -1.1646
    17         H          3.0166     -1.1078      0.8659
    18         H          2.4658     -1.3333     -0.8333
    19         H         -0.5297      1.7783      0.7019
    20         H         -0.6405      2.0247     -1.0404

 General Reference for PM7:
 "Optimization of Parameters for Semiempirical Methods VI: More Modifications to the 
 NDDO Approximations and Re-optimization of Parameters", J. J. P. Stewart, J. Mol. Mod., 1:32, 19 (2013)
 https://link.springer.com/article/10.1007/s00894-012-1667-x

           Empirical Formula: C7 H11 N O  =    20 atoms



      MOLECULAR POINT GROUP   :   C1  


      RHF CALCULATION, NO. OF DOUBLY OCCUPIED LEVELS = 25

  SCF CRITERION =    0.1000E-07

 -------------------------------------------------------------------------------
 PM7 1SCF GRADIENTS DISP RELSCF=0.0001
 Title: ASE calculation



     1SCF WAS SPECIFIED, SO BFGS WAS NOT USED                 
     SCF FIELD WAS ACHIEVED                                   


                              PM7 CALCULATION
                                                       MOPAC v23.2 Linux
                                                       Fri Sep 19 21:38:52 2025




          FINAL HEAT OF FORMATION =        -13.39769 KCAL/MOL =     -56.05591 KJ/MOL

          TOTAL ENERGY            =     -34335.48749 KCAL/MOL = ELECTRONIC ENERGY + CORE-CORE REPULSION
          ENERGY OF ATOMS         =      34323.93363 KCAL/MOL
                              SUM =        -11.55386 KCAL/MOL
          DISPERSION ENERGY       =         -1.84382 KCAL/MOL
                              SUM =        -13.39769 KCAL/MOL = FINAL HEAT OF FORMATION



          TOTAL ENERGY            =      -1488.92766 EV
          ELECTRONIC ENERGY       =      -7323.90766 EV 
          CORE-CORE REPULSION     =       5834.98000 EV
          COSMO AREA              =        167.70 SQUARE ANGSTROMS
          COSMO VOLUME            =        166.56 CUBIC ANGSTROMS

          GRADIENT NORM           =          1.12105          =       0.25067 PER ATOM
          IONIZATION POTENTIAL    =         10.057525 EV
          HOMO LUMO ENERGIES (EV) =        -10.058  0.928
          NO. OF FILLED LEVELS    =         25
          MOLECULAR WEIGHT        =        125.1700         POINT GROUP:  C1  

          MOLECULAR DIMENSIONS (Angstroms)

            Atom       Atom       Distance
            H    17    O     1     6.79434
            H    16    H    11     4.88584
            H    10    H    19     3.15967


          SCF CALCULATIONS        =          1

          WALL-CLOCK TIME         =      0.781 SECONDS
          COMPUTATION TIME        =      0.408 SECONDS

          LARGEST ATOMIC GRADIENTS

          Atom     Label                     Cartesian Gradients           Cartesian Coordinates       |Gradient|
                                           X          Y          Z        X          Y          Z

            13       H                  -0.014     -0.321      0.289   -0.51746   -1.43531    1.07213      0.432
             8       C                   0.299      0.186      0.021    2.47705   -0.66506    0.02460      0.353
            19       H                  -0.015     -0.070      0.320   -0.52973    1.77827    0.70191      0.328
             7       C                   0.245     -0.178     -0.116    2.45806    0.83167   -0.16612      0.324
            14       H                  -0.033     -0.046     -0.310    0.33639   -0.10703   -1.54362      0.315
             5       C                  -0.119     -0.138     -0.227    0.09467    0.01416   -0.45993      0.291
            16       H                  -0.211      0.084      0.133    2.43073    1.26291   -1.16461      0.264
             3       C                  -0.043      0.242     -0.072   -2.22679   -0.74475   -0.10517      0.256
            11       H                   0.166      0.120     -0.144   -2.84017   -1.07458    0.75314      0.250
             2       C                   0.114     -0.067      0.208   -2.20158    0.76319   -0.19702      0.246



       FINAL  POINT  AND  DERIVATIVES

   PARAMETER     ATOM    TYPE            VALUE        GRADIENT
      1          1  O    CARTESIAN X    -3.177566     -0.076636  KCAL/ANGSTROM
      2          1  O    CARTESIAN Y     1.461220     -0.005819  KCAL/ANGSTROM
      3          1  O    CARTESIAN Z    -0.227593     -0.200358  KCAL/ANGSTROM
      4          2  C    CARTESIAN X    -2.201579      0.114138  KCAL/ANGSTROM
      5          2  C    CARTESIAN Y     0.763185     -0.067152  KCAL/ANGSTROM
      6          2  C    CARTESIAN Z    -0.197018      0.207597  KCAL/ANGSTROM
      7          3  C    CARTESIAN X    -2.226790     -0.043127  KCAL/ANGSTROM
      8          3  C    CARTESIAN Y    -0.744749      0.241584  KCAL/ANGSTROM
      9          3  C    CARTESIAN Z    -0.105174     -0.071584  KCAL/ANGSTROM
     10          4  C    CARTESIAN X    -0.766357     -0.105826  KCAL/ANGSTROM
     11          4  C    CARTESIAN Y    -1.188095     -0.011240  KCAL/ANGSTROM
     12          4  C    CARTESIAN Z     0.020769      0.014698  KCAL/ANGSTROM
     13          5  C    CARTESIAN X     0.094669     -0.118990  KCAL/ANGSTROM
     14          5  C    CARTESIAN Y     0.014162     -0.137974  KCAL/ANGSTROM
     15          5  C    CARTESIAN Z    -0.459930     -0.227072  KCAL/ANGSTROM
     16          6  N    CARTESIAN X     1.285700     -0.051819  KCAL/ANGSTROM
     17          6  N    CARTESIAN Y     0.126991      0.108691  KCAL/ANGSTROM
     18          6  N    CARTESIAN Z     0.395897     -0.127616  KCAL/ANGSTROM
     19          7  C    CARTESIAN X     2.458058      0.245395  KCAL/ANGSTROM
     20          7  C    CARTESIAN Y     0.831667     -0.177704  KCAL/ANGSTROM
     21          7  C    CARTESIAN Z    -0.166117     -0.115722  KCAL/ANGSTROM
     22          8  C    CARTESIAN X     2.477048      0.299398  KCAL/ANGSTROM
     23          8  C    CARTESIAN Y    -0.665061      0.186370  KCAL/ANGSTROM
     24          8  C    CARTESIAN Z     0.024605      0.020508  KCAL/ANGSTROM
     25          9  C    CARTESIAN X    -0.783337     -0.044102  KCAL/ANGSTROM
     26          9  C    CARTESIAN Y     1.267500     -0.141840  KCAL/ANGSTROM
     27          9  C    CARTESIAN Z    -0.253848      0.046277  KCAL/ANGSTROM
     28         10  H    CARTESIAN X    -2.718443      0.006134  KCAL/ANGSTROM
     29         10  H    CARTESIAN Y    -1.170863      0.167467  KCAL/ANGSTROM
     30         10  H    CARTESIAN Z    -0.999395      0.100496  KCAL/ANGSTROM
     31         11  H    CARTESIAN X    -2.840172      0.166023  KCAL/ANGSTROM
     32         11  H    CARTESIAN Y    -1.074584      0.119584  KCAL/ANGSTROM
     33         11  H    CARTESIAN Z     0.753140     -0.144245  KCAL/ANGSTROM
     34         12  H    CARTESIAN X    -0.551904     -0.030760  KCAL/ANGSTROM
     35         12  H    CARTESIAN Y    -2.093147     -0.048299  KCAL/ANGSTROM
     36         12  H    CARTESIAN Z    -0.565355     -0.064152  KCAL/ANGSTROM
     37         13  H    CARTESIAN X    -0.517459     -0.013765  KCAL/ANGSTROM
     38         13  H    CARTESIAN Y    -1.435309     -0.321316  KCAL/ANGSTROM
     39         13  H    CARTESIAN Z     1.072132      0.289172  KCAL/ANGSTROM
     40         14  H    CARTESIAN X     0.336385     -0.033285  KCAL/ANGSTROM
     41         14  H    CARTESIAN Y    -0.107025     -0.046157  KCAL/ANGSTROM
     42         14  H    CARTESIAN Z    -1.543623     -0.309981  KCAL/ANGSTROM
     43         15  H    CARTESIAN X     2.983168     -0.167125  KCAL/ANGSTROM
     44         15  H    CARTESIAN Y     1.486169      0.030416  KCAL/ANGSTROM
     45         15  H    CARTESIAN Z     0.533673     -0.137168  KCAL/ANGSTROM
     46         16  H    CARTESIAN X     2.430730     -0.211381  KCAL/ANGSTROM
     47         16  H    CARTESIAN Y     1.262910      0.083623  KCAL/ANGSTROM
     48         16  H    CARTESIAN Z    -1.164607      0.133445  KCAL/ANGSTROM
     49         17  H    CARTESIAN X     3.016595      0.048794  KCAL/ANGSTROM
     50         17  H    CARTESIAN Y    -1.107783      0.062231  KCAL/ANGSTROM
     51         17  H    CARTESIAN Z     0.865861      0.161260  KCAL/ANGSTROM
     52         18  H    CARTESIAN X     2.465791     -0.110544  KCAL/ANGSTROM
     53         18  H    CARTESIAN Y    -1.333315      0.049043  KCAL/ANGSTROM
     54         18  H    CARTESIAN Z    -0.833309      0.125760  KCAL/ANGSTROM
     55         19  H    CARTESIAN X    -0.529728     -0.015261  KCAL/ANGSTROM
     56         19  H    CARTESIAN Y     1.778270     -0.070494  KCAL/ANGSTROM
     57         19  H    CARTESIAN Z     0.701910      0.320140  KCAL/ANGSTROM
     58         20  H    CARTESIAN X    -0.640530      0.142733  KCAL/ANGSTROM
     59         20  H    CARTESIAN Y     2.024653     -0.021020  KCAL/ANGSTROM
     60         20  H    CARTESIAN Z    -1.040447     -0.021458  KCAL/ANGSTROM




   ATOM   CHEMICAL          X               Y               Z
  NUMBER   SYMBOL      (ANGSTROMS)     (ANGSTROMS)     (ANGSTROMS)

     1       O         -3.17756635  *   1.46121951  *  -0.22759349  *
     2       C         -2.20157950  *   0.76318512  *  -0.19701758  *
     3       C         -2.22678990  *  -0.74474900  *  -0.10517372  *
     4       C         -0.76635743  *  -1.18809542  *   0.02076883  *
     5       C          0.09466862  *   0.01416205  *  -0.45993035  *
     6       N          1.28570026  *   0.12699149  *   0.39589729  *
     7       C          2.45805835  *   0.83166659  *  -0.16611660  *
     8       C          2.47704844  *  -0.66506059  *   0.02460485  *
     9       C         -0.78333676  *   1.26750038  *  -0.25384821  *
    10       H         -2.71844298  *  -1.17086338  *  -0.99939516  *
    11       H         -2.84017172  *  -1.07458418  *   0.75314039  *
    12       H         -0.55190394  *  -2.09314679  *  -0.56535454  *
    13       H         -0.51745932  *  -1.43530855  *   1.07213228  *
    14       H          0.33638537  *  -0.10702537  *  -1.54362343  *
    15       H          2.98316843  *   1.48616853  *   0.53367290  *
    16       H          2.43072998  *   1.26291025  *  -1.16460669  *
    17       H          3.01659489  *  -1.10778343  *   0.86586060  *
    18       H          2.46579136  *  -1.33331488  *  -0.83330879  *
    19       H         -0.52972807  *   1.77827043  *   0.70190977  *
    20       H         -0.64053001  *   2.02465264  *  -1.04044747  *

                             CARTESIAN COORDINATES

   1    O       -3.177566346     1.461219513    -0.227593485
   2    C       -2.201579495     0.763185116    -0.197017579
   3    C       -2.226789902    -0.744748996    -0.105173722
   4    C       -0.766357434    -1.188095420     0.020768835
   5    C        0.094668618     0.014162054    -0.459930349
   6    N        1.285700256     0.126991492     0.395897290
   7    C        2.458058349     0.831666592    -0.166116597
   8    C        2.477048441    -0.665060594     0.024604846
   9    C       -0.783336764     1.267500385    -0.253848209
  10    H       -2.718442980    -1.170863377    -0.999395164
  11    H       -2.840171716    -1.074584177     0.753140394
  12    H       -0.551903942    -2.093146787    -0.565354537
  13    H       -0.517459323    -1.435308546     1.072132285
  14    H        0.336385371    -0.107025367    -1.543623431
  15    H        2.983168426     1.486168531     0.533672905
  16    H        2.430729976     1.262910246    -1.164606694
  17    H        3.016594892    -1.107783433     0.865860597
  18    H        2.465791363    -1.333314883    -0.833308791
  19    H       -0.529728075     1.778270431     0.701909769
  20    H       -0.640530009     2.024652644    -1.040447474


           Empirical Formula: C7 H11 N O  =    20 atoms



      MOLECULAR POINT GROUP   :   C1  


                  EIGENVALUES  
 -36.57162 -31.32233 -29.79151 -25.75176 -24.72668 -22.68129 -21.68277 -20.08403
 -18.86991 -17.69974 -17.18178 -16.01185 -15.41356 -14.71357 -14.53785 -14.20242
 -13.62999 -13.13619 -13.02820 -12.42847 -12.22182 -11.96645 -11.87828 -10.13804
 -10.05753   0.92807   2.12118   2.27322   2.92506   3.21807   3.60689   3.86138
   4.06789   4.24205   4.49167   4.92352   5.04020   5.26876   5.37530   5.45344
   5.48607   5.66783   5.78459   5.79478   6.04154   6.23065   6.27696


              NET ATOMIC CHARGES AND DIPOLE CONTRIBUTIONS

  ATOM NO.   TYPE          CHARGE      No. of ELECS.   s-Pop       p-Pop       
    1          O          -0.454639        6.4546     1.87527     4.57937
    2          C           0.499377        3.5006     1.12401     2.37661
    3          C          -0.383229        4.3832     1.07177     3.31146
    4          C          -0.280659        4.2807     1.06671     3.21395
    5          C           0.042261        3.9577     1.07480     2.88294
    6          N          -0.365850        5.3658     1.75105     3.61480
    7          C          -0.216121        4.2161     1.06782     3.14830
    8          C          -0.216745        4.2167     1.06766     3.14909
    9          C          -0.408440        4.4084     1.07813     3.33031
   10          H           0.172620        0.8274     0.82738
   11          H           0.176408        0.8236     0.82359
   12          H           0.140695        0.8593     0.85931
   13          H           0.167070        0.8329     0.83293
   14          H           0.120109        0.8799     0.87989
   15          H           0.170605        0.8294     0.82939
   16          H           0.148830        0.8512     0.85117
   17          H           0.169736        0.8303     0.83026
   18          H           0.147492        0.8525     0.85251
   19          H           0.198986        0.8010     0.80101
   20          H           0.171495        0.8285     0.82851
 DIPOLE           X         Y         Z       TOTAL
 POINT-CHG.     3.056    -2.135    -1.023     3.866
 HYBRID        -0.154     0.039    -0.610     0.630
 SUM            2.902    -2.095    -1.632     3.934


          ATOMIC ORBITAL ELECTRON POPULATIONS

     Atom    s        px        py        pz   
    1  O   1.87527   1.47714   1.67861   1.42362
    2  C   1.12401   0.85336   0.87650   0.64675
    3  C   1.07177   1.05329   1.06834   1.18983
    4  C   1.06671   0.97973   1.05817   1.17605
    5  C   1.07480   0.90214   0.96918   1.01162
    6  N   1.75105   1.00911   1.18102   1.42467
    7  C   1.06782   1.01840   1.00151   1.12839
    8  C   1.06766   1.01425   0.98974   1.14510
    9  C   1.07813   1.04795   1.07976   1.20260
   10  H   0.82738
   11  H   0.82359
   12  H   0.85931
   13  H   0.83293
   14  H   0.87989
   15  H   0.82939
   16  H   0.85117
   17  H   0.83026
   18  H   0.85251
   19  H   0.80101
   20  H   0.82851

 **********************
 *                    *
 * JOB ENDED NORMALLY *
 *                    *
 **********************



 TOTAL JOB TIME:             1.32 SECONDS

 == MOPAC DONE ==
