 *******************************************************************************
 **                                                                           **
 **                              MOPAC v23.2                                  **
 **                                                                           **
 *******************************************************************************
 **          Digital Object Identifier (DOI): 10.5281/zenodo.6511958          **
 **    Visit the DOI location for information on how to cite this program.    **
 *******************************************************************************

                              PM7 CALCULATION RESULTS

 *******************************************************************************
 *  CALCULATION DONE: (MAX THREADS = 40)             Fri Sep 19 21:34:39 2025  *
 *  PM7        - The PM7 Hamiltonian to be used
 *
 *
 *
 *                 CHARGE ON SYSTEM = +1
 *
 *
 *
 *  1SCF       - DO 1 SCF AND THEN STOP 
 *  T=         - A TIME OF 172800.0 SECONDS REQUESTED
 *  DUMP=N     - RESTART FILE WRITTEN EVERY 7200.0 SECONDS REQUESTED
 *  RELSCF     - DEFAULT SCF CRITERION MULTIPLIED BY 0.0001
 *              (DEFAULT SCF CRITERION = 0.00010)
 *  GRADIENTS  - ALL GRADIENTS TO BE PRINTED
 *  DISP       - PRINT DISPERSION AND HYDROGEN BOND ENERGIES
 *******************************************************************************
PM7 1SCF GRADIENTS DISP RELSCF=0.0001 CHARGE=1
 Title: ASE calculation

   ATOM   CHEMICAL          X               Y               Z
  NUMBER   SYMBOL      (ANGSTROMS)     (ANGSTROMS)     (ANGSTROMS)

     1       C          1.64659255  *  -0.55303729  *  -0.30804535  *
     2       C          0.68561894  *   0.26088132  *   0.53029657  *
     3       C         -0.35316760  *   1.12025496  *  -0.25259273  *
     4       C         -1.08220185  *   0.25851174  *  -1.29048625  *
     5       C         -1.54131802  *  -1.02855367  *  -0.73141300  *
     6       C         -1.24145805  *  -1.41115039  *   0.55326949  *
     7       C         -0.28589925  *  -0.58464949  *   1.36371710  *
     8       O         -1.39963774  *   0.28101123  *   1.70148183  *
     9       C         -1.34114399  *   1.46119147  *   0.87638083  *
    10       H          1.15384501  *  -1.26665003  *  -0.97777508  *
    11       H          2.33839086  *  -1.13713447  *   0.32273894  *
    12       H          2.28309845  *   0.09317471  *  -0.93459455  *
    13       H          1.28441024  *   0.92865590  *   1.20490565  *
    14       H          0.10587802  *   2.01674984  *  -0.71664071  *
    15       H         -0.41444503  *   0.07493023  *  -2.17761344  *
    16       H         -1.93224834  *   0.82311369  *  -1.75484430  *
    17       H         -2.12128960  *  -1.68738563  *  -1.39578088  *
    18       H         -1.69194469  *  -2.27712329  *   1.04491830  *
    19       H          0.11416895  *  -1.04181587  *   2.28723927  *
    20       H         -0.98920112  *   2.27782290  *   1.54316599  *
    21       H         -2.37884431  *   1.67592054  *   0.56599898  *



          CARTESIAN COORDINATES 

    NO.       ATOM           X           Y           Z

     1         C          1.6466     -0.5530     -0.3080
     2         C          0.6856      0.2609      0.5303
     3         C         -0.3532      1.1203     -0.2526
     4         C         -1.0822      0.2585     -1.2905
     5         C         -1.5413     -1.0286     -0.7314
     6         C         -1.2415     -1.4112      0.5533
     7         C         -0.2859     -0.5846      1.3637
     8         O         -1.3996      0.2810      1.7015
     9         C         -1.3411      1.4612      0.8764
    10         H          1.1538     -1.2667     -0.9778
    11         H          2.3384     -1.1371      0.3227
    12         H          2.2831      0.0932     -0.9346
    13         H          1.2844      0.9287      1.2049
    14         H          0.1059      2.0167     -0.7166
    15         H         -0.4144      0.0749     -2.1776
    16         H         -1.9322      0.8231     -1.7548
    17         H         -2.1213     -1.6874     -1.3958
    18         H         -1.6919     -2.2771      1.0449
    19         H          0.1142     -1.0418      2.2872
    20         H         -0.9892      2.2778      1.5432
    21         H         -2.3788      1.6759      0.5660

 General Reference for PM7:
 "Optimization of Parameters for Semiempirical Methods VI: More Modifications to the 
 NDDO Approximations and Re-optimization of Parameters", J. J. P. Stewart, J. Mol. Mod., 1:32, 19 (2013)
 https://link.springer.com/article/10.1007/s00894-012-1667-x

           Empirical Formula: C8 H12 O  =    21 atoms



      MOLECULAR POINT GROUP   :   C1  


          UHF CALCULATION, NO. OF ALPHA ELECTRONS =   25
                           NO. OF BETA  ELECTRONS =   24
  SCF CRITERION =    0.1000E-07

 -------------------------------------------------------------------------------
 PM7 1SCF GRADIENTS DISP RELSCF=0.0001 CHARGE=1
 Title: ASE calculation



     1SCF WAS SPECIFIED, SO BFGS WAS NOT USED                 
     SCF FIELD WAS ACHIEVED                                   


                              PM7 CALCULATION
                                                       MOPAC v23.2 Linux
                                                       Fri Sep 19 21:34:40 2025




          FINAL HEAT OF FORMATION =        168.74504 KCAL/MOL =     706.02925 KJ/MOL

          TOTAL ENERGY            =     -32996.69141 KCAL/MOL = ELECTRONIC ENERGY + CORE-CORE REPULSION
          ENERGY OF ATOMS         =      33167.45855 KCAL/MOL
                              SUM =        170.76714 KCAL/MOL
          DISPERSION ENERGY       =         -2.02210 KCAL/MOL
                              SUM =        168.74504 KCAL/MOL = FINAL HEAT OF FORMATION



          TOTAL ENERGY            =      -1430.87197 EV
          ELECTRONIC ENERGY       =      -7739.11877 EV 
          CORE-CORE REPULSION     =       6308.24680 EV
          COSMO AREA              =        156.05 SQUARE ANGSTROMS
          COSMO VOLUME            =        160.66 CUBIC ANGSTROMS

          GRADIENT NORM           =          1.23204          =       0.26885 PER ATOM
          IONIZATION POTENTIAL    =         15.036259 EV
          ALPHA SOMO LUMO (EV)    =        -15.036 -5.238
          BETA  SOMO LUMO (EV)    =        -15.178 -7.554
          NO. OF ALPHA ELECTRONS  =         25
          NO. OF BETA  ELECTRONS  =         24
          MOLECULAR WEIGHT        =        124.1822         POINT GROUP:  C1  

          MOLECULAR DIMENSIONS (Angstroms)

            Atom       Atom       Distance
            H    21    H    11     5.49771
            H    14    H    18     4.94370
            H    20    H    17     4.13555


          SCF CALCULATIONS        =          1

          WALL-CLOCK TIME         =      1.047 SECONDS
          COMPUTATION TIME        =      1.534 SECONDS

          LARGEST ATOMIC GRADIENTS

          Atom     Label                     Cartesian Gradients           Cartesian Coordinates       |Gradient|
                                           X          Y          Z        X          Y          Z

            18       H                  -0.154     -0.198      0.363   -1.69194   -2.27712    1.04492      0.441
            14       H                  -0.184     -0.336      0.032    0.10588    2.01675   -0.71664      0.385
             4       C                   0.124      0.358     -0.067   -1.08220    0.25851   -1.29049      0.384
            17       H                   0.130     -0.342     -0.041   -2.12129   -1.68739   -1.39578      0.368
             5       C                   0.037      0.258     -0.253   -1.54132   -1.02855   -0.73141      0.363
             8       O                   0.264     -0.230     -0.041   -1.39964    0.28101    1.70148      0.353
            10       H                  -0.229      0.223     -0.058    1.15385   -1.26665   -0.97778      0.325
            13       H                  -0.215      0.048     -0.139    1.28441    0.92866    1.20491      0.260
             3       C                  -0.152      0.111      0.177   -0.35317    1.12025   -0.25259      0.258
            11       H                   0.024     -0.164      0.181    2.33839   -1.13713    0.32274      0.245



       FINAL  POINT  AND  DERIVATIVES

   PARAMETER     ATOM    TYPE            VALUE        GRADIENT
      1          1  C    CARTESIAN X     1.646593      0.084133  KCAL/ANGSTROM
      2          1  C    CARTESIAN Y    -0.553037     -0.097341  KCAL/ANGSTROM
      3          1  C    CARTESIAN Z    -0.308045      0.032810  KCAL/ANGSTROM
      4          2  C    CARTESIAN X     0.685619      0.053348  KCAL/ANGSTROM
      5          2  C    CARTESIAN Y     0.260881      0.032397  KCAL/ANGSTROM
      6          2  C    CARTESIAN Z     0.530297     -0.102330  KCAL/ANGSTROM
      7          3  C    CARTESIAN X    -0.353168     -0.151785  KCAL/ANGSTROM
      8          3  C    CARTESIAN Y     1.120255      0.110891  KCAL/ANGSTROM
      9          3  C    CARTESIAN Z    -0.252593      0.176841  KCAL/ANGSTROM
     10          4  C    CARTESIAN X    -1.082202      0.123696  KCAL/ANGSTROM
     11          4  C    CARTESIAN Y     0.258512      0.357686  KCAL/ANGSTROM
     12          4  C    CARTESIAN Z    -1.290486     -0.066524  KCAL/ANGSTROM
     13          5  C    CARTESIAN X    -1.541318      0.037345  KCAL/ANGSTROM
     14          5  C    CARTESIAN Y    -1.028554      0.257750  KCAL/ANGSTROM
     15          5  C    CARTESIAN Z    -0.731413     -0.253467  KCAL/ANGSTROM
     16          6  C    CARTESIAN X    -1.241458     -0.125456  KCAL/ANGSTROM
     17          6  C    CARTESIAN Y    -1.411150      0.016928  KCAL/ANGSTROM
     18          6  C    CARTESIAN Z     0.553269     -0.088507  KCAL/ANGSTROM
     19          7  C    CARTESIAN X    -0.285899      0.146258  KCAL/ANGSTROM
     20          7  C    CARTESIAN Y    -0.584649      0.147913  KCAL/ANGSTROM
     21          7  C    CARTESIAN Z     1.363717     -0.108406  KCAL/ANGSTROM
     22          8  O    CARTESIAN X    -1.399638      0.264431  KCAL/ANGSTROM
     23          8  O    CARTESIAN Y     0.281011     -0.230377  KCAL/ANGSTROM
     24          8  O    CARTESIAN Z     1.701482     -0.040696  KCAL/ANGSTROM
     25          9  C    CARTESIAN X    -1.341144     -0.011380  KCAL/ANGSTROM
     26          9  C    CARTESIAN Y     1.461191      0.085084  KCAL/ANGSTROM
     27          9  C    CARTESIAN Z     0.876381      0.107269  KCAL/ANGSTROM
     28         10  H    CARTESIAN X     1.153845     -0.228931  KCAL/ANGSTROM
     29         10  H    CARTESIAN Y    -1.266650      0.222701  KCAL/ANGSTROM
     30         10  H    CARTESIAN Z    -0.977775     -0.057805  KCAL/ANGSTROM
     31         11  H    CARTESIAN X     2.338391      0.023583  KCAL/ANGSTROM
     32         11  H    CARTESIAN Y    -1.137134     -0.164495  KCAL/ANGSTROM
     33         11  H    CARTESIAN Z     0.322739      0.180709  KCAL/ANGSTROM
     34         12  H    CARTESIAN X     2.283098      0.146140  KCAL/ANGSTROM
     35         12  H    CARTESIAN Y     0.093175     -0.021242  KCAL/ANGSTROM
     36         12  H    CARTESIAN Z    -0.934595      0.171737  KCAL/ANGSTROM
     37         13  H    CARTESIAN X     1.284410     -0.214754  KCAL/ANGSTROM
     38         13  H    CARTESIAN Y     0.928656      0.048255  KCAL/ANGSTROM
     39         13  H    CARTESIAN Z     1.204906     -0.139256  KCAL/ANGSTROM
     40         14  H    CARTESIAN X     0.105878     -0.184180  KCAL/ANGSTROM
     41         14  H    CARTESIAN Y     2.016750     -0.336238  KCAL/ANGSTROM
     42         14  H    CARTESIAN Z    -0.716641      0.032374  KCAL/ANGSTROM
     43         15  H    CARTESIAN X    -0.414445      0.089230  KCAL/ANGSTROM
     44         15  H    CARTESIAN Y     0.074930     -0.016744  KCAL/ANGSTROM
     45         15  H    CARTESIAN Z    -2.177613     -0.130219  KCAL/ANGSTROM
     46         16  H    CARTESIAN X    -1.932248     -0.143830  KCAL/ANGSTROM
     47         16  H    CARTESIAN Y     0.823114     -0.047885  KCAL/ANGSTROM
     48         16  H    CARTESIAN Z    -1.754844      0.077933  KCAL/ANGSTROM
     49         17  H    CARTESIAN X    -2.121290      0.130035  KCAL/ANGSTROM
     50         17  H    CARTESIAN Y    -1.687386     -0.342313  KCAL/ANGSTROM
     51         17  H    CARTESIAN Z    -1.395781     -0.040528  KCAL/ANGSTROM
     52         18  H    CARTESIAN X    -1.691945     -0.153876  KCAL/ANGSTROM
     53         18  H    CARTESIAN Y    -2.277123     -0.197593  KCAL/ANGSTROM
     54         18  H    CARTESIAN Z     1.044918      0.363007  KCAL/ANGSTROM
     55         19  H    CARTESIAN X     0.114169     -0.071891  KCAL/ANGSTROM
     56         19  H    CARTESIAN Y    -1.041816      0.121975  KCAL/ANGSTROM
     57         19  H    CARTESIAN Z     2.287239     -0.135921  KCAL/ANGSTROM
     58         20  H    CARTESIAN X    -0.989201      0.157752  KCAL/ANGSTROM
     59         20  H    CARTESIAN Y     2.277823     -0.012684  KCAL/ANGSTROM
     60         20  H    CARTESIAN Z     1.543166     -0.113885  KCAL/ANGSTROM
     61         21  H    CARTESIAN X    -2.378844      0.030131  KCAL/ANGSTROM
     62         21  H    CARTESIAN Y     1.675921      0.065329  KCAL/ANGSTROM
     63         21  H    CARTESIAN Z     0.565999      0.134862  KCAL/ANGSTROM




   ATOM   CHEMICAL          X               Y               Z
  NUMBER   SYMBOL      (ANGSTROMS)     (ANGSTROMS)     (ANGSTROMS)

     1       C          1.64659255  *  -0.55303729  *  -0.30804535  *
     2       C          0.68561894  *   0.26088132  *   0.53029657  *
     3       C         -0.35316760  *   1.12025496  *  -0.25259273  *
     4       C         -1.08220185  *   0.25851174  *  -1.29048625  *
     5       C         -1.54131802  *  -1.02855367  *  -0.73141300  *
     6       C         -1.24145805  *  -1.41115039  *   0.55326949  *
     7       C         -0.28589925  *  -0.58464949  *   1.36371710  *
     8       O         -1.39963774  *   0.28101123  *   1.70148183  *
     9       C         -1.34114399  *   1.46119147  *   0.87638083  *
    10       H          1.15384501  *  -1.26665003  *  -0.97777508  *
    11       H          2.33839086  *  -1.13713447  *   0.32273894  *
    12       H          2.28309845  *   0.09317471  *  -0.93459455  *
    13       H          1.28441024  *   0.92865590  *   1.20490565  *
    14       H          0.10587802  *   2.01674984  *  -0.71664071  *
    15       H         -0.41444503  *   0.07493023  *  -2.17761344  *
    16       H         -1.93224834  *   0.82311369  *  -1.75484430  *
    17       H         -2.12128960  *  -1.68738563  *  -1.39578088  *
    18       H         -1.69194469  *  -2.27712329  *   1.04491830  *
    19       H          0.11416895  *  -1.04181587  *   2.28723927  *
    20       H         -0.98920112  *   2.27782290  *   1.54316599  *
    21       H         -2.37884431  *   1.67592054  *   0.56599898  *

                             CARTESIAN COORDINATES

   1    C        1.646592550    -0.553037291    -0.308045352
   2    C        0.685618943     0.260881319     0.530296574
   3    C       -0.353167598     1.120254956    -0.252592731
   4    C       -1.082201848     0.258511739    -1.290486246
   5    C       -1.541318023    -1.028553667    -0.731412996
   6    C       -1.241458046    -1.411150389     0.553269494
   7    C       -0.285899248    -0.584649494     1.363717103
   8    O       -1.399637738     0.281011228     1.701481828
   9    C       -1.341143989     1.461191471     0.876380827
  10    H        1.153845011    -1.266650027    -0.977775083
  11    H        2.338390863    -1.137134470     0.322738939
  12    H        2.283098448     0.093174709    -0.934594549
  13    H        1.284410238     0.928655900     1.204905647
  14    H        0.105878021     2.016749840    -0.716640707
  15    H       -0.414445034     0.074930234    -2.177613436
  16    H       -1.932248342     0.823113693    -1.754844297
  17    H       -2.121289602    -1.687385627    -1.395780881
  18    H       -1.691944686    -2.277123293     1.044918295
  19    H        0.114168949    -1.041815869     2.287239269
  20    H       -0.989201115     2.277822903     1.543165987
  21    H       -2.378844308     1.675920535     0.565998981


           Empirical Formula: C8 H12 O  =    21 atoms



      MOLECULAR POINT GROUP   :   C1  


          ALPHA EIGENVALUES  
 -38.16611 -34.76420 -32.04559 -31.58010 -29.17073 -28.02389 -25.55201 -25.23499
 -23.34395 -22.54306 -21.07982 -20.70616 -20.40379 -19.93401 -19.25136 -18.84588
 -18.67250 -18.07845 -17.65281 -17.09868 -16.98353 -16.66956 -16.08818 -16.03754
 -15.03626  -5.23844  -3.59286  -2.12198  -1.62217  -1.45198  -1.29131  -1.03542
  -1.03311  -0.54317  -0.20316   0.03173   0.43713   0.48234   0.58663   0.67673
   0.95860   1.03536   1.24068   1.35150   1.42847   1.79236   1.80813   2.97069


           BETA EIGENVALUES 
 -37.32515 -33.60261 -31.92154 -31.49323 -28.83063 -27.89604 -25.47090 -25.12731
 -23.17075 -22.36643 -20.71290 -20.49934 -20.22622 -19.65270 -19.08117 -18.70994
 -18.45840 -17.82252 -17.58285 -16.98005 -16.86374 -16.15314 -16.00629 -15.17762
  -7.55403  -4.42086  -3.30872  -1.99106  -1.58555  -1.41721  -1.20375  -0.96826
  -0.93238  -0.51236  -0.16190   0.03875   0.49850   0.53130   0.61673   0.73210
   0.98816   1.05983   1.24808   1.35808   1.45276   1.79302   1.80889   2.97100


              NET ATOMIC CHARGES AND DIPOLE CONTRIBUTIONS

  ATOM NO.   TYPE          CHARGE      No. of ELECS.   s-Pop       p-Pop       
    1          C          -0.451306        4.4513     1.05099     3.40032
    2          C          -0.131590        4.1316     1.07522     3.05637
    3          C          -0.133809        4.1338     1.08069     3.05312
    4          C          -0.339671        4.3397     1.06299     3.27668
    5          C           0.071315        3.9287     1.13520     2.79349
    6          C          -0.142919        4.1429     1.12609     3.01683
    7          C           0.033178        3.9668     1.12855     2.83827
    8          O          -0.046422        6.0464     1.91001     4.13642
    9          C          -0.149493        4.1495     1.11997     3.02952
   10          H           0.155473        0.8445     0.84453
   11          H           0.179287        0.8207     0.82071
   12          H           0.179906        0.8201     0.82009
   13          H           0.180419        0.8196     0.81958
   14          H           0.189411        0.8106     0.81059
   15          H           0.220078        0.7799     0.77992
   16          H           0.208408        0.7916     0.79159
   17          H           0.190279        0.8097     0.80972
   18          H           0.205092        0.7949     0.79491
   19          H           0.201410        0.7986     0.79859
   20          H           0.196012        0.8040     0.80399
   21          H           0.184943        0.8151     0.81506
 DIPOLE           X         Y         Z       TOTAL
 POINT-CHG.    -0.725    -0.130    -1.184     1.394
 HYBRID        -0.479    -0.024     0.246     0.539
 SUM           -1.204    -0.153    -0.938     1.534


          ATOMIC ORBITAL ELECTRON POPULATIONS

     Atom    s        px        py        pz   
    1  C   1.05099   1.11471   1.14205   1.14355
    2  C   1.07522   1.00178   1.01976   1.03483
    3  C   1.08069   0.99156   1.07349   0.98807
    4  C   1.06299   1.15254   1.02814   1.09601
    5  C   1.13520   0.81885   0.98464   0.99000
    6  C   1.12609   1.06490   0.98296   0.96896
    7  C   1.12855   0.90469   0.88971   1.04388
    8  O   1.91001   1.47194   1.26721   1.39726
    9  C   1.11997   1.13589   0.89923   0.99440
   10  H   0.84453
   11  H   0.82071
   12  H   0.82009
   13  H   0.81958
   14  H   0.81059
   15  H   0.77992
   16  H   0.79159
   17  H   0.80972
   18  H   0.79491
   19  H   0.79859
   20  H   0.80399
   21  H   0.81506


                    (SZ)    =    0.500000
                    (S**2)  =    0.780154


          ATOMIC ORBITAL SPIN POPULATIONS

    Atom   Total    s     px     py     pz   
         Atomic
    1  C -0.0004 -0.000 -0.000  0.000 -0.000
    2  C -0.0034 -0.000 -0.000 -0.002  0.000
    3  C  0.0111  0.000  0.005  0.002  0.003
    4  C  0.0036 -0.001  0.011 -0.007  0.001
    5  C  0.3190  0.007  0.237  0.047  0.029
    6  C  0.1088  0.006 -0.054  0.112  0.044
    7  C -0.0017 -0.003 -0.006 -0.005  0.012
    8  O  0.5182  0.010  0.024  0.161  0.323
    9  C -0.0257 -0.004 -0.002 -0.010 -0.010
   10  H  0.0000  0.000
   11  H  0.0000  0.000
   12  H -0.0000 -0.000
   13  H  0.0007  0.001
   14  H -0.0015 -0.001
   15  H  0.0247  0.025
   16  H  0.0160  0.016
   17  H -0.0060 -0.006
   18  H  0.0015  0.001
   19  H  0.0068  0.007
   20  H  0.0255  0.026
   21  H  0.0028  0.003

 **********************
 *                    *
 * JOB ENDED NORMALLY *
 *                    *
 **********************



 TOTAL JOB TIME:             1.39 SECONDS

 == MOPAC DONE ==
