 *******************************************************************************
 **                                                                           **
 **                              MOPAC v23.2                                  **
 **                                                                           **
 *******************************************************************************
 **          Digital Object Identifier (DOI): 10.5281/zenodo.6511958          **
 **    Visit the DOI location for information on how to cite this program.    **
 *******************************************************************************

                              PM7 CALCULATION RESULTS

 *******************************************************************************
 *  CALCULATION DONE: (MAX THREADS = 40)             Fri Sep 19 21:33:52 2025  *
 *  PM7        - The PM7 Hamiltonian to be used
 *  1SCF       - DO 1 SCF AND THEN STOP 
 *  T=         - A TIME OF 172800.0 SECONDS REQUESTED
 *  DUMP=N     - RESTART FILE WRITTEN EVERY 7200.0 SECONDS REQUESTED
 *  RELSCF     - DEFAULT SCF CRITERION MULTIPLIED BY 0.0001
 *              (DEFAULT SCF CRITERION = 0.00010)
 *  GRADIENTS  - ALL GRADIENTS TO BE PRINTED
 *  DISP       - PRINT DISPERSION AND HYDROGEN BOND ENERGIES
 *******************************************************************************
PM7 1SCF GRADIENTS DISP RELSCF=0.0001
 Title: ASE calculation

   ATOM   CHEMICAL          X               Y               Z
  NUMBER   SYMBOL      (ANGSTROMS)     (ANGSTROMS)     (ANGSTROMS)

     1       C         -0.88619797  *   1.51554854  *  -0.91845270  *
     2       C         -0.70609311  *   0.06984360  *  -0.54727600  *
     3       C         -1.93745614  *  -0.76748713  *  -0.89927693  *
     4       O         -1.79737440  *  -2.11203495  *  -0.51651732  *
     5       C          0.63607563  *  -0.63660507  *  -0.61152473  *
     6       C          1.77006648  *   0.29045200  *  -0.19786130  *
     7       O          2.81009483  *   0.61293104  *  -0.66180690  *
     8       C          1.03736387  *   0.57076897  *   1.13850284  *
     9       N         -0.06592069  *  -0.37809436  *   0.72336127  *
    10       H         -1.59883289  *   2.01204873  *  -0.24197604  *
    11       H         -1.27971908  *   1.61901150  *  -1.94101091  *
    12       H          0.04581146  *   2.09543509  *  -0.89279704  *
    13       H         -2.84504360  *  -0.34905402  *  -0.42417766  *
    14       H         -2.07675699  *  -0.82987737  *  -1.99732318  *
    15       H         -1.55201363  *  -2.17560689  *   0.43734449  *
    16       H          0.79071307  *  -1.60325297  *  -1.06242657  *
    17       H          1.55614634  *   0.17815706  *   2.02804174  *
    18       H          0.73202168  *   1.60170177  *   1.33643404  *



          CARTESIAN COORDINATES 

    NO.       ATOM           X           Y           Z

     1         C         -0.8862      1.5155     -0.9185
     2         C         -0.7061      0.0698     -0.5473
     3         C         -1.9375     -0.7675     -0.8993
     4         O         -1.7974     -2.1120     -0.5165
     5         C          0.6361     -0.6366     -0.6115
     6         C          1.7701      0.2905     -0.1979
     7         O          2.8101      0.6129     -0.6618
     8         C          1.0374      0.5708      1.1385
     9         N         -0.0659     -0.3781      0.7234
    10         H         -1.5988      2.0120     -0.2420
    11         H         -1.2797      1.6190     -1.9410
    12         H          0.0458      2.0954     -0.8928
    13         H         -2.8450     -0.3491     -0.4242
    14         H         -2.0768     -0.8299     -1.9973
    15         H         -1.5520     -2.1756      0.4373
    16         H          0.7907     -1.6033     -1.0624
    17         H          1.5561      0.1782      2.0280
    18         H          0.7320      1.6017      1.3364

 General Reference for PM7:
 "Optimization of Parameters for Semiempirical Methods VI: More Modifications to the 
 NDDO Approximations and Re-optimization of Parameters", J. J. P. Stewart, J. Mol. Mod., 1:32, 19 (2013)
 https://link.springer.com/article/10.1007/s00894-012-1667-x

           Empirical Formula: C6 H9 N O2  =    18 atoms



      MOLECULAR POINT GROUP   :   C1  


      RHF CALCULATION, NO. OF DOUBLY OCCUPIED LEVELS = 25

  SCF CRITERION =    0.1000E-07

 -------------------------------------------------------------------------------
 PM7 1SCF GRADIENTS DISP RELSCF=0.0001
 Title: ASE calculation



     1SCF WAS SPECIFIED, SO BFGS WAS NOT USED                 
     SCF FIELD WAS ACHIEVED                                   


                              PM7 CALCULATION
                                                       MOPAC v23.2 Linux
                                                       Fri Sep 19 21:33:53 2025




          FINAL HEAT OF FORMATION =        -17.14354 KCAL/MOL =     -71.72858 KJ/MOL

          TOTAL ENERGY            =     -37654.31639 KCAL/MOL = ELECTRONIC ENERGY + CORE-CORE REPULSION
          ENERGY OF ATOMS         =      37638.97832 KCAL/MOL
                              SUM =        -15.33807 KCAL/MOL
          DISPERSION ENERGY       =         -1.70411 KCAL/MOL
          H-BOND ENERGY           =         -0.10136 KCAL/MOL
                              SUM =        -17.14354 KCAL/MOL = FINAL HEAT OF FORMATION



          TOTAL ENERGY            =      -1632.84570 EV
          ELECTRONIC ENERGY       =      -7607.13975 EV 
          CORE-CORE REPULSION     =       5974.29404 EV
          COSMO AREA              =        156.96 SQUARE ANGSTROMS
          COSMO VOLUME            =        155.34 CUBIC ANGSTROMS

          GRADIENT NORM           =          1.07831          =       0.25416 PER ATOM
          IONIZATION POTENTIAL    =         10.348088 EV
          HOMO LUMO ENERGIES (EV) =        -10.348  0.110
          NO. OF FILLED LEVELS    =         25
          MOLECULAR WEIGHT        =        127.1426         POINT GROUP:  C1  

          MOLECULAR DIMENSIONS (Angstroms)

            Atom       Atom       Distance
            H    13    O     7     5.74130
            H    11    H    17     4.49120
            H    10    H    16     3.90969


          SCF CALCULATIONS        =          1

          WALL-CLOCK TIME         =      1.039 SECONDS
          COMPUTATION TIME        =      0.846 SECONDS

          LARGEST ATOMIC GRADIENTS

          Atom     Label                     Cartesian Gradients           Cartesian Coordinates       |Gradient|
                                           X          Y          Z        X          Y          Z

             5       C                   0.356     -0.133      0.111    0.63608   -0.63661   -0.61152      0.396
             4       O                  -0.292      0.158      0.213   -1.79737   -2.11203   -0.51652      0.395
             7       O                   0.010      0.077     -0.328    2.81009    0.61293   -0.66181      0.337
             9       N                   0.010      0.021     -0.316   -0.06592   -0.37809    0.72336      0.317
            10       H                  -0.269     -0.019      0.103   -1.59883    2.01205   -0.24198      0.289
            15       H                  -0.080     -0.216      0.143   -1.55201   -2.17561    0.43734      0.272
            18       H                   0.024     -0.248      0.091    0.73202    1.60170    1.33643      0.265
            14       H                   0.041     -0.142     -0.194   -2.07676   -0.82988   -1.99732      0.244
            13       H                   0.052      0.178     -0.156   -2.84504   -0.34905   -0.42418      0.242
             2       C                   0.171      0.035     -0.162   -0.70609    0.06984   -0.54728      0.238



       FINAL  POINT  AND  DERIVATIVES

   PARAMETER     ATOM    TYPE            VALUE        GRADIENT
      1          1  C    CARTESIAN X    -0.886198     -0.003199  KCAL/ANGSTROM
      2          1  C    CARTESIAN Y     1.515549      0.085093  KCAL/ANGSTROM
      3          1  C    CARTESIAN Z    -0.918453      0.108212  KCAL/ANGSTROM
      4          2  C    CARTESIAN X    -0.706093      0.171321  KCAL/ANGSTROM
      5          2  C    CARTESIAN Y     0.069844      0.035149  KCAL/ANGSTROM
      6          2  C    CARTESIAN Z    -0.547276     -0.161955  KCAL/ANGSTROM
      7          3  C    CARTESIAN X    -1.937456      0.026436  KCAL/ANGSTROM
      8          3  C    CARTESIAN Y    -0.767487      0.037809  KCAL/ANGSTROM
      9          3  C    CARTESIAN Z    -0.899277     -0.090301  KCAL/ANGSTROM
     10          4  O    CARTESIAN X    -1.797374     -0.292141  KCAL/ANGSTROM
     11          4  O    CARTESIAN Y    -2.112035      0.158329  KCAL/ANGSTROM
     12          4  O    CARTESIAN Z    -0.516517      0.213479  KCAL/ANGSTROM
     13          5  C    CARTESIAN X     0.636076      0.355623  KCAL/ANGSTROM
     14          5  C    CARTESIAN Y    -0.636605     -0.133188  KCAL/ANGSTROM
     15          5  C    CARTESIAN Z    -0.611525      0.111302  KCAL/ANGSTROM
     16          6  C    CARTESIAN X     1.770066     -0.132025  KCAL/ANGSTROM
     17          6  C    CARTESIAN Y     0.290452      0.054343  KCAL/ANGSTROM
     18          6  C    CARTESIAN Z    -0.197861      0.072104  KCAL/ANGSTROM
     19          7  O    CARTESIAN X     2.810095      0.010229  KCAL/ANGSTROM
     20          7  O    CARTESIAN Y     0.612931      0.077007  KCAL/ANGSTROM
     21          7  O    CARTESIAN Z    -0.661807     -0.328166  KCAL/ANGSTROM
     22          8  C    CARTESIAN X     1.037364     -0.188214  KCAL/ANGSTROM
     23          8  C    CARTESIAN Y     0.570769     -0.027338  KCAL/ANGSTROM
     24          8  C    CARTESIAN Z     1.138503      0.100590  KCAL/ANGSTROM
     25          9  N    CARTESIAN X    -0.065921      0.009711  KCAL/ANGSTROM
     26          9  N    CARTESIAN Y    -0.378094      0.020839  KCAL/ANGSTROM
     27          9  N    CARTESIAN Z     0.723361     -0.316102  KCAL/ANGSTROM
     28         10  H    CARTESIAN X    -1.598833     -0.269116  KCAL/ANGSTROM
     29         10  H    CARTESIAN Y     2.012049     -0.019178  KCAL/ANGSTROM
     30         10  H    CARTESIAN Z    -0.241976      0.102665  KCAL/ANGSTROM
     31         11  H    CARTESIAN X    -1.279719     -0.068448  KCAL/ANGSTROM
     32         11  H    CARTESIAN Y     1.619012      0.003408  KCAL/ANGSTROM
     33         11  H    CARTESIAN Z    -1.941011      0.167840  KCAL/ANGSTROM
     34         12  H    CARTESIAN X     0.045811      0.160898  KCAL/ANGSTROM
     35         12  H    CARTESIAN Y     2.095435      0.005193  KCAL/ANGSTROM
     36         12  H    CARTESIAN Z    -0.892797     -0.014954  KCAL/ANGSTROM
     37         13  H    CARTESIAN X    -2.845044      0.051698  KCAL/ANGSTROM
     38         13  H    CARTESIAN Y    -0.349054      0.178234  KCAL/ANGSTROM
     39         13  H    CARTESIAN Z    -0.424178     -0.155538  KCAL/ANGSTROM
     40         14  H    CARTESIAN X    -2.076757      0.041326  KCAL/ANGSTROM
     41         14  H    CARTESIAN Y    -0.829877     -0.141790  KCAL/ANGSTROM
     42         14  H    CARTESIAN Z    -1.997323     -0.194406  KCAL/ANGSTROM
     43         15  H    CARTESIAN X    -1.552014     -0.080376  KCAL/ANGSTROM
     44         15  H    CARTESIAN Y    -2.175607     -0.216396  KCAL/ANGSTROM
     45         15  H    CARTESIAN Z     0.437344      0.143176  KCAL/ANGSTROM
     46         16  H    CARTESIAN X     0.790713      0.095373  KCAL/ANGSTROM
     47         16  H    CARTESIAN Y    -1.603253     -0.051088  KCAL/ANGSTROM
     48         16  H    CARTESIAN Z    -1.062427      0.146568  KCAL/ANGSTROM
     49         17  H    CARTESIAN X     1.556146      0.087124  KCAL/ANGSTROM
     50         17  H    CARTESIAN Y     0.178157      0.181109  KCAL/ANGSTROM
     51         17  H    CARTESIAN Z     2.028042      0.004716  KCAL/ANGSTROM
     52         18  H    CARTESIAN X     0.732022      0.023790  KCAL/ANGSTROM
     53         18  H    CARTESIAN Y     1.601702     -0.247570  KCAL/ANGSTROM
     54         18  H    CARTESIAN Z     1.336434      0.090832  KCAL/ANGSTROM




   ATOM   CHEMICAL          X               Y               Z
  NUMBER   SYMBOL      (ANGSTROMS)     (ANGSTROMS)     (ANGSTROMS)

     1       C         -0.88619797  *   1.51554854  *  -0.91845270  *
     2       C         -0.70609311  *   0.06984360  *  -0.54727600  *
     3       C         -1.93745614  *  -0.76748713  *  -0.89927693  *
     4       O         -1.79737440  *  -2.11203495  *  -0.51651732  *
     5       C          0.63607563  *  -0.63660507  *  -0.61152473  *
     6       C          1.77006648  *   0.29045200  *  -0.19786130  *
     7       O          2.81009483  *   0.61293104  *  -0.66180690  *
     8       C          1.03736387  *   0.57076897  *   1.13850284  *
     9       N         -0.06592069  *  -0.37809436  *   0.72336127  *
    10       H         -1.59883289  *   2.01204873  *  -0.24197604  *
    11       H         -1.27971908  *   1.61901150  *  -1.94101091  *
    12       H          0.04581146  *   2.09543509  *  -0.89279704  *
    13       H         -2.84504360  *  -0.34905402  *  -0.42417766  *
    14       H         -2.07675699  *  -0.82987737  *  -1.99732318  *
    15       H         -1.55201363  *  -2.17560689  *   0.43734449  *
    16       H          0.79071307  *  -1.60325297  *  -1.06242657  *
    17       H          1.55614634  *   0.17815706  *   2.02804174  *
    18       H          0.73202168  *   1.60170177  *   1.33643404  *

                             CARTESIAN COORDINATES

   1    C       -0.886197971     1.515548543    -0.918452705
   2    C       -0.706093107     0.069843602    -0.547275996
   3    C       -1.937456141    -0.767487135    -0.899276931
   4    O       -1.797374398    -2.112034951    -0.516517321
   5    C        0.636075633    -0.636605072    -0.611524733
   6    C        1.770066483     0.290452001    -0.197861299
   7    O        2.810094833     0.612931042    -0.661806905
   8    C        1.037363866     0.570768974     1.138502844
   9    N       -0.065920688    -0.378094364     0.723361267
  10    H       -1.598832888     2.012048725    -0.241976041
  11    H       -1.279719077     1.619011503    -1.941010908
  12    H        0.045811462     2.095435094    -0.892797038
  13    H       -2.845043599    -0.349054019    -0.424177657
  14    H       -2.076756988    -0.829877372    -1.997323184
  15    H       -1.552013634    -2.175606888     0.437344489
  16    H        0.790713068    -1.603252969    -1.062426572
  17    H        1.556146336     0.178157056     2.028041738
  18    H        0.732021678     1.601701769     1.336434037


           Empirical Formula: C6 H9 N O2  =    18 atoms



      MOLECULAR POINT GROUP   :   C1  


                  EIGENVALUES  
 -37.53873 -31.94684 -29.69801 -27.60707 -25.66541 -24.10004 -23.60886 -19.87369
 -18.91692 -17.97236 -17.02238 -16.61814 -16.19168 -15.44791 -14.88160 -14.72905
 -14.35031 -14.01964 -13.92198 -12.89355 -12.23736 -12.08543 -11.07009 -10.80133
 -10.34809   0.10989   1.27929   1.63660   2.52205   2.66337   2.86983   3.10564
   3.21951   3.45571   3.82718   4.72213   4.83474   4.91747   4.94675   5.11087
   5.38390   5.43152   5.56493   6.06660   6.17730


              NET ATOMIC CHARGES AND DIPOLE CONTRIBUTIONS

  ATOM NO.   TYPE          CHARGE      No. of ELECS.   s-Pop       p-Pop       
    1          C          -0.470248        4.4702     1.05279     3.41746
    2          C           0.086694        3.9133     1.07108     2.84223
    3          C           0.004037        3.9960     1.08593     2.91003
    4          O          -0.535833        6.5358     1.85088     4.68495
    5          C          -0.219783        4.2198     1.11422     3.10556
    6          C           0.441816        3.5582     1.14254     2.41565
    7          O          -0.367007        6.3670     1.87052     4.49649
    8          C          -0.250520        4.2505     1.10491     3.14561
    9          N          -0.364093        5.3641     1.79784     3.56625
   10          H           0.168497        0.8315     0.83150
   11          H           0.169339        0.8307     0.83066
   12          H           0.163619        0.8364     0.83638
   13          H           0.130580        0.8694     0.86942
   14          H           0.151617        0.8484     0.84838
   15          H           0.337378        0.6626     0.66262
   16          H           0.203071        0.7969     0.79693
   17          H           0.185230        0.8148     0.81477
   18          H           0.165606        0.8344     0.83439
 DIPOLE           X         Y         Z       TOTAL
 POINT-CHG.    -2.078     2.321     0.259     3.126
 HYBRID         0.578     0.278     0.218     0.677
 SUM           -1.501     2.599     0.477     3.039


          ATOMIC ORBITAL ELECTRON POPULATIONS

     Atom    s        px        py        pz   
    1  C   1.05279   1.19710   1.03517   1.18519
    2  C   1.07108   0.94895   0.97008   0.92320
    3  C   1.08593   1.00236   0.81023   1.09744
    4  O   1.85088   1.93762   1.30610   1.44123
    5  C   1.11422   0.96749   1.12539   1.01268
    6  C   1.14254   0.81208   0.75599   0.84758
    7  O   1.87052   1.29975   1.52559   1.67115
    8  C   1.10491   0.96366   1.08101   1.10093
    9  N   1.79784   1.17654   1.30138   1.08833
   10  H   0.83150
   11  H   0.83066
   12  H   0.83638
   13  H   0.86942
   14  H   0.84838
   15  H   0.66262
   16  H   0.79693
   17  H   0.81477
   18  H   0.83439

 **********************
 *                    *
 * JOB ENDED NORMALLY *
 *                    *
 **********************



 TOTAL JOB TIME:             1.66 SECONDS

 == MOPAC DONE ==
