 *******************************************************************************
 **                                                                           **
 **                              MOPAC v23.2                                  **
 **                                                                           **
 *******************************************************************************
 **          Digital Object Identifier (DOI): 10.5281/zenodo.6511958          **
 **    Visit the DOI location for information on how to cite this program.    **
 *******************************************************************************

                              PM7 CALCULATION RESULTS

 *******************************************************************************
 *  CALCULATION DONE: (MAX THREADS = 40)             Fri Sep 19 21:30:48 2025  *
 *  PM7        - The PM7 Hamiltonian to be used
 *  EPS=37.5   - USE ANDREAS KLAMT'S COSMO IMPLICIT SOLVATION MODEL
 *  1SCF       - DO 1 SCF AND THEN STOP 
 *  T=         - A TIME OF 172800.0 SECONDS REQUESTED
 *  DUMP=N     - RESTART FILE WRITTEN EVERY 7200.0 SECONDS REQUESTED
 *  RELSCF     - DEFAULT SCF CRITERION MULTIPLIED BY 0.0001
 *              (DEFAULT SCF CRITERION = 0.00010)
 *  GRADIENTS  - ALL GRADIENTS TO BE PRINTED
 *  DISP       - PRINT DISPERSION AND HYDROGEN BOND ENERGIES
 *******************************************************************************
PM7 1SCF GRADIENTS EPS=37.5 DISP RELSCF=0.0001
 Title: ASE calculation

   ATOM   CHEMICAL          X               Y               Z
  NUMBER   SYMBOL      (ANGSTROMS)     (ANGSTROMS)     (ANGSTROMS)

     1       C         -1.50630741  *   1.72125964  *  -0.23497886  *
     2       C         -0.91713406  *   0.45580792  *   0.37107970  *
     3       C         -1.57672060  *  -0.82968563  *  -0.16892416  *
     4       C         -0.43470825  *  -1.85230875  *  -0.20665191  *
     5       O          0.78877302  *  -1.17299632  *   0.05321731  *
     6       C          0.58867047  *   0.24250374  *   0.07438094  *
     7       C          1.50126730  *   0.76464830  *   1.17564329  *
     8       C          1.02571483  *   0.76221319  *  -1.31180323  *
     9       O          2.33473654  *   0.32621888  *  -1.61017141  *
    10       H         -1.47255963  *   1.72061984  *  -1.33041753  *
    11       H         -2.55886290  *   1.83969282  *   0.05149802  *
    12       H         -0.97325562  *   2.61502929  *   0.11198663  *
    13       H         -1.05372386  *   0.49348554  *   1.47922047  *
    14       H         -2.40563383  *  -1.15565346  *   0.47735541  *
    15       H         -2.00955062  *  -0.67301740  *  -1.17041708  *
    16       H         -0.50646051  *  -2.61502929  *   0.58681624  *
    17       H         -0.31945816  *  -2.33983925  *  -1.18777932  *
    18       H          1.32709193  *   1.82747348  *   1.36917459  *
    19       H          2.55886290  *   0.64322013  *   0.89490150  *
    20       H          1.35352789  *   0.21037029  *   2.11075957  *
    21       H          0.35352019  *   0.40442002  *  -2.11075957  *
    22       H          1.10113382  *   1.86208278  *  -1.34049351  *
    23       H          2.42472225  *  -0.62182275  *  -1.36236300  *



          CARTESIAN COORDINATES 

    NO.       ATOM           X           Y           Z

     1         C         -1.5063      1.7213     -0.2350
     2         C         -0.9171      0.4558      0.3711
     3         C         -1.5767     -0.8297     -0.1689
     4         C         -0.4347     -1.8523     -0.2067
     5         O          0.7888     -1.1730      0.0532
     6         C          0.5887      0.2425      0.0744
     7         C          1.5013      0.7646      1.1756
     8         C          1.0257      0.7622     -1.3118
     9         O          2.3347      0.3262     -1.6102
    10         H         -1.4726      1.7206     -1.3304
    11         H         -2.5589      1.8397      0.0515
    12         H         -0.9733      2.6150      0.1120
    13         H         -1.0537      0.4935      1.4792
    14         H         -2.4056     -1.1557      0.4774
    15         H         -2.0096     -0.6730     -1.1704
    16         H         -0.5065     -2.6150      0.5868
    17         H         -0.3195     -2.3398     -1.1878
    18         H          1.3271      1.8275      1.3692
    19         H          2.5589      0.6432      0.8949
    20         H          1.3535      0.2104      2.1108
    21         H          0.3535      0.4044     -2.1108
    22         H          1.1011      1.8621     -1.3405
    23         H          2.4247     -0.6218     -1.3624

 General Reference for PM7:
 "Optimization of Parameters for Semiempirical Methods VI: More Modifications to the 
 NDDO Approximations and Re-optimization of Parameters", J. J. P. Stewart, J. Mol. Mod., 1:32, 19 (2013)
 https://link.springer.com/article/10.1007/s00894-012-1667-x

           Empirical Formula: C7 H14 O2  =    23 atoms



      MOLECULAR POINT GROUP   :   C1  


      RHF CALCULATION, NO. OF DOUBLY OCCUPIED LEVELS = 27

  SCF CRITERION =    0.1000E-07

 -------------------------------------------------------------------------------
 PM7 1SCF GRADIENTS EPS=37.5 DISP RELSCF=0.0001
 Title: ASE calculation



     1SCF WAS SPECIFIED, SO BFGS WAS NOT USED                 
     SCF FIELD WAS ACHIEVED                                   


                              PM7 CALCULATION
                                                       MOPAC v23.2 Linux
                                                       Fri Sep 19 21:30:49 2025




          FINAL HEAT OF FORMATION =       -117.73664 KCAL/MOL =    -492.61009 KJ/MOL

          TOTAL ENERGY            =     -37826.99945 KCAL/MOL = ELECTRONIC ENERGY + CORE-CORE REPULSION + SOLVATION ENERGY
          ENERGY OF ATOMS         =      37712.04263 KCAL/MOL
                              SUM =       -114.95683 KCAL/MOL
          DISPERSION ENERGY       =         -2.50723 KCAL/MOL
          H-BOND ENERGY           =         -0.27258 KCAL/MOL
                              SUM =       -117.73664 KCAL/MOL = FINAL HEAT OF FORMATION

          VAN DER WAALS AREA      =        168.02 SQUARE ANGSTROMS


          TOTAL ENERGY            =      -1640.33395 EV
          ELECTRONIC ENERGY       =      -2755.61565 EV 
          CORE-CORE REPULSION     =       1115.28170 EV

          DIELECTRIC ENERGY       =         -0.34331 EV
          COSMO AREA              =        168.02 SQUARE ANGSTROMS
          COSMO VOLUME            =        176.42 CUBIC ANGSTROMS

          GRADIENT NORM           =          8.76885          =       1.82843 PER ATOM
          IONIZATION POTENTIAL    =         10.040986 EV
          HOMO LUMO ENERGIES (EV) =        -10.041  2.004
          NO. OF FILLED LEVELS    =         27
          MOLECULAR WEIGHT        =        130.1864         POINT GROUP:  C1  

          MOLECULAR DIMENSIONS (Angstroms)

            Atom       Atom       Distance
            H    23    H    11     5.73535
            H    16    H    22     5.13234
            H    20    H    15     4.41347


          SCF CALCULATIONS        =          2

          WALL-CLOCK TIME         =      0.953 SECONDS
          COMPUTATION TIME        =      1.158 SECONDS

          LARGEST ATOMIC GRADIENTS

          Atom     Label                     Cartesian Gradients           Cartesian Coordinates       |Gradient|
                                           X          Y          Z        X          Y          Z

             7       C                  -2.220      2.454      2.146    1.50127    0.76465    1.17564      3.944
             8       C                   2.975     -2.050     -1.393    1.02571    0.76221   -1.31180      3.873
             3       C                  -2.672      0.027     -0.453   -1.57672   -0.82969   -0.16892      2.710
            23       H                  -1.372      2.236     -0.634    2.42472   -0.62182   -1.36236      2.699
             4       C                   2.240      0.937      0.149   -0.43471   -1.85231   -0.20665      2.433
             9       O                  -1.646      0.910      1.530    2.33474    0.32622   -1.61017      2.425
             6       C                  -0.099     -1.941     -0.702    0.58867    0.24250    0.07438      2.067
            22       H                   0.980     -1.330     -0.108    1.10113    1.86208   -1.34049      1.656
             1       C                  -1.232      0.924     -0.608   -1.50631    1.72126   -0.23498      1.655
            19       H                   0.531     -0.733     -0.941    2.55886    0.64322    0.89490      1.306



       FINAL  POINT  AND  DERIVATIVES

   PARAMETER     ATOM    TYPE            VALUE        GRADIENT
      1          1  C    CARTESIAN X    -1.506307     -1.231856  KCAL/ANGSTROM
      2          1  C    CARTESIAN Y     1.721260      0.923733  KCAL/ANGSTROM
      3          1  C    CARTESIAN Z    -0.234979     -0.608005  KCAL/ANGSTROM
      4          2  C    CARTESIAN X    -0.917134     -0.333465  KCAL/ANGSTROM
      5          2  C    CARTESIAN Y     0.455808      0.196466  KCAL/ANGSTROM
      6          2  C    CARTESIAN Z     0.371080      0.740493  KCAL/ANGSTROM
      7          3  C    CARTESIAN X    -1.576721     -2.672078  KCAL/ANGSTROM
      8          3  C    CARTESIAN Y    -0.829686      0.027273  KCAL/ANGSTROM
      9          3  C    CARTESIAN Z    -0.168924     -0.452889  KCAL/ANGSTROM
     10          4  C    CARTESIAN X    -0.434708      2.240444  KCAL/ANGSTROM
     11          4  C    CARTESIAN Y    -1.852309      0.937222  KCAL/ANGSTROM
     12          4  C    CARTESIAN Z    -0.206652      0.148757  KCAL/ANGSTROM
     13          5  O    CARTESIAN X     0.788773     -0.867537  KCAL/ANGSTROM
     14          5  O    CARTESIAN Y    -1.172996     -0.667471  KCAL/ANGSTROM
     15          5  O    CARTESIAN Z     0.053217     -0.012824  KCAL/ANGSTROM
     16          6  C    CARTESIAN X     0.588670     -0.098983  KCAL/ANGSTROM
     17          6  C    CARTESIAN Y     0.242504     -1.940953  KCAL/ANGSTROM
     18          6  C    CARTESIAN Z     0.074381     -0.702387  KCAL/ANGSTROM
     19          7  C    CARTESIAN X     1.501267     -2.219601  KCAL/ANGSTROM
     20          7  C    CARTESIAN Y     0.764648      2.454284  KCAL/ANGSTROM
     21          7  C    CARTESIAN Z     1.175643      2.145586  KCAL/ANGSTROM
     22          8  C    CARTESIAN X     1.025715      2.975441  KCAL/ANGSTROM
     23          8  C    CARTESIAN Y     0.762213     -2.050441  KCAL/ANGSTROM
     24          8  C    CARTESIAN Z    -1.311803     -1.392519  KCAL/ANGSTROM
     25          9  O    CARTESIAN X     2.334737     -1.646005  KCAL/ANGSTROM
     26          9  O    CARTESIAN Y     0.326219      0.910428  KCAL/ANGSTROM
     27          9  O    CARTESIAN Z    -1.610171      1.530241  KCAL/ANGSTROM
     28         10  H    CARTESIAN X    -1.472560      0.263195  KCAL/ANGSTROM
     29         10  H    CARTESIAN Y     1.720620      0.046412  KCAL/ANGSTROM
     30         10  H    CARTESIAN Z    -1.330418      0.436895  KCAL/ANGSTROM
     31         11  H    CARTESIAN X    -2.558863      0.474901  KCAL/ANGSTROM
     32         11  H    CARTESIAN Y     1.839693     -0.120887  KCAL/ANGSTROM
     33         11  H    CARTESIAN Z     0.051498     -0.023302  KCAL/ANGSTROM
     34         12  H    CARTESIAN X    -0.973256     -0.155968  KCAL/ANGSTROM
     35         12  H    CARTESIAN Y     2.615029     -0.576296  KCAL/ANGSTROM
     36         12  H    CARTESIAN Z     0.111987      0.037962  KCAL/ANGSTROM
     37         13  H    CARTESIAN X    -1.053724      0.122138  KCAL/ANGSTROM
     38         13  H    CARTESIAN Y     0.493486     -0.146036  KCAL/ANGSTROM
     39         13  H    CARTESIAN Z     1.479220     -0.510176  KCAL/ANGSTROM
     40         14  H    CARTESIAN X    -2.405634      0.861137  KCAL/ANGSTROM
     41         14  H    CARTESIAN Y    -1.155653      0.515319  KCAL/ANGSTROM
     42         14  H    CARTESIAN Z     0.477355      0.130398  KCAL/ANGSTROM
     43         15  H    CARTESIAN X    -2.009551      0.510371  KCAL/ANGSTROM
     44         15  H    CARTESIAN Y    -0.673017     -0.119256  KCAL/ANGSTROM
     45         15  H    CARTESIAN Z    -1.170417      0.506346  KCAL/ANGSTROM
     46         16  H    CARTESIAN X    -0.506461      0.346542  KCAL/ANGSTROM
     47         16  H    CARTESIAN Y    -2.615029      0.392641  KCAL/ANGSTROM
     48         16  H    CARTESIAN Z     0.586816      0.182793  KCAL/ANGSTROM
     49         17  H    CARTESIAN X    -0.319458      0.223619  KCAL/ANGSTROM
     50         17  H    CARTESIAN Y    -2.339839      0.100128  KCAL/ANGSTROM
     51         17  H    CARTESIAN Z    -1.187779      0.440053  KCAL/ANGSTROM
     52         18  H    CARTESIAN X     1.327092      0.460506  KCAL/ANGSTROM
     53         18  H    CARTESIAN Y     1.827473     -0.787623  KCAL/ANGSTROM
     54         18  H    CARTESIAN Z     1.369175     -0.647585  KCAL/ANGSTROM
     55         19  H    CARTESIAN X     2.558863      0.531473  KCAL/ANGSTROM
     56         19  H    CARTESIAN Y     0.643220     -0.733335  KCAL/ANGSTROM
     57         19  H    CARTESIAN Z     0.894901     -0.941348  KCAL/ANGSTROM
     58         20  H    CARTESIAN X     1.353528      0.497762  KCAL/ANGSTROM
     59         20  H    CARTESIAN Y     0.210370     -0.866588  KCAL/ANGSTROM
     60         20  H    CARTESIAN Z     2.110760     -0.693153  KCAL/ANGSTROM
     61         21  H    CARTESIAN X     0.353520      0.109331  KCAL/ANGSTROM
     62         21  H    CARTESIAN Y     0.404420      0.598998  KCAL/ANGSTROM
     63         21  H    CARTESIAN Z    -2.110760      0.426698  KCAL/ANGSTROM
     64         22  H    CARTESIAN X     1.101134      0.980129  KCAL/ANGSTROM
     65         22  H    CARTESIAN Y     1.862083     -1.330133  KCAL/ANGSTROM
     66         22  H    CARTESIAN Z    -1.340494     -0.107710  KCAL/ANGSTROM
     67         23  H    CARTESIAN X     2.424722     -1.371521  KCAL/ANGSTROM
     68         23  H    CARTESIAN Y    -0.621823      2.236118  KCAL/ANGSTROM
     69         23  H    CARTESIAN Z    -1.362363     -0.634309  KCAL/ANGSTROM




   ATOM   CHEMICAL          X               Y               Z
  NUMBER   SYMBOL      (ANGSTROMS)     (ANGSTROMS)     (ANGSTROMS)

     1       C         -1.50630741  *   1.72125964  *  -0.23497886  *
     2       C         -0.91713406  *   0.45580792  *   0.37107970  *
     3       C         -1.57672060  *  -0.82968563  *  -0.16892416  *
     4       C         -0.43470825  *  -1.85230875  *  -0.20665191  *
     5       O          0.78877302  *  -1.17299632  *   0.05321731  *
     6       C          0.58867047  *   0.24250374  *   0.07438094  *
     7       C          1.50126730  *   0.76464830  *   1.17564329  *
     8       C          1.02571483  *   0.76221319  *  -1.31180323  *
     9       O          2.33473654  *   0.32621888  *  -1.61017141  *
    10       H         -1.47255963  *   1.72061984  *  -1.33041753  *
    11       H         -2.55886290  *   1.83969282  *   0.05149802  *
    12       H         -0.97325562  *   2.61502929  *   0.11198663  *
    13       H         -1.05372386  *   0.49348554  *   1.47922047  *
    14       H         -2.40563383  *  -1.15565346  *   0.47735541  *
    15       H         -2.00955062  *  -0.67301740  *  -1.17041708  *
    16       H         -0.50646051  *  -2.61502929  *   0.58681624  *
    17       H         -0.31945816  *  -2.33983925  *  -1.18777932  *
    18       H          1.32709193  *   1.82747348  *   1.36917459  *
    19       H          2.55886290  *   0.64322013  *   0.89490150  *
    20       H          1.35352789  *   0.21037029  *   2.11075957  *
    21       H          0.35352019  *   0.40442002  *  -2.11075957  *
    22       H          1.10113382  *   1.86208278  *  -1.34049351  *
    23       H          2.42472225  *  -0.62182275  *  -1.36236300  *

                             CARTESIAN COORDINATES

   1    C       -1.506307412     1.721259640    -0.234978860
   2    C       -0.917134057     0.455807925     0.371079705
   3    C       -1.576720602    -0.829685626    -0.168924157
   4    C       -0.434708251    -1.852308755    -0.206651907
   5    O        0.788773022    -1.172996321     0.053217309
   6    C        0.588670473     0.242503738     0.074380938
   7    C        1.501267304     0.764648304     1.175643290
   8    C        1.025714827     0.762213191    -1.311803231
   9    O        2.334736545     0.326218882    -1.610171410
  10    H       -1.472559630     1.720619845    -1.330417529
  11    H       -2.558862896     1.839692824     0.051498017
  12    H       -0.973255616     2.615029294     0.111986627
  13    H       -1.053723862     0.493485544     1.479220467
  14    H       -2.405633827    -1.155653460     0.477355408
  15    H       -2.009550619    -0.673017397    -1.170417084
  16    H       -0.506460506    -2.615029294     0.586816240
  17    H       -0.319458157    -2.339839251    -1.187779325
  18    H        1.327091929     1.827473485     1.369174587
  19    H        2.558862896     0.643220131     0.894901495
  20    H        1.353527886     0.210370293     2.110759573
  21    H        0.353520190     0.404420018    -2.110759573
  22    H        1.101133816     1.862082777    -1.340493508
  23    H        2.424722255    -0.621822748    -1.362362997


           Empirical Formula: C7 H14 O2  =    23 atoms



      MOLECULAR POINT GROUP   :   C1  


                  EIGENVALUES  
 -31.24776 -29.29086 -27.91016 -26.80199 -24.66360 -23.76788 -22.32543 -20.36988
 -19.26874 -17.35290 -16.54982 -16.14925 -15.82183 -15.21551 -14.65239 -14.24493
 -13.84046 -13.41198 -13.17379 -13.03555 -12.95046 -12.10127 -11.95947 -11.67740
 -11.27382 -10.88386 -10.04099   2.00432   2.97634   3.32114   3.72717   3.88024
   4.05934   4.42041   4.57014   4.79302   5.35015   5.52045   5.64390   5.75233
   5.78237   5.81660   5.86028   5.93378   6.07272   6.16237   6.26645   6.49632
   6.94235   6.98165


              NET ATOMIC CHARGES AND DIPOLE CONTRIBUTIONS

  ATOM NO.   TYPE          CHARGE      No. of ELECS.   s-Pop       p-Pop       
    1          C          -0.461683        4.4617     1.05389     3.40779
    2          C          -0.133017        4.1330     1.07205     3.06096
    3          C          -0.330511        4.3305     1.07187     3.25864
    4          C          -0.023555        4.0236     1.09180     2.93175
    5          O          -0.491966        6.4920     1.87848     4.61349
    6          C           0.244788        3.7552     1.09744     2.65778
    7          C          -0.489990        4.4900     1.05999     3.43000
    8          C          -0.041317        4.0413     1.09710     2.94421
    9          O          -0.613997        6.6140     1.84698     4.76701
   10          H           0.155575        0.8444     0.84442
   11          H           0.155743        0.8443     0.84426
   12          H           0.155478        0.8445     0.84452
   13          H           0.153057        0.8469     0.84694
   14          H           0.155895        0.8441     0.84410
   15          H           0.157373        0.8426     0.84263
   16          H           0.135471        0.8645     0.86453
   17          H           0.133777        0.8662     0.86622
   18          H           0.164489        0.8355     0.83551
   19          H           0.166918        0.8331     0.83308
   20          H           0.164123        0.8359     0.83588
   21          H           0.134861        0.8651     0.86514
   22          H           0.150680        0.8493     0.84932
   23          H           0.357806        0.6422     0.64219
 DIPOLE           X         Y         Z       TOTAL
 POINT-CHG.    -4.327     0.627     0.870     4.458
 HYBRID         0.414    -0.429     0.032     0.597
 SUM           -3.913     0.198     0.903     4.021


          ATOMIC ORBITAL ELECTRON POPULATIONS

     Atom    s        px        py        pz   
    1  C   1.05389   1.16452   1.07827   1.16500
    2  C   1.07205   0.97793   0.96940   1.11364
    3  C   1.07187   1.07249   1.01685   1.16930
    4  C   1.09180   0.82522   0.97821   1.12833
    5  O   1.87848   1.38762   1.28508   1.94079
    6  C   1.09744   0.95152   0.75491   0.95135
    7  C   1.05999   1.14657   1.16632   1.11712
    8  C   1.09710   0.82361   1.08300   1.03760
    9  O   1.84698   1.40926   1.46191   1.89584
   10  H   0.84442
   11  H   0.84426
   12  H   0.84452
   13  H   0.84694
   14  H   0.84410
   15  H   0.84263
   16  H   0.86453
   17  H   0.86622
   18  H   0.83551
   19  H   0.83308
   20  H   0.83588
   21  H   0.86514
   22  H   0.84932
   23  H   0.64219

 **********************
 *                    *
 * JOB ENDED NORMALLY *
 *                    *
 **********************



 TOTAL JOB TIME:             1.51 SECONDS

 == MOPAC DONE ==
