 *******************************************************************************
 **                                                                           **
 **                              MOPAC v23.2                                  **
 **                                                                           **
 *******************************************************************************
 **          Digital Object Identifier (DOI): 10.5281/zenodo.6511958          **
 **    Visit the DOI location for information on how to cite this program.    **
 *******************************************************************************

                              PM7 CALCULATION RESULTS

 *******************************************************************************
 *  CALCULATION DONE: (MAX THREADS = 40)             Fri Sep 19 21:34:24 2025  *
 *  PM7        - The PM7 Hamiltonian to be used
 *
 *
 *
 *                 CHARGE ON SYSTEM = +1
 *
 *
 *
 *  1SCF       - DO 1 SCF AND THEN STOP 
 *  T=         - A TIME OF 172800.0 SECONDS REQUESTED
 *  DUMP=N     - RESTART FILE WRITTEN EVERY 7200.0 SECONDS REQUESTED
 *  RELSCF     - DEFAULT SCF CRITERION MULTIPLIED BY 0.0001
 *              (DEFAULT SCF CRITERION = 0.00010)
 *  GRADIENTS  - ALL GRADIENTS TO BE PRINTED
 *  DISP       - PRINT DISPERSION AND HYDROGEN BOND ENERGIES
 *******************************************************************************
PM7 1SCF GRADIENTS DISP RELSCF=0.0001 CHARGE=1
 Title: ASE calculation

   ATOM   CHEMICAL          X               Y               Z
  NUMBER   SYMBOL      (ANGSTROMS)     (ANGSTROMS)     (ANGSTROMS)

     1       C         -1.62126847  *  -1.14926631  *   1.19472475  *
     2       C         -1.24814491  *  -0.62388099  *  -0.18009942  *
     3       C         -0.15065519  *  -1.37781448  *  -0.91589979  *
     4       C          1.08831793  *  -0.45271834  *  -0.88563922  *
     5       C          2.14404601  *  -0.98168364  *   0.09555375  *
     6       O          1.49021676  *  -1.05571340  *   1.34996663  *
     7       C          0.51446015  *   0.91607080  *  -0.49348257  *
     8       C          1.25113875  *   1.77236485  *   0.51059951  *
     9       O         -0.78312141  *   0.70624392  *   0.05497055  *
    10       H         -2.15108071  *  -2.11572595  *   1.11149321  *
    11       H         -2.28491438  *  -0.47149129  *   1.75411608  *
    12       H         -0.72645197  *  -1.32879784  *   1.82027971  *
    13       H         -2.17847370  *  -0.45036971  *  -0.80025604  *
    14       H         -0.44039307  *  -1.63662000  *  -1.95361101  *
    15       H          0.07145103  *  -2.35434567  *  -0.42999193  *
    16       H          1.55874952  *  -0.39951980  *  -1.90056079  *
    17       H          2.49408747  *  -1.99103266  *  -0.19925550  *
    18       H          3.01515000  *  -0.30408843  *   0.18334695  *
    19       H          2.06559295  *  -1.48855844  *   2.01897545  *
    20       H          0.26395752  *   1.53511390  *  -1.41743953  *
    21       H          2.23491552  *   2.08726415  *   0.12035702  *
    22       H          0.70887586  *   2.69596878  *   0.77051784  *
    23       H          1.44281278  *   1.23638471  *   1.45996073  *



          CARTESIAN COORDINATES 

    NO.       ATOM           X           Y           Z

     1         C         -1.6213     -1.1493      1.1947
     2         C         -1.2481     -0.6239     -0.1801
     3         C         -0.1507     -1.3778     -0.9159
     4         C          1.0883     -0.4527     -0.8856
     5         C          2.1440     -0.9817      0.0956
     6         O          1.4902     -1.0557      1.3500
     7         C          0.5145      0.9161     -0.4935
     8         C          1.2511      1.7724      0.5106
     9         O         -0.7831      0.7062      0.0550
    10         H         -2.1511     -2.1157      1.1115
    11         H         -2.2849     -0.4715      1.7541
    12         H         -0.7265     -1.3288      1.8203
    13         H         -2.1785     -0.4504     -0.8003
    14         H         -0.4404     -1.6366     -1.9536
    15         H          0.0715     -2.3543     -0.4300
    16         H          1.5587     -0.3995     -1.9006
    17         H          2.4941     -1.9910     -0.1993
    18         H          3.0151     -0.3041      0.1833
    19         H          2.0656     -1.4886      2.0190
    20         H          0.2640      1.5351     -1.4174
    21         H          2.2349      2.0873      0.1204
    22         H          0.7089      2.6960      0.7705
    23         H          1.4428      1.2364      1.4600

 General Reference for PM7:
 "Optimization of Parameters for Semiempirical Methods VI: More Modifications to the 
 NDDO Approximations and Re-optimization of Parameters", J. J. P. Stewart, J. Mol. Mod., 1:32, 19 (2013)
 https://link.springer.com/article/10.1007/s00894-012-1667-x

           Empirical Formula: C7 H14 O2  =    23 atoms



      MOLECULAR POINT GROUP   :   C1  


          UHF CALCULATION, NO. OF ALPHA ELECTRONS =   27
                           NO. OF BETA  ELECTRONS =   26
  SCF CRITERION =    0.1000E-07

 -------------------------------------------------------------------------------
 PM7 1SCF GRADIENTS DISP RELSCF=0.0001 CHARGE=1
 Title: ASE calculation



     1SCF WAS SPECIFIED, SO BFGS WAS NOT USED                 
     SCF FIELD WAS ACHIEVED                                   


                              PM7 CALCULATION
                                                       MOPAC v23.2 Linux
                                                       Fri Sep 19 21:34:25 2025




          FINAL HEAT OF FORMATION =         91.68255 KCAL/MOL =     383.59977 KJ/MOL

          TOTAL ENERGY            =     -37617.84248 KCAL/MOL = ELECTRONIC ENERGY + CORE-CORE REPULSION
          ENERGY OF ATOMS         =      37712.04263 KCAL/MOL
                              SUM =         94.20015 KCAL/MOL
          DISPERSION ENERGY       =         -2.51760 KCAL/MOL
                              SUM =         91.68255 KCAL/MOL = FINAL HEAT OF FORMATION



          TOTAL ENERGY            =      -1631.26404 EV
          ELECTRONIC ENERGY       =      -8723.79541 EV 
          CORE-CORE REPULSION     =       7092.53137 EV
          COSMO AREA              =        166.06 SQUARE ANGSTROMS
          COSMO VOLUME            =        171.08 CUBIC ANGSTROMS

          GRADIENT NORM           =          0.99635          =       0.20775 PER ATOM
          IONIZATION POTENTIAL    =         14.662885 EV
          ALPHA SOMO LUMO (EV)    =        -14.663 -4.396
          BETA  SOMO LUMO (EV)    =        -14.663 -7.679
          NO. OF ALPHA ELECTRONS  =         27
          NO. OF BETA  ELECTRONS  =         26
          MOLECULAR WEIGHT        =        130.1864         POINT GROUP:  C1  

          MOLECULAR DIMENSIONS (Angstroms)

            Atom       Atom       Distance
            H    21    H    10     6.15503
            H    17    H    22     4.79109
            H    19    H    14     4.50876


          SCF CALCULATIONS        =          1

          WALL-CLOCK TIME         =      1.375 SECONDS
          COMPUTATION TIME        =      0.733 SECONDS

          LARGEST ATOMIC GRADIENTS

          Atom     Label                     Cartesian Gradients           Cartesian Coordinates       |Gradient|
                                           X          Y          Z        X          Y          Z

            20       H                  -0.216      0.075     -0.226    0.26396    1.53511   -1.41744      0.321
            15       H                   0.259      0.103      0.104    0.07145   -2.35435   -0.42999      0.297
            12       H                   0.207      0.078     -0.179   -0.72645   -1.32880    1.82028      0.285
            14       H                   0.127     -0.176     -0.184   -0.44039   -1.63662   -1.95361      0.284
            22       H                   0.184     -0.157      0.089    0.70888    2.69597    0.77052      0.258
             9       O                  -0.161      0.190      0.002   -0.78312    0.70624    0.05497      0.249
             3       C                   0.094      0.045      0.225   -0.15066   -1.37781   -0.91590      0.248
            18       H                   0.045     -0.029      0.234    3.01515   -0.30409    0.18335      0.240
             8       C                   0.039     -0.231      0.026    1.25114    1.77236    0.51060      0.235
             5       C                   0.094     -0.107     -0.150    2.14405   -0.98168    0.09555      0.207



       FINAL  POINT  AND  DERIVATIVES

   PARAMETER     ATOM    TYPE            VALUE        GRADIENT
      1          1  C    CARTESIAN X    -1.621268      0.009570  KCAL/ANGSTROM
      2          1  C    CARTESIAN Y    -1.149266      0.066860  KCAL/ANGSTROM
      3          1  C    CARTESIAN Z     1.194725     -0.046905  KCAL/ANGSTROM
      4          2  C    CARTESIAN X    -1.248145     -0.095373  KCAL/ANGSTROM
      5          2  C    CARTESIAN Y    -0.623881      0.154438  KCAL/ANGSTROM
      6          2  C    CARTESIAN Z    -0.180099      0.078913  KCAL/ANGSTROM
      7          3  C    CARTESIAN X    -0.150655      0.093835  KCAL/ANGSTROM
      8          3  C    CARTESIAN Y    -1.377814      0.044890  KCAL/ANGSTROM
      9          3  C    CARTESIAN Z    -0.915900      0.225041  KCAL/ANGSTROM
     10          4  C    CARTESIAN X     1.088318     -0.112578  KCAL/ANGSTROM
     11          4  C    CARTESIAN Y    -0.452718     -0.007198  KCAL/ANGSTROM
     12          4  C    CARTESIAN Z    -0.885639     -0.101713  KCAL/ANGSTROM
     13          5  C    CARTESIAN X     2.144046      0.094110  KCAL/ANGSTROM
     14          5  C    CARTESIAN Y    -0.981684     -0.106596  KCAL/ANGSTROM
     15          5  C    CARTESIAN Z     0.095554     -0.150287  KCAL/ANGSTROM
     16          6  O    CARTESIAN X     1.490217      0.030431  KCAL/ANGSTROM
     17          6  O    CARTESIAN Y    -1.055713     -0.017708  KCAL/ANGSTROM
     18          6  O    CARTESIAN Z     1.349967      0.093592  KCAL/ANGSTROM
     19          7  C    CARTESIAN X     0.514460     -0.027585  KCAL/ANGSTROM
     20          7  C    CARTESIAN Y     0.916071     -0.076129  KCAL/ANGSTROM
     21          7  C    CARTESIAN Z    -0.493483     -0.020962  KCAL/ANGSTROM
     22          8  C    CARTESIAN X     1.251139      0.038727  KCAL/ANGSTROM
     23          8  C    CARTESIAN Y     1.772365     -0.230522  KCAL/ANGSTROM
     24          8  C    CARTESIAN Z     0.510600      0.026297  KCAL/ANGSTROM
     25          9  O    CARTESIAN X    -0.783121     -0.160751  KCAL/ANGSTROM
     26          9  O    CARTESIAN Y     0.706244      0.190381  KCAL/ANGSTROM
     27          9  O    CARTESIAN Z     0.054971      0.002472  KCAL/ANGSTROM
     28         10  H    CARTESIAN X    -2.151081     -0.098639  KCAL/ANGSTROM
     29         10  H    CARTESIAN Y    -2.115726     -0.161022  KCAL/ANGSTROM
     30         10  H    CARTESIAN Z     1.111493     -0.028679  KCAL/ANGSTROM
     31         11  H    CARTESIAN X    -2.284914      0.031527  KCAL/ANGSTROM
     32         11  H    CARTESIAN Y    -0.471491      0.082134  KCAL/ANGSTROM
     33         11  H    CARTESIAN Z     1.754116      0.035176  KCAL/ANGSTROM
     34         12  H    CARTESIAN X    -0.726452      0.207381  KCAL/ANGSTROM
     35         12  H    CARTESIAN Y    -1.328798      0.078120  KCAL/ANGSTROM
     36         12  H    CARTESIAN Z     1.820280     -0.178977  KCAL/ANGSTROM
     37         13  H    CARTESIAN X    -2.178474     -0.156122  KCAL/ANGSTROM
     38         13  H    CARTESIAN Y    -0.450370     -0.113456  KCAL/ANGSTROM
     39         13  H    CARTESIAN Z    -0.800256     -0.065545  KCAL/ANGSTROM
     40         14  H    CARTESIAN X    -0.440393      0.127007  KCAL/ANGSTROM
     41         14  H    CARTESIAN Y    -1.636620     -0.175544  KCAL/ANGSTROM
     42         14  H    CARTESIAN Z    -1.953611     -0.184004  KCAL/ANGSTROM
     43         15  H    CARTESIAN X     0.071451      0.258963  KCAL/ANGSTROM
     44         15  H    CARTESIAN Y    -2.354346      0.102513  KCAL/ANGSTROM
     45         15  H    CARTESIAN Z    -0.429992      0.103688  KCAL/ANGSTROM
     46         16  H    CARTESIAN X     1.558750     -0.133262  KCAL/ANGSTROM
     47         16  H    CARTESIAN Y    -0.399520      0.144164  KCAL/ANGSTROM
     48         16  H    CARTESIAN Z    -1.900561     -0.025821  KCAL/ANGSTROM
     49         17  H    CARTESIAN X     2.494087     -0.148757  KCAL/ANGSTROM
     50         17  H    CARTESIAN Y    -1.991033      0.005906  KCAL/ANGSTROM
     51         17  H    CARTESIAN Z    -0.199256      0.013557  KCAL/ANGSTROM
     52         18  H    CARTESIAN X     3.015150      0.045217  KCAL/ANGSTROM
     53         18  H    CARTESIAN Y    -0.304088     -0.029184  KCAL/ANGSTROM
     54         18  H    CARTESIAN Z     0.183347      0.234392  KCAL/ANGSTROM
     55         19  H    CARTESIAN X     2.065593     -0.080087  KCAL/ANGSTROM
     56         19  H    CARTESIAN Y    -1.488558     -0.003092  KCAL/ANGSTROM
     57         19  H    CARTESIAN Z     2.018975      0.073824  KCAL/ANGSTROM
     58         20  H    CARTESIAN X     0.263958     -0.215962  KCAL/ANGSTROM
     59         20  H    CARTESIAN Y     1.535114      0.075488  KCAL/ANGSTROM
     60         20  H    CARTESIAN Z    -1.417440     -0.225562  KCAL/ANGSTROM
     61         21  H    CARTESIAN X     2.234916     -0.053787  KCAL/ANGSTROM
     62         21  H    CARTESIAN Y     2.087264      0.030562  KCAL/ANGSTROM
     63         21  H    CARTESIAN Z     0.120357      0.075644  KCAL/ANGSTROM
     64         22  H    CARTESIAN X     0.708876      0.183813  KCAL/ANGSTROM
     65         22  H    CARTESIAN Y     2.695969     -0.157112  KCAL/ANGSTROM
     66         22  H    CARTESIAN Z     0.770518      0.089036  KCAL/ANGSTROM
     67         23  H    CARTESIAN X     1.442813      0.162323  KCAL/ANGSTROM
     68         23  H    CARTESIAN Y     1.236385      0.102108  KCAL/ANGSTROM
     69         23  H    CARTESIAN Z     1.459961     -0.023178  KCAL/ANGSTROM




   ATOM   CHEMICAL          X               Y               Z
  NUMBER   SYMBOL      (ANGSTROMS)     (ANGSTROMS)     (ANGSTROMS)

     1       C         -1.62126847  *  -1.14926631  *   1.19472475  *
     2       C         -1.24814491  *  -0.62388099  *  -0.18009942  *
     3       C         -0.15065519  *  -1.37781448  *  -0.91589979  *
     4       C          1.08831793  *  -0.45271834  *  -0.88563922  *
     5       C          2.14404601  *  -0.98168364  *   0.09555375  *
     6       O          1.49021676  *  -1.05571340  *   1.34996663  *
     7       C          0.51446015  *   0.91607080  *  -0.49348257  *
     8       C          1.25113875  *   1.77236485  *   0.51059951  *
     9       O         -0.78312141  *   0.70624392  *   0.05497055  *
    10       H         -2.15108071  *  -2.11572595  *   1.11149321  *
    11       H         -2.28491438  *  -0.47149129  *   1.75411608  *
    12       H         -0.72645197  *  -1.32879784  *   1.82027971  *
    13       H         -2.17847370  *  -0.45036971  *  -0.80025604  *
    14       H         -0.44039307  *  -1.63662000  *  -1.95361101  *
    15       H          0.07145103  *  -2.35434567  *  -0.42999193  *
    16       H          1.55874952  *  -0.39951980  *  -1.90056079  *
    17       H          2.49408747  *  -1.99103266  *  -0.19925550  *
    18       H          3.01515000  *  -0.30408843  *   0.18334695  *
    19       H          2.06559295  *  -1.48855844  *   2.01897545  *
    20       H          0.26395752  *   1.53511390  *  -1.41743953  *
    21       H          2.23491552  *   2.08726415  *   0.12035702  *
    22       H          0.70887586  *   2.69596878  *   0.77051784  *
    23       H          1.44281278  *   1.23638471  *   1.45996073  *

                             CARTESIAN COORDINATES

   1    C       -1.621268471    -1.149266309     1.194724751
   2    C       -1.248144913    -0.623880988    -0.180099418
   3    C       -0.150655186    -1.377814484    -0.915899788
   4    C        1.088317929    -0.452718336    -0.885639220
   5    C        2.144046012    -0.981683638     0.095553750
   6    O        1.490216762    -1.055713398     1.349966630
   7    C        0.514460148     0.916070804    -0.493482574
   8    C        1.251138754     1.772364851     0.510599507
   9    O       -0.783121412     0.706243923     0.054970552
  10    H       -2.151080705    -2.115725946     1.111493207
  11    H       -2.284914385    -0.471491292     1.754116076
  12    H       -0.726451965    -1.328797836     1.820279712
  13    H       -2.178473695    -0.450369711    -0.800256042
  14    H       -0.440393071    -1.636620001    -1.953611009
  15    H        0.071451034    -2.354345665    -0.429991930
  16    H        1.558749516    -0.399519802    -1.900560789
  17    H        2.494087471    -1.991032655    -0.199255503
  18    H        3.015149999    -0.304088433     0.183346945
  19    H        2.065592947    -1.488558445     2.018975450
  20    H        0.263957520     1.535113898    -1.417439532
  21    H        2.234915519     2.087264148     0.120357023
  22    H        0.708875856     2.695968782     0.770517841
  23    H        1.442812776     1.236384714     1.459960729


           Empirical Formula: C7 H14 O2  =    23 atoms



      MOLECULAR POINT GROUP   :   C1  


          ALPHA EIGENVALUES  
 -39.29624 -34.38936 -32.87976 -32.51730 -30.00458 -28.24665 -26.61738 -25.72337
 -24.28217 -23.39128 -21.44393 -21.12645 -20.76634 -20.22137 -19.59860 -18.97362
 -18.57560 -18.27062 -17.86770 -17.64645 -17.48627 -17.06699 -16.81523 -16.62183
 -16.35893 -15.92882 -14.66288  -4.39559  -2.44736  -1.55397  -1.20239  -1.13867
  -1.03933  -0.85082  -0.60826  -0.28421  -0.10095   0.03958   0.99643   1.24484
   1.31701   1.39278   1.46373   1.50609   1.56518   1.76709   1.93664   2.15936
   2.58170   2.63968


           BETA EIGENVALUES 
 -36.78429 -33.75735 -32.59990 -32.25412 -29.88706 -28.12926 -26.49659 -25.41201
 -24.05896 -22.91655 -21.22920 -20.57318 -20.40734 -20.14951 -19.19912 -18.51181
 -18.44919 -18.03597 -17.67968 -17.39575 -17.34367 -16.91595 -16.62448 -16.57451
 -15.80873 -14.66300  -7.67933  -3.82807  -2.17619  -1.52342  -1.19228  -1.04524
  -0.97493  -0.78185  -0.59224  -0.24620   0.01977   0.14633   1.00167   1.24664
   1.32330   1.40605   1.47245   1.50840   1.57628   1.76814   1.93726   2.16011
   2.58303   2.64164


              NET ATOMIC CHARGES AND DIPOLE CONTRIBUTIONS

  ATOM NO.   TYPE          CHARGE      No. of ELECS.   s-Pop       p-Pop       
    1          C          -0.462264        4.4623     1.06232     3.39994
    2          C           0.010452        3.9895     1.12407     2.86548
    3          C          -0.322415        4.3224     1.07497     3.24744
    4          C          -0.158717        4.1587     1.08174     3.07698
    5          C           0.003532        3.9965     1.08932     2.90714
    6          O          -0.585154        6.5852     1.84776     4.73739
    7          C          -0.000679        4.0007     1.12718     2.87350
    8          C          -0.469076        4.4691     1.05861     3.41047
    9          O           0.177527        5.8225     1.90546     3.91702
   10          H           0.202243        0.7978     0.79776
   11          H           0.186350        0.8136     0.81365
   12          H           0.203669        0.7963     0.79633
   13          H           0.208937        0.7911     0.79106
   14          H           0.179838        0.8202     0.82016
   15          H           0.203748        0.7963     0.79625
   16          H           0.184012        0.8160     0.81599
   17          H           0.144419        0.8556     0.85558
   18          H           0.141288        0.8587     0.85871
   19          H           0.347359        0.6526     0.65264
   20          H           0.212963        0.7870     0.78704
   21          H           0.198728        0.8013     0.80127
   22          H           0.186996        0.8130     0.81300
   23          H           0.206245        0.7938     0.79376
 DIPOLE           X         Y         Z       TOTAL
 POINT-CHG.    -0.492     0.626    -2.090     2.237
 HYBRID        -0.247     0.119     0.346     0.442
 SUM           -0.739     0.745    -1.744     2.036


          ATOMIC ORBITAL ELECTRON POPULATIONS

     Atom    s        px        py        pz   
    1  C   1.06232   1.21418   1.18352   1.00225
    2  C   1.12407   1.02962   0.79809   1.03776
    3  C   1.07497   0.97638   1.11184   1.15923
    4  C   1.08174   1.02428   0.93660   1.11610
    5  C   1.08932   0.97824   1.12426   0.80465
    6  O   1.84776   1.53733   1.87423   1.32582
    7  C   1.12718   0.82075   1.03238   1.02037
    8  C   1.05861   1.15530   1.13527   1.11989
    9  O   1.90546   1.30508   1.34088   1.27106
   10  H   0.79776
   11  H   0.81365
   12  H   0.79633
   13  H   0.79106
   14  H   0.82016
   15  H   0.79625
   16  H   0.81599
   17  H   0.85558
   18  H   0.85871
   19  H   0.65264
   20  H   0.78704
   21  H   0.80127
   22  H   0.81300
   23  H   0.79376


                    (SZ)    =    0.500000
                    (S**2)  =    0.758747


          ATOMIC ORBITAL SPIN POPULATIONS

    Atom   Total    s     px     py     pz   
         Atomic
    1  C  0.0562  0.006  0.003  0.014  0.033
    2  C -0.0335 -0.007 -0.011 -0.030  0.014
    3  C -0.0002 -0.000  0.001 -0.001  0.000
    4  C  0.0076  0.000 -0.001  0.008  0.000
    5  C  0.0013  0.000  0.001  0.001  0.000
    6  O -0.0000  0.000 -0.000  0.000 -0.000
    7  C -0.0315 -0.007 -0.026 -0.006  0.008
    8  C  0.0361  0.004  0.013  0.005  0.014
    9  O  0.8518  0.018  0.145  0.097  0.593
   10  H -0.0004 -0.000
   11  H -0.0017 -0.002
   12  H -0.0009 -0.001
   13  H  0.0493  0.049
   14  H  0.0009  0.001
   15  H -0.0003 -0.000
   16  H -0.0014 -0.001
   17  H  0.0008  0.001
   18  H  0.0000  0.000
   19  H  0.0001  0.000
   20  H  0.0683  0.068
   21  H -0.0016 -0.002
   22  H -0.0009 -0.001
   23  H -0.0000 -0.000

 **********************
 *                    *
 * JOB ENDED NORMALLY *
 *                    *
 **********************



 TOTAL JOB TIME:             1.78 SECONDS

 == MOPAC DONE ==
