 *******************************************************************************
 **                                                                           **
 **                              MOPAC v23.2                                  **
 **                                                                           **
 *******************************************************************************
 **          Digital Object Identifier (DOI): 10.5281/zenodo.6511958          **
 **    Visit the DOI location for information on how to cite this program.    **
 *******************************************************************************

                              PM7 CALCULATION RESULTS

 *******************************************************************************
 *  CALCULATION DONE: (MAX THREADS = 40)             Fri Sep 19 21:30:01 2025  *
 *  PM7        - The PM7 Hamiltonian to be used
 *
 *
 *
 *                 CHARGE ON SYSTEM = +1
 *
 *
 *
 *  1SCF       - DO 1 SCF AND THEN STOP 
 *  T=         - A TIME OF 172800.0 SECONDS REQUESTED
 *  DUMP=N     - RESTART FILE WRITTEN EVERY 7200.0 SECONDS REQUESTED
 *  RELSCF     - DEFAULT SCF CRITERION MULTIPLIED BY 0.0001
 *              (DEFAULT SCF CRITERION = 0.00010)
 *  GRADIENTS  - ALL GRADIENTS TO BE PRINTED
 *  DISP       - PRINT DISPERSION AND HYDROGEN BOND ENERGIES
 *******************************************************************************
PM7 1SCF GRADIENTS DISP RELSCF=0.0001 CHARGE=1
 Title: ASE calculation

   ATOM   CHEMICAL          X               Y               Z
  NUMBER   SYMBOL      (ANGSTROMS)     (ANGSTROMS)     (ANGSTROMS)

     1       C         -0.83110375  *  -1.38587969  *   1.66301465  *
     2       C          0.01495872  *  -0.22342746  *   1.11973590  *
     3       C         -0.70241653  *   1.07719399  *   1.42826597  *
     4       N         -1.09697695  *   1.93711088  *   0.56939085  *
     5       C         -0.89092493  *   1.73300357  *  -0.84247186  *
     6       C         -0.19290297  *   0.53332925  *  -1.26878240  *
     7       C          0.29372348  *  -0.39790401  *  -0.32231094  *
     8       C          1.10659957  *  -1.54663355  *  -0.78221602  *
     9       O          1.23052675  *  -1.40118069  *  -2.17767029  *
    10       H         -1.82546656  *  -1.42958602  *   1.19548241  *
    11       H         -0.34988110  *  -2.36291998  *   1.52691210  *
    12       H         -1.00049275  *  -1.27690853  *   2.74923226  *
    13       H          0.99792800  *  -0.21967476  *   1.69223859  *
    14       H         -0.89665628  *   1.27894570  *   2.49874836  *
    15       H         -1.90860983  *   1.83954988  *  -1.35963036  *
    16       H         -0.40255973  *   2.68192454  *  -1.26396847  *
    17       H         -0.04288756  *   0.35985171  *  -2.35186960  *
    18       H          2.12693213  *  -1.55521548  *  -0.31819493  *
    19       H          0.62107745  *  -2.52678496  *  -0.53714172  *
    20       H          1.69423802  *  -2.17611663  *  -2.58398382  *



          CARTESIAN COORDINATES 

    NO.       ATOM           X           Y           Z

     1         C         -0.8311     -1.3859      1.6630
     2         C          0.0150     -0.2234      1.1197
     3         C         -0.7024      1.0772      1.4283
     4         N         -1.0970      1.9371      0.5694
     5         C         -0.8909      1.7330     -0.8425
     6         C         -0.1929      0.5333     -1.2688
     7         C          0.2937     -0.3979     -0.3223
     8         C          1.1066     -1.5466     -0.7822
     9         O          1.2305     -1.4012     -2.1777
    10         H         -1.8255     -1.4296      1.1955
    11         H         -0.3499     -2.3629      1.5269
    12         H         -1.0005     -1.2769      2.7492
    13         H          0.9979     -0.2197      1.6922
    14         H         -0.8967      1.2789      2.4987
    15         H         -1.9086      1.8395     -1.3596
    16         H         -0.4026      2.6819     -1.2640
    17         H         -0.0429      0.3599     -2.3519
    18         H          2.1269     -1.5552     -0.3182
    19         H          0.6211     -2.5268     -0.5371
    20         H          1.6942     -2.1761     -2.5840

 General Reference for PM7:
 "Optimization of Parameters for Semiempirical Methods VI: More Modifications to the 
 NDDO Approximations and Re-optimization of Parameters", J. J. P. Stewart, J. Mol. Mod., 1:32, 19 (2013)
 https://link.springer.com/article/10.1007/s00894-012-1667-x

           Empirical Formula: C7 H11 N O  =    20 atoms



      MOLECULAR POINT GROUP   :   C1  


          UHF CALCULATION, NO. OF ALPHA ELECTRONS =   25
                           NO. OF BETA  ELECTRONS =   24
  SCF CRITERION =    0.1000E-07

 -------------------------------------------------------------------------------
 PM7 1SCF GRADIENTS DISP RELSCF=0.0001 CHARGE=1
 Title: ASE calculation



     1SCF WAS SPECIFIED, SO BFGS WAS NOT USED                 
     SCF FIELD WAS ACHIEVED                                   


                              PM7 CALCULATION
                                                       MOPAC v23.2 Linux
                                                       Fri Sep 19 21:30:02 2025




          FINAL HEAT OF FORMATION =        178.09770 KCAL/MOL =     745.16078 KJ/MOL

          TOTAL ENERGY            =     -34143.66243 KCAL/MOL = ELECTRONIC ENERGY + CORE-CORE REPULSION
          ENERGY OF ATOMS         =      34323.93363 KCAL/MOL
                              SUM =        180.27120 KCAL/MOL
          DISPERSION ENERGY       =         -2.17350 KCAL/MOL
                              SUM =        178.09770 KCAL/MOL = FINAL HEAT OF FORMATION



          TOTAL ENERGY            =      -1480.60934 EV
          ELECTRONIC ENERGY       =      -7337.58804 EV 
          CORE-CORE REPULSION     =       5856.97870 EV
          COSMO AREA              =        164.34 SQUARE ANGSTROMS
          COSMO VOLUME            =        163.07 CUBIC ANGSTROMS

          GRADIENT NORM           =          1.22413          =       0.27372 PER ATOM
          IONIZATION POTENTIAL    =         14.640197 EV
          ALPHA SOMO LUMO (EV)    =        -14.645 -5.921
          BETA  SOMO LUMO (EV)    =        -14.640 -7.913
          NO. OF ALPHA ELECTRONS  =         25
          NO. OF BETA  ELECTRONS  =         24
          MOLECULAR WEIGHT        =        125.1700         POINT GROUP:  C1  

          MOLECULAR DIMENSIONS (Angstroms)

            Atom       Atom       Distance
            H    20    H    14     6.66966
            H    16    H    11     5.74328
            H    15    H    18     3.40309


          SCF CALCULATIONS        =          1

          WALL-CLOCK TIME         =      1.109 SECONDS
          COMPUTATION TIME        =      0.723 SECONDS

          LARGEST ATOMIC GRADIENTS

          Atom     Label                     Cartesian Gradients           Cartesian Coordinates       |Gradient|
                                           X          Y          Z        X          Y          Z

             6       C                   0.076     -0.291      0.206   -0.19290    0.53333   -1.26878      0.364
            20       H                  -0.169     -0.017     -0.320    1.69424   -2.17612   -2.58398      0.362
             4       N                  -0.221     -0.162     -0.234   -1.09698    1.93711    0.56939      0.360
             9       O                   0.021      0.288      0.185    1.23053   -1.40118   -2.17767      0.343
            13       H                  -0.298      0.050     -0.154    0.99793   -0.21967    1.69224      0.339
             1       C                  -0.159      0.229      0.147   -0.83110   -1.38588    1.66301      0.315
             8       C                   0.176     -0.103     -0.235    1.10660   -1.54663   -0.78222      0.311
             7       C                   0.020     -0.263      0.136    0.29372   -0.39790   -0.32231      0.297
             5       C                   0.225     -0.088      0.170   -0.89092    1.73300   -0.84247      0.296
            16       H                  -0.070     -0.002     -0.280   -0.40256    2.68192   -1.26397      0.289



       FINAL  POINT  AND  DERIVATIVES

   PARAMETER     ATOM    TYPE            VALUE        GRADIENT
      1          1  C    CARTESIAN X    -0.831104     -0.158592  KCAL/ANGSTROM
      2          1  C    CARTESIAN Y    -1.385880      0.228531  KCAL/ANGSTROM
      3          1  C    CARTESIAN Z     1.663015      0.147330  KCAL/ANGSTROM
      4          2  C    CARTESIAN X     0.014959     -0.112108  KCAL/ANGSTROM
      5          2  C    CARTESIAN Y    -0.223427     -0.003870  KCAL/ANGSTROM
      6          2  C    CARTESIAN Z     1.119736      0.227576  KCAL/ANGSTROM
      7          3  C    CARTESIAN X    -0.702417     -0.002843  KCAL/ANGSTROM
      8          3  C    CARTESIAN Y     1.077194      0.151820  KCAL/ANGSTROM
      9          3  C    CARTESIAN Z     1.428266     -0.097821  KCAL/ANGSTROM
     10          4  N    CARTESIAN X    -1.096977     -0.220648  KCAL/ANGSTROM
     11          4  N    CARTESIAN Y     1.937111     -0.162497  KCAL/ANGSTROM
     12          4  N    CARTESIAN Z     0.569391     -0.234088  KCAL/ANGSTROM
     13          5  C    CARTESIAN X    -0.890925      0.224999  KCAL/ANGSTROM
     14          5  C    CARTESIAN Y     1.733004     -0.088110  KCAL/ANGSTROM
     15          5  C    CARTESIAN Z    -0.842472      0.170396  KCAL/ANGSTROM
     16          6  C    CARTESIAN X    -0.192903      0.076105  KCAL/ANGSTROM
     17          6  C    CARTESIAN Y     0.533329     -0.290545  KCAL/ANGSTROM
     18          6  C    CARTESIAN Z    -1.268782      0.206487  KCAL/ANGSTROM
     19          7  C    CARTESIAN X     0.293723      0.019650  KCAL/ANGSTROM
     20          7  C    CARTESIAN Y    -0.397904     -0.263248  KCAL/ANGSTROM
     21          7  C    CARTESIAN Z    -0.322311      0.136037  KCAL/ANGSTROM
     22          8  C    CARTESIAN X     1.106600      0.176196  KCAL/ANGSTROM
     23          8  C    CARTESIAN Y    -1.546634     -0.102676  KCAL/ANGSTROM
     24          8  C    CARTESIAN Z    -0.782216     -0.234609  KCAL/ANGSTROM
     25          9  O    CARTESIAN X     1.230527      0.021397  KCAL/ANGSTROM
     26          9  O    CARTESIAN Y    -1.401181      0.287857  KCAL/ANGSTROM
     27          9  O    CARTESIAN Z    -2.177670      0.184935  KCAL/ANGSTROM
     28         10  H    CARTESIAN X    -1.825467      0.006359  KCAL/ANGSTROM
     29         10  H    CARTESIAN Y    -1.429586      0.090034  KCAL/ANGSTROM
     30         10  H    CARTESIAN Z     1.195482     -0.045490  KCAL/ANGSTROM
     31         11  H    CARTESIAN X    -0.349881     -0.088328  KCAL/ANGSTROM
     32         11  H    CARTESIAN Y    -2.362920     -0.013762  KCAL/ANGSTROM
     33         11  H    CARTESIAN Z     1.526912     -0.188167  KCAL/ANGSTROM
     34         12  H    CARTESIAN X    -1.000493      0.272351  KCAL/ANGSTROM
     35         12  H    CARTESIAN Y    -1.276909      0.053475  KCAL/ANGSTROM
     36         12  H    CARTESIAN Z     2.749232      0.016648  KCAL/ANGSTROM
     37         13  H    CARTESIAN X     0.997928     -0.297646  KCAL/ANGSTROM
     38         13  H    CARTESIAN Y    -0.219675      0.049644  KCAL/ANGSTROM
     39         13  H    CARTESIAN Z     1.692239     -0.154267  KCAL/ANGSTROM
     40         14  H    CARTESIAN X    -0.896656     -0.028693  KCAL/ANGSTROM
     41         14  H    CARTESIAN Y     1.278946     -0.080387  KCAL/ANGSTROM
     42         14  H    CARTESIAN Z     2.498748      0.054805  KCAL/ANGSTROM
     43         15  H    CARTESIAN X    -1.908610      0.040266  KCAL/ANGSTROM
     44         15  H    CARTESIAN Y     1.839550      0.011771  KCAL/ANGSTROM
     45         15  H    CARTESIAN Z    -1.359630      0.258777  KCAL/ANGSTROM
     46         16  H    CARTESIAN X    -0.402560     -0.069581  KCAL/ANGSTROM
     47         16  H    CARTESIAN Y     2.681925     -0.002236  KCAL/ANGSTROM
     48         16  H    CARTESIAN Z    -1.263968     -0.279996  KCAL/ANGSTROM
     49         17  H    CARTESIAN X    -0.042888      0.255534  KCAL/ANGSTROM
     50         17  H    CARTESIAN Y     0.359852      0.087926  KCAL/ANGSTROM
     51         17  H    CARTESIAN Z    -2.351870      0.085613  KCAL/ANGSTROM
     52         18  H    CARTESIAN X     2.126932      0.055414  KCAL/ANGSTROM
     53         18  H    CARTESIAN Y    -1.555215      0.055966  KCAL/ANGSTROM
     54         18  H    CARTESIAN Z    -0.318195     -0.070970  KCAL/ANGSTROM
     55         19  H    CARTESIAN X     0.621077     -0.001291  KCAL/ANGSTROM
     56         19  H    CARTESIAN Y    -2.526785      0.007002  KCAL/ANGSTROM
     57         19  H    CARTESIAN Z    -0.537142      0.137263  KCAL/ANGSTROM
     58         20  H    CARTESIAN X     1.694238     -0.168546  KCAL/ANGSTROM
     59         20  H    CARTESIAN Y    -2.176117     -0.016697  KCAL/ANGSTROM
     60         20  H    CARTESIAN Z    -2.583984     -0.320461  KCAL/ANGSTROM




   ATOM   CHEMICAL          X               Y               Z
  NUMBER   SYMBOL      (ANGSTROMS)     (ANGSTROMS)     (ANGSTROMS)

     1       C         -0.83110375  *  -1.38587969  *   1.66301465  *
     2       C          0.01495872  *  -0.22342746  *   1.11973590  *
     3       C         -0.70241653  *   1.07719399  *   1.42826597  *
     4       N         -1.09697695  *   1.93711088  *   0.56939085  *
     5       C         -0.89092493  *   1.73300357  *  -0.84247186  *
     6       C         -0.19290297  *   0.53332925  *  -1.26878240  *
     7       C          0.29372348  *  -0.39790401  *  -0.32231094  *
     8       C          1.10659957  *  -1.54663355  *  -0.78221602  *
     9       O          1.23052675  *  -1.40118069  *  -2.17767029  *
    10       H         -1.82546656  *  -1.42958602  *   1.19548241  *
    11       H         -0.34988110  *  -2.36291998  *   1.52691210  *
    12       H         -1.00049275  *  -1.27690853  *   2.74923226  *
    13       H          0.99792800  *  -0.21967476  *   1.69223859  *
    14       H         -0.89665628  *   1.27894570  *   2.49874836  *
    15       H         -1.90860983  *   1.83954988  *  -1.35963036  *
    16       H         -0.40255973  *   2.68192454  *  -1.26396847  *
    17       H         -0.04288756  *   0.35985171  *  -2.35186960  *
    18       H          2.12693213  *  -1.55521548  *  -0.31819493  *
    19       H          0.62107745  *  -2.52678496  *  -0.53714172  *
    20       H          1.69423802  *  -2.17611663  *  -2.58398382  *

                             CARTESIAN COORDINATES

   1    C       -0.831103749    -1.385879690     1.663014646
   2    C        0.014958720    -0.223427460     1.119735905
   3    C       -0.702416533     1.077193988     1.428265975
   4    N       -1.096976949     1.937110882     0.569390852
   5    C       -0.890924931     1.733003572    -0.842471862
   6    C       -0.192902971     0.533329245    -1.268782401
   7    C        0.293723478    -0.397904010    -0.322310937
   8    C        1.106599571    -1.546633548    -0.782216023
   9    O        1.230526747    -1.401180694    -2.177670294
  10    H       -1.825466564    -1.429586021     1.195482406
  11    H       -0.349881097    -2.362919975     1.526912098
  12    H       -1.000492748    -1.276908530     2.749232258
  13    H        0.997927996    -0.219674765     1.692238587
  14    H       -0.896656284     1.278945703     2.498748357
  15    H       -1.908609826     1.839549878    -1.359630355
  16    H       -0.402559727     2.681924542    -1.263968473
  17    H       -0.042887557     0.359851706    -2.351869604
  18    H        2.126932133    -1.555215479    -0.318194928
  19    H        0.621077445    -2.526784964    -0.537141717
  20    H        1.694238016    -2.176116634    -2.583983816


           Empirical Formula: C7 H11 N O  =    20 atoms



      MOLECULAR POINT GROUP   :   C1  


          ALPHA EIGENVALUES  
 -40.14128 -35.28102 -33.64904 -32.45133 -30.04700 -28.51686 -26.58381 -25.69871
 -22.82942 -22.14225 -21.63178 -21.04922 -20.83825 -20.17240 -19.70163 -19.16210
 -18.74459 -18.08326 -17.69444 -17.37922 -17.00761 -16.50706 -15.51795 -14.82319
 -14.64533  -5.92135  -3.64312  -2.47260  -2.12995  -1.81082  -1.69516  -1.49259
  -1.32320  -0.88212  -0.63753  -0.07536   0.13797   0.29374   0.42718   0.52315
   0.59510   1.10780   1.23347   1.30729   1.45255   1.77221   2.41109


           BETA EIGENVALUES 
 -40.11977 -35.16116 -33.60487 -32.32537 -29.97829 -28.40400 -26.48708 -25.60283
 -22.77021 -22.06965 -21.42365 -20.80260 -20.72969 -19.96163 -19.51699 -19.09609
 -18.58525 -18.04793 -17.62460 -17.33672 -16.92737 -15.76982 -15.31924 -14.64020
  -7.91294  -4.64720  -3.55202  -2.43008  -2.04011  -1.70665  -1.61317  -1.39256
  -1.19369  -0.81592  -0.58048   0.07179   0.21325   0.36660   0.48306   0.58351
   0.65987   1.11704   1.24161   1.31374   1.45479   1.77861   2.41275


              NET ATOMIC CHARGES AND DIPOLE CONTRIBUTIONS

  ATOM NO.   TYPE          CHARGE      No. of ELECS.   s-Pop       p-Pop       
    1          C          -0.420884        4.4209     1.05620     3.36468
    2          C          -0.241017        4.2410     1.06866     3.17236
    3          C           0.077100        3.9229     1.11905     2.80385
    4          N          -0.307991        5.3080     1.74031     3.56768
    5          C          -0.210917        4.2109     1.06857     3.14235
    6          C           0.046314        3.9537     1.15908     2.79461
    7          C           0.185014        3.8150     1.14463     2.67035
    8          C          -0.060398        4.0604     1.08522     2.97518
    9          O          -0.543373        6.5434     1.85031     4.69306
   10          H           0.174382        0.8256     0.82562
   11          H           0.169046        0.8310     0.83095
   12          H           0.191978        0.8080     0.80802
   13          H           0.223794        0.7762     0.77621
   14          H           0.211947        0.7881     0.78805
   15          H           0.261255        0.7387     0.73875
   16          H           0.263446        0.7366     0.73655
   17          H           0.225548        0.7745     0.77445
   18          H           0.194451        0.8055     0.80555
   19          H           0.193386        0.8066     0.80661
   20          H           0.366921        0.6331     0.63308
 DIPOLE           X         Y         Z       TOTAL
 POINT-CHG.     1.063    -1.937    -0.317     2.232
 HYBRID         0.573    -0.780    -0.763     1.232
 SUM            1.636    -2.718    -1.079     3.350


          ATOMIC ORBITAL ELECTRON POPULATIONS

     Atom    s        px        py        pz   
    1  C   1.05620   1.12568   1.04678   1.19221
    2  C   1.06866   1.12696   1.06094   0.98445
    3  C   1.11905   0.88745   0.86436   1.05204
    4  N   1.74031   1.19402   1.32489   1.04877
    5  C   1.06857   1.13517   1.04828   0.95890
    6  C   1.15908   0.75900   0.92388   1.11173
    7  C   1.14463   0.77585   0.90427   0.99024
    8  C   1.08522   1.09761   1.04299   0.83458
    9  O   1.85031   1.85990   1.57893   1.25423
   10  H   0.82562
   11  H   0.83095
   12  H   0.80802
   13  H   0.77621
   14  H   0.78805
   15  H   0.73875
   16  H   0.73655
   17  H   0.77445
   18  H   0.80555
   19  H   0.80661
   20  H   0.63308


                    (SZ)    =    0.500000
                    (S**2)  =    0.752570


          ATOMIC ORBITAL SPIN POPULATIONS

    Atom   Total    s     px     py     pz   
         Atomic
    1  C  0.0344  0.004  0.009  0.016  0.005
    2  C -0.0084 -0.003  0.007 -0.000 -0.012
    3  C  0.0203  0.000  0.013  0.006  0.001
    4  N -0.0024  0.000  0.001 -0.002 -0.001
    5  C  0.0237 -0.004  0.033 -0.004 -0.002
    6  C  0.4009  0.008  0.294  0.091  0.008
    7  C  0.3870  0.008  0.250  0.116  0.014
    8  C -0.0065 -0.003  0.002 -0.004 -0.001
    9  O  0.0034  0.000  0.002  0.001  0.000
   10  H -0.0008 -0.001
   11  H -0.0009 -0.001
   12  H -0.0008 -0.001
   13  H  0.0254  0.025
   14  H -0.0008 -0.001
   15  H  0.0444  0.044
   16  H  0.0435  0.043
   17  H -0.0111 -0.011
   18  H  0.0236  0.024
   19  H  0.0257  0.026
   20  H -0.0006 -0.001

 **********************
 *                    *
 * JOB ENDED NORMALLY *
 *                    *
 **********************



 TOTAL JOB TIME:             1.63 SECONDS

 == MOPAC DONE ==
