 *******************************************************************************
 **                                                                           **
 **                              MOPAC v23.2                                  **
 **                                                                           **
 *******************************************************************************
 **          Digital Object Identifier (DOI): 10.5281/zenodo.6511958          **
 **    Visit the DOI location for information on how to cite this program.    **
 *******************************************************************************

                              PM7 CALCULATION RESULTS

 *******************************************************************************
 *  CALCULATION DONE: (MAX THREADS = 40)             Fri Sep 19 21:33:24 2025  *
 *  PM7        - The PM7 Hamiltonian to be used
 *  1SCF       - DO 1 SCF AND THEN STOP 
 *  T=         - A TIME OF 172800.0 SECONDS REQUESTED
 *  DUMP=N     - RESTART FILE WRITTEN EVERY 7200.0 SECONDS REQUESTED
 *  RELSCF     - DEFAULT SCF CRITERION MULTIPLIED BY 0.0001
 *              (DEFAULT SCF CRITERION = 0.00010)
 *  GRADIENTS  - ALL GRADIENTS TO BE PRINTED
 *  DISP       - PRINT DISPERSION AND HYDROGEN BOND ENERGIES
 *******************************************************************************
PM7 1SCF GRADIENTS DISP RELSCF=0.0001
 Title: ASE calculation

   ATOM   CHEMICAL          X               Y               Z
  NUMBER   SYMBOL      (ANGSTROMS)     (ANGSTROMS)     (ANGSTROMS)

     1       O          1.77524903  *  -2.15783239  *  -0.95310818  *
     2       C          1.44968099  *  -1.49008263  *   0.25460176  *
     3       C          0.92009071  *  -0.09900975  *  -0.05552739  *
     4       C          0.40617256  *   0.69145460  *   1.19739588  *
     5       C         -1.06891379  *   0.95963358  *   0.76458953  *
     6       C         -0.88249670  *   1.37311430  *  -0.74655768  *
     7       C         -0.42288345  *  -0.12531832  *  -0.85911486  *
     8       O         -0.45600101  *  -0.72625517  *  -2.08108958  *
     9       C         -1.49509363  *  -0.46389197  *   0.25046503  *
    10       H          2.51127488  *  -1.70719720  *  -1.41293216  *
    11       H          0.68649219  *  -2.15858213  *   0.69838955  *
    12       H          2.33755422  *  -1.46455880  *   0.91019158  *
    13       H          1.68309711  *   0.48109778  *  -0.60922967  *
    14       H          0.96645363  *   1.61946583  *   1.35818672  *
    15       H          0.46257899  *   0.10490216  *   2.12140805  *
    16       H         -1.70191322  *   1.52872354  *   1.42048650  *
    17       H         -0.14410729  *   2.13770933  *  -0.96556427  *
    18       H         -1.80079635  *   1.61053428  *  -1.28169964  *
    19       H          0.08941787  *  -1.55573576  *  -2.06476059  *
    20       H         -2.51586297  *  -0.53826038  *  -0.12232513  *
    21       H         -1.30216372  *  -1.30681088  *   0.90352166  *



          CARTESIAN COORDINATES 

    NO.       ATOM           X           Y           Z

     1         O          1.7752     -2.1578     -0.9531
     2         C          1.4497     -1.4901      0.2546
     3         C          0.9201     -0.0990     -0.0555
     4         C          0.4062      0.6915      1.1974
     5         C         -1.0689      0.9596      0.7646
     6         C         -0.8825      1.3731     -0.7466
     7         C         -0.4229     -0.1253     -0.8591
     8         O         -0.4560     -0.7263     -2.0811
     9         C         -1.4951     -0.4639      0.2505
    10         H          2.5113     -1.7072     -1.4129
    11         H          0.6865     -2.1586      0.6984
    12         H          2.3376     -1.4646      0.9102
    13         H          1.6831      0.4811     -0.6092
    14         H          0.9665      1.6195      1.3582
    15         H          0.4626      0.1049      2.1214
    16         H         -1.7019      1.5287      1.4205
    17         H         -0.1441      2.1377     -0.9656
    18         H         -1.8008      1.6105     -1.2817
    19         H          0.0894     -1.5557     -2.0648
    20         H         -2.5159     -0.5383     -0.1223
    21         H         -1.3022     -1.3068      0.9035

 General Reference for PM7:
 "Optimization of Parameters for Semiempirical Methods VI: More Modifications to the 
 NDDO Approximations and Re-optimization of Parameters", J. J. P. Stewart, J. Mol. Mod., 1:32, 19 (2013)
 https://link.springer.com/article/10.1007/s00894-012-1667-x

           Empirical Formula: C7 H12 O2  =    21 atoms



      MOLECULAR POINT GROUP   :   C1  


      RHF CALCULATION, NO. OF DOUBLY OCCUPIED LEVELS = 26

  SCF CRITERION =    0.1000E-07

 -------------------------------------------------------------------------------
 PM7 1SCF GRADIENTS DISP RELSCF=0.0001
 Title: ASE calculation



     1SCF WAS SPECIFIED, SO BFGS WAS NOT USED                 
     SCF FIELD WAS ACHIEVED                                   


                              PM7 CALCULATION
                                                       MOPAC v23.2 Linux
                                                       Fri Sep 19 21:33:24 2025




          FINAL HEAT OF FORMATION =        -65.89189 KCAL/MOL =    -275.69166 KJ/MOL

          TOTAL ENERGY            =     -37160.27388 KCAL/MOL = ELECTRONIC ENERGY + CORE-CORE REPULSION
          ENERGY OF ATOMS         =      37097.27293 KCAL/MOL
                              SUM =        -63.00095 KCAL/MOL
          DISPERSION ENERGY       =         -1.89590 KCAL/MOL
          H-BOND ENERGY           =         -0.99504 KCAL/MOL
                              SUM =        -65.89189 KCAL/MOL = FINAL HEAT OF FORMATION



          TOTAL ENERGY            =      -1611.42199 EV
          ELECTRONIC ENERGY       =      -8231.14548 EV 
          CORE-CORE REPULSION     =       6619.72349 EV
          COSMO AREA              =        158.80 SQUARE ANGSTROMS
          COSMO VOLUME            =        162.78 CUBIC ANGSTROMS

          GRADIENT NORM           =          1.10743          =       0.24166 PER ATOM
          IONIZATION POTENTIAL    =         10.184634 EV
          HOMO LUMO ENERGIES (EV) =        -10.185  2.320
          NO. OF FILLED LEVELS    =         26
          MOLECULAR WEIGHT        =        128.1706         POINT GROUP:  C1  

          MOLECULAR DIMENSIONS (Angstroms)

            Atom       Atom       Distance
            H    16    H    10     6.02083
            H    12    H    18     4.36080
            H    20    H    14     3.79436


          SCF CALCULATIONS        =          1

          WALL-CLOCK TIME         =      0.398 SECONDS
          COMPUTATION TIME        =      0.851 SECONDS

          LARGEST ATOMIC GRADIENTS

          Atom     Label                     Cartesian Gradients           Cartesian Coordinates       |Gradient|
                                           X          Y          Z        X          Y          Z

            15       H                  -0.003     -0.397      0.007    0.46258    0.10490    2.12141      0.397
            14       H                   0.245      0.104     -0.210    0.96645    1.61947    1.35819      0.339
             7       C                  -0.201      0.141      0.203   -0.42288   -0.12532   -0.85911      0.319
            20       H                  -0.312     -0.013      0.047   -2.51586   -0.53826   -0.12233      0.316
             8       O                  -0.078     -0.199     -0.204   -0.45600   -0.72626   -2.08109      0.296
            18       H                   0.065      0.270     -0.013   -1.80080    1.61053   -1.28170      0.278
            10       H                   0.258      0.007      0.087    2.51127   -1.70720   -1.41293      0.272
             1       O                   0.182      0.141      0.111    1.77525   -2.15783   -0.95311      0.256
            13       H                   0.008      0.098     -0.216    1.68310    0.48110   -0.60923      0.237
             5       C                  -0.136     -0.100     -0.146   -1.06891    0.95963    0.76459      0.223



       FINAL  POINT  AND  DERIVATIVES

   PARAMETER     ATOM    TYPE            VALUE        GRADIENT
      1          1  O    CARTESIAN X     1.775249      0.182092  KCAL/ANGSTROM
      2          1  O    CARTESIAN Y    -2.157832      0.141475  KCAL/ANGSTROM
      3          1  O    CARTESIAN Z    -0.953108      0.111157  KCAL/ANGSTROM
      4          2  C    CARTESIAN X     1.449681      0.018231  KCAL/ANGSTROM
      5          2  C    CARTESIAN Y    -1.490083      0.012773  KCAL/ANGSTROM
      6          2  C    CARTESIAN Z     0.254602      0.145617  KCAL/ANGSTROM
      7          3  C    CARTESIAN X     0.920091      0.083998  KCAL/ANGSTROM
      8          3  C    CARTESIAN Y    -0.099010      0.058455  KCAL/ANGSTROM
      9          3  C    CARTESIAN Z    -0.055527      0.152145  KCAL/ANGSTROM
     10          4  C    CARTESIAN X     0.406173     -0.034094  KCAL/ANGSTROM
     11          4  C    CARTESIAN Y     0.691455      0.056277  KCAL/ANGSTROM
     12          4  C    CARTESIAN Z     1.197396      0.161397  KCAL/ANGSTROM
     13          5  C    CARTESIAN X    -1.068914     -0.136299  KCAL/ANGSTROM
     14          5  C    CARTESIAN Y     0.959634     -0.099558  KCAL/ANGSTROM
     15          5  C    CARTESIAN Z     0.764590     -0.146017  KCAL/ANGSTROM
     16          6  C    CARTESIAN X    -0.882497      0.119651  KCAL/ANGSTROM
     17          6  C    CARTESIAN Y     1.373114     -0.069688  KCAL/ANGSTROM
     18          6  C    CARTESIAN Z    -0.746558     -0.119695  KCAL/ANGSTROM
     19          7  C    CARTESIAN X    -0.422883     -0.200661  KCAL/ANGSTROM
     20          7  C    CARTESIAN Y    -0.125318      0.140838  KCAL/ANGSTROM
     21          7  C    CARTESIAN Z    -0.859115      0.203332  KCAL/ANGSTROM
     22          8  O    CARTESIAN X    -0.456001     -0.078464  KCAL/ANGSTROM
     23          8  O    CARTESIAN Y    -0.726255     -0.199188  KCAL/ANGSTROM
     24          8  O    CARTESIAN Z    -2.081090     -0.203706  KCAL/ANGSTROM
     25          9  C    CARTESIAN X    -1.495094     -0.147236  KCAL/ANGSTROM
     26          9  C    CARTESIAN Y    -0.463892     -0.091720  KCAL/ANGSTROM
     27          9  C    CARTESIAN Z     0.250465      0.045359  KCAL/ANGSTROM
     28         10  H    CARTESIAN X     2.511275      0.258198  KCAL/ANGSTROM
     29         10  H    CARTESIAN Y    -1.707197      0.006679  KCAL/ANGSTROM
     30         10  H    CARTESIAN Z    -1.412932      0.086735  KCAL/ANGSTROM
     31         11  H    CARTESIAN X     0.686492     -0.091478  KCAL/ANGSTROM
     32         11  H    CARTESIAN Y    -2.158582     -0.132331  KCAL/ANGSTROM
     33         11  H    CARTESIAN Z     0.698390     -0.095786  KCAL/ANGSTROM
     34         12  H    CARTESIAN X     2.337554      0.076839  KCAL/ANGSTROM
     35         12  H    CARTESIAN Y    -1.464559      0.116522  KCAL/ANGSTROM
     36         12  H    CARTESIAN Z     0.910192     -0.114931  KCAL/ANGSTROM
     37         13  H    CARTESIAN X     1.683097      0.007766  KCAL/ANGSTROM
     38         13  H    CARTESIAN Y     0.481098      0.098202  KCAL/ANGSTROM
     39         13  H    CARTESIAN Z    -0.609230     -0.215894  KCAL/ANGSTROM
     40         14  H    CARTESIAN X     0.966454      0.245256  KCAL/ANGSTROM
     41         14  H    CARTESIAN Y     1.619466      0.104191  KCAL/ANGSTROM
     42         14  H    CARTESIAN Z     1.358187     -0.210119  KCAL/ANGSTROM
     43         15  H    CARTESIAN X     0.462579     -0.002638  KCAL/ANGSTROM
     44         15  H    CARTESIAN Y     0.104902     -0.396640  KCAL/ANGSTROM
     45         15  H    CARTESIAN Z     2.121408      0.007455  KCAL/ANGSTROM
     46         16  H    CARTESIAN X    -1.701913     -0.035681  KCAL/ANGSTROM
     47         16  H    CARTESIAN Y     1.528724      0.095623  KCAL/ANGSTROM
     48         16  H    CARTESIAN Z     1.420486      0.047600  KCAL/ANGSTROM
     49         17  H    CARTESIAN X    -0.144107      0.113819  KCAL/ANGSTROM
     50         17  H    CARTESIAN Y     2.137709      0.092050  KCAL/ANGSTROM
     51         17  H    CARTESIAN Z    -0.965564      0.059751  KCAL/ANGSTROM
     52         18  H    CARTESIAN X    -1.800796      0.064649  KCAL/ANGSTROM
     53         18  H    CARTESIAN Y     1.610534      0.270459  KCAL/ANGSTROM
     54         18  H    CARTESIAN Z    -1.281700     -0.013012  KCAL/ANGSTROM
     55         19  H    CARTESIAN X     0.089418     -0.059361  KCAL/ANGSTROM
     56         19  H    CARTESIAN Y    -1.555736     -0.136158  KCAL/ANGSTROM
     57         19  H    CARTESIAN Z    -2.064761     -0.137824  KCAL/ANGSTROM
     58         20  H    CARTESIAN X    -2.515863     -0.312151  KCAL/ANGSTROM
     59         20  H    CARTESIAN Y    -0.538260     -0.013231  KCAL/ANGSTROM
     60         20  H    CARTESIAN Z    -0.122325      0.047431  KCAL/ANGSTROM
     61         21  H    CARTESIAN X    -1.302164     -0.072487  KCAL/ANGSTROM
     62         21  H    CARTESIAN Y    -1.306811     -0.055073  KCAL/ANGSTROM
     63         21  H    CARTESIAN Z     0.903522      0.189005  KCAL/ANGSTROM




   ATOM   CHEMICAL          X               Y               Z
  NUMBER   SYMBOL      (ANGSTROMS)     (ANGSTROMS)     (ANGSTROMS)

     1       O          1.77524903  *  -2.15783239  *  -0.95310818  *
     2       C          1.44968099  *  -1.49008263  *   0.25460176  *
     3       C          0.92009071  *  -0.09900975  *  -0.05552739  *
     4       C          0.40617256  *   0.69145460  *   1.19739588  *
     5       C         -1.06891379  *   0.95963358  *   0.76458953  *
     6       C         -0.88249670  *   1.37311430  *  -0.74655768  *
     7       C         -0.42288345  *  -0.12531832  *  -0.85911486  *
     8       O         -0.45600101  *  -0.72625517  *  -2.08108958  *
     9       C         -1.49509363  *  -0.46389197  *   0.25046503  *
    10       H          2.51127488  *  -1.70719720  *  -1.41293216  *
    11       H          0.68649219  *  -2.15858213  *   0.69838955  *
    12       H          2.33755422  *  -1.46455880  *   0.91019158  *
    13       H          1.68309711  *   0.48109778  *  -0.60922967  *
    14       H          0.96645363  *   1.61946583  *   1.35818672  *
    15       H          0.46257899  *   0.10490216  *   2.12140805  *
    16       H         -1.70191322  *   1.52872354  *   1.42048650  *
    17       H         -0.14410729  *   2.13770933  *  -0.96556427  *
    18       H         -1.80079635  *   1.61053428  *  -1.28169964  *
    19       H          0.08941787  *  -1.55573576  *  -2.06476059  *
    20       H         -2.51586297  *  -0.53826038  *  -0.12232513  *
    21       H         -1.30216372  *  -1.30681088  *   0.90352166  *

                             CARTESIAN COORDINATES

   1    O        1.775249032    -2.157832392    -0.953108183
   2    C        1.449680991    -1.490082632     0.254601761
   3    C        0.920090714    -0.099009755    -0.055527393
   4    C        0.406172563     0.691454603     1.197395881
   5    C       -1.068913795     0.959633576     0.764589528
   6    C       -0.882496699     1.373114302    -0.746557679
   7    C       -0.422883454    -0.125318321    -0.859114860
   8    O       -0.456001007    -0.726255169    -2.081089578
   9    C       -1.495093627    -0.463891971     0.250465028
  10    H        2.511274885    -1.707197198    -1.412932162
  11    H        0.686492194    -2.158582135     0.698389545
  12    H        2.337554220    -1.464558797     0.910191581
  13    H        1.683097105     0.481097779    -0.609229671
  14    H        0.966453626     1.619465825     1.358186721
  15    H        0.462578994     0.104902161     2.121408050
  16    H       -1.701913222     1.528723538     1.420486499
  17    H       -0.144107290     2.137709327    -0.965564269
  18    H       -1.800796345     1.610534276    -1.281699640
  19    H        0.089417866    -1.555735762    -2.064760586
  20    H       -2.515862975    -0.538260376    -0.122325132
  21    H       -1.302163722    -1.306810882     0.903521660


           Empirical Formula: C7 H12 O2  =    21 atoms



      MOLECULAR POINT GROUP   :   C1  


                  EIGENVALUES  
 -32.50601 -29.81447 -29.05340 -26.16607 -23.83274 -23.16221 -21.89228 -19.29283
 -18.81829 -18.00456 -17.09014 -16.30944 -15.64584 -15.18763 -14.78585 -14.05955
 -13.55812 -12.89072 -12.68731 -12.38442 -12.07014 -11.90509 -11.62355 -11.37303
 -10.65381 -10.18463   2.31982   3.06994   3.18018   3.26722   3.31688   3.49298
   3.60684   4.06116   4.45194   5.03470   5.08595   5.42486   5.46852   5.80559
   5.88818   5.89076   6.00062   6.11526   6.21977   6.32703   6.62538   6.66794


              NET ATOMIC CHARGES AND DIPOLE CONTRIBUTIONS

  ATOM NO.   TYPE          CHARGE      No. of ELECS.   s-Pop       p-Pop       
    1          O          -0.559991        6.5600     1.84940     4.71059
    2          C          -0.008273        4.0083     1.08758     2.92070
    3          C          -0.240039        4.2400     1.08857     3.15147
    4          C          -0.280666        4.2807     1.07340     3.20727
    5          C          -0.099551        4.0996     1.08219     3.01736
    6          C          -0.329904        4.3299     1.08681     3.24310
    7          C           0.313347        3.6867     1.08921     2.59744
    8          O          -0.533169        6.5332     1.83857     4.69460
    9          C          -0.359854        4.3599     1.08857     3.27129
   10          H           0.317617        0.6824     0.68238
   11          H           0.148593        0.8514     0.85141
   12          H           0.119259        0.8807     0.88074
   13          H           0.147812        0.8522     0.85219
   14          H           0.141032        0.8590     0.85897
   15          H           0.140592        0.8594     0.85941
   16          H           0.141888        0.8581     0.85811
   17          H           0.143596        0.8564     0.85640
   18          H           0.154047        0.8460     0.84595
   19          H           0.349566        0.6504     0.65043
   20          H           0.153219        0.8468     0.84678
   21          H           0.140881        0.8591     0.85912
 DIPOLE           X         Y         Z       TOTAL
 POINT-CHG.     1.232     1.224     2.617     3.141
 HYBRID         0.470    -0.290    -0.470     0.725
 SUM            1.702     0.935     2.147     2.895


          ATOMIC ORBITAL ELECTRON POPULATIONS

     Atom    s        px        py        pz   
    1  O   1.84940   1.64276   1.61059   1.45724
    2  C   1.08758   1.09647   0.97136   0.85287
    3  C   1.08857   1.07688   1.02675   1.04784
    4  C   1.07340   1.03630   1.11777   1.05320
    5  C   1.08219   1.00090   1.01592   1.00054
    6  C   1.08681   1.16021   1.05393   1.02896
    7  C   1.08921   0.90495   0.90790   0.78460
    8  O   1.83857   1.77733   1.52249   1.39477
    9  C   1.08857   1.12339   1.05023   1.09767
   10  H   0.68238
   11  H   0.85141
   12  H   0.88074
   13  H   0.85219
   14  H   0.85897
   15  H   0.85941
   16  H   0.85811
   17  H   0.85640
   18  H   0.84595
   19  H   0.65043
   20  H   0.84678
   21  H   0.85912

 **********************
 *                    *
 * JOB ENDED NORMALLY *
 *                    *
 **********************



 TOTAL JOB TIME:             0.71 SECONDS

 == MOPAC DONE ==
