 *******************************************************************************
 **                                                                           **
 **                              MOPAC v23.2                                  **
 **                                                                           **
 *******************************************************************************
 **          Digital Object Identifier (DOI): 10.5281/zenodo.6511958          **
 **    Visit the DOI location for information on how to cite this program.    **
 *******************************************************************************

                              PM7 CALCULATION RESULTS

 *******************************************************************************
 *  CALCULATION DONE: (MAX THREADS = 40)             Fri Sep 19 21:29:31 2025  *
 *  PM7        - The PM7 Hamiltonian to be used
 *
 *
 *
 *                 CHARGE ON SYSTEM = +1
 *
 *
 *
 *  1SCF       - DO 1 SCF AND THEN STOP 
 *  T=         - A TIME OF 172800.0 SECONDS REQUESTED
 *  DUMP=N     - RESTART FILE WRITTEN EVERY 7200.0 SECONDS REQUESTED
 *  RELSCF     - DEFAULT SCF CRITERION MULTIPLIED BY 0.0001
 *              (DEFAULT SCF CRITERION = 0.00010)
 *  GRADIENTS  - ALL GRADIENTS TO BE PRINTED
 *  DISP       - PRINT DISPERSION AND HYDROGEN BOND ENERGIES
 *******************************************************************************
PM7 1SCF GRADIENTS DISP RELSCF=0.0001 CHARGE=1
 Title: ASE calculation

   ATOM   CHEMICAL          X               Y               Z
  NUMBER   SYMBOL      (ANGSTROMS)     (ANGSTROMS)     (ANGSTROMS)

     1       C          3.73763455  *  -0.61999421  *  -0.04346830  *
     2       O          2.34580181  *  -0.78511965  *  -0.40250223  *
     3       C          1.47800781  *  -0.15139217  *   0.38274292  *
     4       O          1.60653742  *   0.50547348  *   1.37024439  *
     5       N          0.14234011  *  -0.38780495  *  -0.19193772  *
     6       C         -1.00050943  *   0.15429320  *   0.43154794  *
     7       C         -2.27365095  *   0.10403978  *  -0.44877812  *
     8       C         -2.68957600  *  -1.33470114  *  -0.73428742  *
     9       C         -3.39000639  *   0.84691418  *   0.28255209  *
    10       H          4.22387129  *  -1.26731660  *  -0.79390499  *
    11       H          4.03315879  *   0.42945041  *  -0.16475919  *
    12       H          3.92071656  *  -0.97928044  *   0.97649926  *
    13       H          0.05007858  *  -0.94305312  *  -1.04891167  *
    14       H         -0.80664102  *   1.20352832  *   0.82305881  *
    15       H         -1.19279084  *  -0.38705848  *   1.42305370  *
    16       H         -2.06620583  *   0.63327354  *  -1.41569791  *
    17       H         -3.63244645  *  -1.35903738  *  -1.31108475  *
    18       H         -1.96528823  *  -1.89460113  *  -1.33139414  *
    19       H         -2.89300641  *  -1.90558293  *   0.18178737  *
    20       H         -3.13444308  *   1.89027894  *   0.50720478  *
    21       H         -3.68046461  *   0.35874614  *   1.22216036  *
    22       H         -4.30365895  *   0.88600912  *  -0.33562100  *



          CARTESIAN COORDINATES 

    NO.       ATOM           X           Y           Z

     1         C          3.7376     -0.6200     -0.0435
     2         O          2.3458     -0.7851     -0.4025
     3         C          1.4780     -0.1514      0.3827
     4         O          1.6065      0.5055      1.3702
     5         N          0.1423     -0.3878     -0.1919
     6         C         -1.0005      0.1543      0.4315
     7         C         -2.2737      0.1040     -0.4488
     8         C         -2.6896     -1.3347     -0.7343
     9         C         -3.3900      0.8469      0.2826
    10         H          4.2239     -1.2673     -0.7939
    11         H          4.0332      0.4295     -0.1648
    12         H          3.9207     -0.9793      0.9765
    13         H          0.0501     -0.9431     -1.0489
    14         H         -0.8066      1.2035      0.8231
    15         H         -1.1928     -0.3871      1.4231
    16         H         -2.0662      0.6333     -1.4157
    17         H         -3.6324     -1.3590     -1.3111
    18         H         -1.9653     -1.8946     -1.3314
    19         H         -2.8930     -1.9056      0.1818
    20         H         -3.1344      1.8903      0.5072
    21         H         -3.6805      0.3587      1.2222
    22         H         -4.3037      0.8860     -0.3356

 General Reference for PM7:
 "Optimization of Parameters for Semiempirical Methods VI: More Modifications to the 
 NDDO Approximations and Re-optimization of Parameters", J. J. P. Stewart, J. Mol. Mod., 1:32, 19 (2013)
 https://link.springer.com/article/10.1007/s00894-012-1667-x

           Empirical Formula: C6 H13 N O2  =    22 atoms



      MOLECULAR POINT GROUP   :   C1  


          UHF CALCULATION, NO. OF ALPHA ELECTRONS =   27
                           NO. OF BETA  ELECTRONS =   26
  SCF CRITERION =    0.1000E-07

 -------------------------------------------------------------------------------
 PM7 1SCF GRADIENTS DISP RELSCF=0.0001 CHARGE=1
 Title: ASE calculation



     1SCF WAS SPECIFIED, SO BFGS WAS NOT USED                 
     SCF FIELD WAS ACHIEVED                                   


                              PM7 CALCULATION
                                                       MOPAC v23.2 Linux
                                                       Fri Sep 19 21:29:32 2025




          FINAL HEAT OF FORMATION =         91.19097 KCAL/MOL =     381.54300 KJ/MOL

          TOTAL ENERGY            =     -38775.32497 KCAL/MOL = ELECTRONIC ENERGY + CORE-CORE REPULSION
          ENERGY OF ATOMS         =      38868.51771 KCAL/MOL
                              SUM =         93.19274 KCAL/MOL
          DISPERSION ENERGY       =         -2.00284 KCAL/MOL
          MM CORR. FOR -CO-NH-    =          0.00107 KCAL/MOL
                              SUM =         91.19097 KCAL/MOL = FINAL HEAT OF FORMATION



          TOTAL ENERGY            =      -1681.45723 EV
          ELECTRONIC ENERGY       =      -8080.49225 EV 
          CORE-CORE REPULSION     =       6399.03501 EV
          COSMO AREA              =        184.05 SQUARE ANGSTROMS
          COSMO VOLUME            =        177.62 CUBIC ANGSTROMS

          GRADIENT NORM           =          1.03828          =       0.22136 PER ATOM
          IONIZATION POTENTIAL    =         15.809892 EV
          ALPHA SOMO LUMO (EV)    =        -15.810 -5.041
          BETA  SOMO LUMO (EV)    =        -15.843 -7.598
          NO. OF ALPHA ELECTRONS  =         27
          NO. OF BETA  ELECTRONS  =         26
          MOLECULAR WEIGHT        =        131.1742         POINT GROUP:  C1  

          MOLECULAR DIMENSIONS (Angstroms)

            Atom       Atom       Distance
            H    22    H    10     8.80713
            H    18    O     4     4.28469
            H    16    H    19     2.95553


          SCF CALCULATIONS        =          1

          WALL-CLOCK TIME         =      0.844 SECONDS
          COMPUTATION TIME        =      0.643 SECONDS

          LARGEST ATOMIC GRADIENTS

          Atom     Label                     Cartesian Gradients           Cartesian Coordinates       |Gradient|
                                           X          Y          Z        X          Y          Z

             5       N                   0.384     -0.052     -0.183    0.14234   -0.38780   -0.19194      0.429
             7       C                   0.333      0.124      0.175   -2.27365    0.10404   -0.44878      0.396
             6       C                   0.372     -0.076      0.088   -1.00051    0.15429    0.43155      0.390
            21       H                  -0.142     -0.220      0.061   -3.68046    0.35875    1.22216      0.269
            12       H                   0.235      0.113     -0.033    3.92072   -0.97928    0.97650      0.262
            20       H                  -0.226      0.109     -0.011   -3.13444    1.89028    0.50720      0.251
            22       H                  -0.126     -0.006     -0.216   -4.30366    0.88601   -0.33562      0.250
             2       O                   0.008     -0.217      0.102    2.34580   -0.78512   -0.40250      0.240
             3       C                  -0.116     -0.204      0.041    1.47801   -0.15139    0.38274      0.239
            18       H                  -0.194      0.007     -0.031   -1.96529   -1.89460   -1.33139      0.196



       FINAL  POINT  AND  DERIVATIVES

   PARAMETER     ATOM    TYPE            VALUE        GRADIENT
      1          1  C    CARTESIAN X     3.737635     -0.095435  KCAL/ANGSTROM
      2          1  C    CARTESIAN Y    -0.619994      0.003229  KCAL/ANGSTROM
      3          1  C    CARTESIAN Z    -0.043468     -0.038410  KCAL/ANGSTROM
      4          2  O    CARTESIAN X     2.345802      0.008402  KCAL/ANGSTROM
      5          2  O    CARTESIAN Y    -0.785120     -0.216922  KCAL/ANGSTROM
      6          2  O    CARTESIAN Z    -0.402502      0.102465  KCAL/ANGSTROM
      7          3  C    CARTESIAN X     1.478008     -0.116476  KCAL/ANGSTROM
      8          3  C    CARTESIAN Y    -0.151392     -0.204259  KCAL/ANGSTROM
      9          3  C    CARTESIAN Z     0.382743      0.041118  KCAL/ANGSTROM
     10          4  O    CARTESIAN X     1.606537     -0.037044  KCAL/ANGSTROM
     11          4  O    CARTESIAN Y     0.505473      0.127911  KCAL/ANGSTROM
     12          4  O    CARTESIAN Z     1.370244      0.015847  KCAL/ANGSTROM
     13          5  N    CARTESIAN X     0.142340      0.384061  KCAL/ANGSTROM
     14          5  N    CARTESIAN Y    -0.387805     -0.051886  KCAL/ANGSTROM
     15          5  N    CARTESIAN Z    -0.191938     -0.183473  KCAL/ANGSTROM
     16          6  C    CARTESIAN X    -1.000509      0.372117  KCAL/ANGSTROM
     17          6  C    CARTESIAN Y     0.154293     -0.075903  KCAL/ANGSTROM
     18          6  C    CARTESIAN Z     0.431548      0.087762  KCAL/ANGSTROM
     19          7  C    CARTESIAN X    -2.273651      0.332956  KCAL/ANGSTROM
     20          7  C    CARTESIAN Y     0.104040      0.124090  KCAL/ANGSTROM
     21          7  C    CARTESIAN Z    -0.448778      0.174589  KCAL/ANGSTROM
     22          8  C    CARTESIAN X    -2.689576      0.004631  KCAL/ANGSTROM
     23          8  C    CARTESIAN Y    -1.334701      0.160574  KCAL/ANGSTROM
     24          8  C    CARTESIAN Z    -0.734287      0.046077  KCAL/ANGSTROM
     25          9  C    CARTESIAN X    -3.390006     -0.050383  KCAL/ANGSTROM
     26          9  C    CARTESIAN Y     0.846914     -0.027812  KCAL/ANGSTROM
     27          9  C    CARTESIAN Z     0.282552      0.032091  KCAL/ANGSTROM
     28         10  H    CARTESIAN X     4.223871     -0.084679  KCAL/ANGSTROM
     29         10  H    CARTESIAN Y    -1.267317      0.097466  KCAL/ANGSTROM
     30         10  H    CARTESIAN Z    -0.793905      0.029801  KCAL/ANGSTROM
     31         11  H    CARTESIAN X     4.033159     -0.028890  KCAL/ANGSTROM
     32         11  H    CARTESIAN Y     0.429450      0.026554  KCAL/ANGSTROM
     33         11  H    CARTESIAN Z    -0.164759     -0.067853  KCAL/ANGSTROM
     34         12  H    CARTESIAN X     3.920717      0.234522  KCAL/ANGSTROM
     35         12  H    CARTESIAN Y    -0.979280      0.112751  KCAL/ANGSTROM
     36         12  H    CARTESIAN Z     0.976499     -0.033120  KCAL/ANGSTROM
     37         13  H    CARTESIAN X     0.050079     -0.069415  KCAL/ANGSTROM
     38         13  H    CARTESIAN Y    -0.943053     -0.161744  KCAL/ANGSTROM
     39         13  H    CARTESIAN Z    -1.048912     -0.007049  KCAL/ANGSTROM
     40         14  H    CARTESIAN X    -0.806641     -0.079916  KCAL/ANGSTROM
     41         14  H    CARTESIAN Y     1.203528      0.034345  KCAL/ANGSTROM
     42         14  H    CARTESIAN Z     0.823059     -0.076574  KCAL/ANGSTROM
     43         15  H    CARTESIAN X    -1.192791     -0.013420  KCAL/ANGSTROM
     44         15  H    CARTESIAN Y    -0.387058     -0.006433  KCAL/ANGSTROM
     45         15  H    CARTESIAN Z     1.423054      0.080301  KCAL/ANGSTROM
     46         16  H    CARTESIAN X    -2.066206      0.058137  KCAL/ANGSTROM
     47         16  H    CARTESIAN Y     0.633274      0.042485  KCAL/ANGSTROM
     48         16  H    CARTESIAN Z    -1.415698      0.045891  KCAL/ANGSTROM
     49         17  H    CARTESIAN X    -3.632446     -0.020327  KCAL/ANGSTROM
     50         17  H    CARTESIAN Y    -1.359037      0.043061  KCAL/ANGSTROM
     51         17  H    CARTESIAN Z    -1.311085     -0.026620  KCAL/ANGSTROM
     52         18  H    CARTESIAN X    -1.965288     -0.193822  KCAL/ANGSTROM
     53         18  H    CARTESIAN Y    -1.894601      0.007236  KCAL/ANGSTROM
     54         18  H    CARTESIAN Z    -1.331394     -0.031193  KCAL/ANGSTROM
     55         19  H    CARTESIAN X    -2.893006     -0.110927  KCAL/ANGSTROM
     56         19  H    CARTESIAN Y    -1.905583      0.082197  KCAL/ANGSTROM
     57         19  H    CARTESIAN Z     0.181787     -0.025618  KCAL/ANGSTROM
     58         20  H    CARTESIAN X    -3.134443     -0.225701  KCAL/ANGSTROM
     59         20  H    CARTESIAN Y     1.890279      0.108970  KCAL/ANGSTROM
     60         20  H    CARTESIAN Z     0.507205     -0.011201  KCAL/ANGSTROM
     61         21  H    CARTESIAN X    -3.680465     -0.142183  KCAL/ANGSTROM
     62         21  H    CARTESIAN Y     0.358746     -0.220107  KCAL/ANGSTROM
     63         21  H    CARTESIAN Z     1.222160      0.060904  KCAL/ANGSTROM
     64         22  H    CARTESIAN X    -4.303659     -0.126207  KCAL/ANGSTROM
     65         22  H    CARTESIAN Y     0.886009     -0.005804  KCAL/ANGSTROM
     66         22  H    CARTESIAN Z    -0.335621     -0.215737  KCAL/ANGSTROM




   ATOM   CHEMICAL          X               Y               Z
  NUMBER   SYMBOL      (ANGSTROMS)     (ANGSTROMS)     (ANGSTROMS)

     1       C          3.73763455  *  -0.61999421  *  -0.04346830  *
     2       O          2.34580181  *  -0.78511965  *  -0.40250223  *
     3       C          1.47800781  *  -0.15139217  *   0.38274292  *
     4       O          1.60653742  *   0.50547348  *   1.37024439  *
     5       N          0.14234011  *  -0.38780495  *  -0.19193772  *
     6       C         -1.00050943  *   0.15429320  *   0.43154794  *
     7       C         -2.27365095  *   0.10403978  *  -0.44877812  *
     8       C         -2.68957600  *  -1.33470114  *  -0.73428742  *
     9       C         -3.39000639  *   0.84691418  *   0.28255209  *
    10       H          4.22387129  *  -1.26731660  *  -0.79390499  *
    11       H          4.03315879  *   0.42945041  *  -0.16475919  *
    12       H          3.92071656  *  -0.97928044  *   0.97649926  *
    13       H          0.05007858  *  -0.94305312  *  -1.04891167  *
    14       H         -0.80664102  *   1.20352832  *   0.82305881  *
    15       H         -1.19279084  *  -0.38705848  *   1.42305370  *
    16       H         -2.06620583  *   0.63327354  *  -1.41569791  *
    17       H         -3.63244645  *  -1.35903738  *  -1.31108475  *
    18       H         -1.96528823  *  -1.89460113  *  -1.33139414  *
    19       H         -2.89300641  *  -1.90558293  *   0.18178737  *
    20       H         -3.13444308  *   1.89027894  *   0.50720478  *
    21       H         -3.68046461  *   0.35874614  *   1.22216036  *
    22       H         -4.30365895  *   0.88600912  *  -0.33562100  *

                             CARTESIAN COORDINATES

   1    C        3.737634554    -0.619994211    -0.043468298
   2    O        2.345801806    -0.785119654    -0.402502230
   3    C        1.478007806    -0.151392166     0.382742919
   4    O        1.606537417     0.505473478     1.370244388
   5    N        0.142340110    -0.387804949    -0.191937724
   6    C       -1.000509434     0.154293201     0.431547935
   7    C       -2.273650954     0.104039782    -0.448778120
   8    C       -2.689575997    -1.334701137    -0.734287422
   9    C       -3.390006394     0.846914179     0.282552086
  10    H        4.223871290    -1.267316597    -0.793904992
  11    H        4.033158788     0.429450408    -0.164759190
  12    H        3.920716560    -0.979280435     0.976499265
  13    H        0.050078576    -0.943053121    -1.048911665
  14    H       -0.806641019     1.203528320     0.823058807
  15    H       -1.192790842    -0.387058480     1.423053696
  16    H       -2.066205828     0.633273544    -1.415697910
  17    H       -3.632446450    -1.359037384    -1.311084749
  18    H       -1.965288227    -1.894601128    -1.331394143
  19    H       -2.893006411    -1.905582928     0.181787372
  20    H       -3.134443082     1.890278937     0.507204778
  21    H       -3.680464606     0.358746135     1.222160364
  22    H       -4.303658951     0.886009123    -0.335621004


           Empirical Formula: C6 H13 N O2  =    22 atoms



      MOLECULAR POINT GROUP   :   C1  


          ALPHA EIGENVALUES  
 -43.10391 -37.04426 -36.15977 -33.37449 -30.05736 -28.65852 -27.88002 -26.77651
 -24.81152 -23.42229 -22.67381 -22.21461 -21.27299 -20.70259 -19.64749 -19.49681
 -18.91618 -18.66459 -17.97062 -17.77236 -17.02528 -16.83012 -16.73651 -16.29701
 -16.26057 -16.18399 -15.80989  -5.04139  -4.38190  -2.85544  -2.02456  -1.57127
  -1.32695  -0.68782  -0.53449  -0.20353   0.00624   0.34091   0.41148   1.30831
   1.33020   1.46925   1.77540   1.82898   1.95567   2.10704   2.16061   3.10093
   3.32476


           BETA EIGENVALUES 
 -41.42762 -36.80887 -36.13354 -33.24202 -29.97536 -28.46115 -27.80762 -26.49989
 -24.68349 -23.19507 -22.32755 -21.62489 -21.16817 -20.32373 -19.52195 -19.04866
 -18.80165 -18.44826 -17.77479 -17.65758 -16.92468 -16.67435 -16.23166 -16.18910
 -16.17105 -15.84340  -7.59812  -4.64988  -3.99322  -2.69794  -1.73032  -1.54946
  -1.16102  -0.48207  -0.36377  -0.11437   0.12039   0.37927   0.58661   1.30854
   1.32920   1.47305   1.77654   1.82884   1.95608   2.10716   2.16120   3.10135
   3.32492


              NET ATOMIC CHARGES AND DIPOLE CONTRIBUTIONS

  ATOM NO.   TYPE          CHARGE      No. of ELECS.   s-Pop       p-Pop       
    1          C          -0.149322        4.1493     1.10760     3.04172
    2          O          -0.330873        6.3309     1.86947     4.46140
    3          C           0.601900        3.3981     1.09212     2.30598
    4          O          -0.314629        6.3146     1.88211     4.43252
    5          N          -0.127671        5.1277     1.57173     3.55594
    6          C          -0.208517        4.2085     1.09166     3.11686
    7          C          -0.065976        4.0660     1.06413     3.00185
    8          C          -0.472334        4.4723     1.05551     3.41682
    9          C          -0.458224        4.4582     1.05578     3.40244
   10          H           0.188080        0.8119     0.81192
   11          H           0.165934        0.8341     0.83407
   12          H           0.167417        0.8326     0.83258
   13          H           0.340176        0.6598     0.65982
   14          H           0.240111        0.7599     0.75989
   15          H           0.255452        0.7445     0.74455
   16          H           0.159782        0.8402     0.84022
   17          H           0.189197        0.8108     0.81080
   18          H           0.141158        0.8588     0.85884
   19          H           0.167679        0.8323     0.83232
   20          H           0.162032        0.8380     0.83797
   21          H           0.165220        0.8348     0.83478
   22          H           0.183407        0.8166     0.81659
 DIPOLE           X         Y         Z       TOTAL
 POINT-CHG.     0.659    -0.619    -0.833     1.229
 HYBRID         0.002    -0.339    -0.251     0.422
 SUM            0.661    -0.958    -1.085     1.591


          ATOMIC ORBITAL ELECTRON POPULATIONS

     Atom    s        px        py        pz   
    1  C   1.10760   0.69261   1.17936   1.16976
    2  O   1.86947   1.29309   1.64680   1.52152
    3  C   1.09212   0.76023   0.76484   0.78091
    4  O   1.88211   1.79040   1.37567   1.26646
    5  N   1.57173   1.17064   1.17660   1.20870
    6  C   1.09166   0.90843   1.13058   1.07785
    7  C   1.06413   0.92201   1.03291   1.04692
    8  C   1.05551   1.19543   1.02730   1.19409
    9  C   1.05578   1.09822   1.14173   1.16250
   10  H   0.81192
   11  H   0.83407
   12  H   0.83258
   13  H   0.65982
   14  H   0.75989
   15  H   0.74455
   16  H   0.84022
   17  H   0.81080
   18  H   0.85884
   19  H   0.83232
   20  H   0.83797
   21  H   0.83478
   22  H   0.81659


                    (SZ)    =    0.500000
                    (S**2)  =    0.762680


          ATOMIC ORBITAL SPIN POPULATIONS

    Atom   Total    s     px     py     pz   
         Atomic
    1  C -0.0038 -0.000 -0.004  0.000  0.000
    2  O  0.0019 -0.000 -0.002  0.003  0.001
    3  C -0.0713 -0.007 -0.019 -0.028 -0.017
    4  O  0.0634  0.002 -0.015  0.052  0.024
    5  N  0.9037  0.040  0.054  0.546  0.264
    6  C -0.0059 -0.008 -0.023  0.031 -0.006
    7  C  0.0064  0.000  0.003  0.001  0.003
    8  C  0.0010  0.000 -0.000  0.001  0.000
    9  C -0.0012 -0.000 -0.000 -0.000 -0.000
   10  H -0.0004 -0.000
   11  H  0.0005  0.001
   12  H  0.0004  0.000
   13  H -0.0347 -0.035
   14  H  0.0494  0.049
   15  H  0.0883  0.088
   16  H  0.0018  0.002
   17  H  0.0000  0.000
   18  H  0.0001  0.000
   19  H -0.0000 -0.000
   20  H  0.0000  0.000
   21  H  0.0000  0.000
   22  H  0.0002  0.000

 **********************
 *                    *
 * JOB ENDED NORMALLY *
 *                    *
 **********************



 TOTAL JOB TIME:             1.38 SECONDS

 == MOPAC DONE ==
