 *******************************************************************************
 **                                                                           **
 **                              MOPAC v23.2                                  **
 **                                                                           **
 *******************************************************************************
 **          Digital Object Identifier (DOI): 10.5281/zenodo.6511958          **
 **    Visit the DOI location for information on how to cite this program.    **
 *******************************************************************************

                              PM7 CALCULATION RESULTS

 *******************************************************************************
 *  CALCULATION DONE: (MAX THREADS = 40)             Fri Sep 19 21:32:40 2025  *
 *  PM7        - The PM7 Hamiltonian to be used
 *  EPS=37.5   - USE ANDREAS KLAMT'S COSMO IMPLICIT SOLVATION MODEL
 *  1SCF       - DO 1 SCF AND THEN STOP 
 *  T=         - A TIME OF 172800.0 SECONDS REQUESTED
 *  DUMP=N     - RESTART FILE WRITTEN EVERY 7200.0 SECONDS REQUESTED
 *  RELSCF     - DEFAULT SCF CRITERION MULTIPLIED BY 0.0001
 *              (DEFAULT SCF CRITERION = 0.00010)
 *  GRADIENTS  - ALL GRADIENTS TO BE PRINTED
 *  DISP       - PRINT DISPERSION AND HYDROGEN BOND ENERGIES
 *******************************************************************************
PM7 1SCF GRADIENTS EPS=37.5 DISP RELSCF=0.0001
 Title: ASE calculation

   ATOM   CHEMICAL          X               Y               Z
  NUMBER   SYMBOL      (ANGSTROMS)     (ANGSTROMS)     (ANGSTROMS)

     1       C         -2.51404939  *  -0.20003502  *   1.17141877  *
     2       C         -1.75389756  *   0.32080061  *  -0.04661944  *
     3       C         -2.67801290  *   0.98599688  *  -1.06050954  *
     4       C         -0.85499461  *  -0.77476971  *  -0.67648265  *
     5       C          0.52274195  *  -0.42288745  *  -0.19915873  *
     6       N          1.53380823  *  -1.19099356  *  -0.40824203  *
     7       O          2.70557805  *  -0.67539665  *   0.12797033  *
     8       C          0.45133361  *   0.89590953  *   0.52123908  *
     9       O         -0.88211630  *   1.36621789  *   0.40529571  *
    10       H         -1.84160087  *  -0.70445754  *   1.87480240  *
    11       H         -3.30301767  *  -0.90173136  *   0.88661515  *
    12       H         -2.98002510  *   0.63016931  *   1.71941415  *
    13       H         -3.38447435  *   0.27282755  *  -1.49477319  *
    14       H         -2.10471793  *   1.44724299  *  -1.87480240  *
    15       H         -3.25622153  *   1.79260877  *  -0.59006670  *
    16       H         -1.15619789  *  -1.79260877  *  -0.36923996  *
    17       H         -0.90920535  *  -0.76732126  *  -1.78179364  *
    18       H          3.38447435  *  -1.36502487  *  -0.14020129  *
    19       H          0.68582462  *   0.80420049  *   1.59783699  *
    20       H          1.08292318  *   1.68148817  *   0.06661426  *



          CARTESIAN COORDINATES 

    NO.       ATOM           X           Y           Z

     1         C         -2.5140     -0.2000      1.1714
     2         C         -1.7539      0.3208     -0.0466
     3         C         -2.6780      0.9860     -1.0605
     4         C         -0.8550     -0.7748     -0.6765
     5         C          0.5227     -0.4229     -0.1992
     6         N          1.5338     -1.1910     -0.4082
     7         O          2.7056     -0.6754      0.1280
     8         C          0.4513      0.8959      0.5212
     9         O         -0.8821      1.3662      0.4053
    10         H         -1.8416     -0.7045      1.8748
    11         H         -3.3030     -0.9017      0.8866
    12         H         -2.9800      0.6302      1.7194
    13         H         -3.3845      0.2728     -1.4948
    14         H         -2.1047      1.4472     -1.8748
    15         H         -3.2562      1.7926     -0.5901
    16         H         -1.1562     -1.7926     -0.3692
    17         H         -0.9092     -0.7673     -1.7818
    18         H          3.3845     -1.3650     -0.1402
    19         H          0.6858      0.8042      1.5978
    20         H          1.0829      1.6815      0.0666

 General Reference for PM7:
 "Optimization of Parameters for Semiempirical Methods VI: More Modifications to the 
 NDDO Approximations and Re-optimization of Parameters", J. J. P. Stewart, J. Mol. Mod., 1:32, 19 (2013)
 https://link.springer.com/article/10.1007/s00894-012-1667-x

           Empirical Formula: C6 H11 N O2  =    20 atoms



      MOLECULAR POINT GROUP   :   C1  


      RHF CALCULATION, NO. OF DOUBLY OCCUPIED LEVELS = 26

  SCF CRITERION =    0.1000E-07

 -------------------------------------------------------------------------------
 PM7 1SCF GRADIENTS EPS=37.5 DISP RELSCF=0.0001
 Title: ASE calculation



     1SCF WAS SPECIFIED, SO BFGS WAS NOT USED                 
     SCF FIELD WAS ACHIEVED                                   


                              PM7 CALCULATION
                                                       MOPAC v23.2 Linux
                                                       Fri Sep 19 21:32:41 2025




          FINAL HEAT OF FORMATION =        -71.66830 KCAL/MOL =    -299.86017 KJ/MOL

          TOTAL ENERGY            =     -38323.42719 KCAL/MOL = ELECTRONIC ENERGY + CORE-CORE REPULSION + SOLVATION ENERGY
          ENERGY OF ATOMS         =      38253.74801 KCAL/MOL
                              SUM =        -69.67918 KCAL/MOL
          DISPERSION ENERGY       =         -1.98912 KCAL/MOL
                              SUM =        -71.66830 KCAL/MOL = FINAL HEAT OF FORMATION

          VAN DER WAALS AREA      =        166.18 SQUARE ANGSTROMS


          TOTAL ENERGY            =      -1661.86109 EV
          ELECTRONIC ENERGY       =      -2460.07991 EV 
          CORE-CORE REPULSION     =        798.21881 EV

          DIELECTRIC ENERGY       =         -0.40362 EV
          COSMO AREA              =        166.18 SQUARE ANGSTROMS
          COSMO VOLUME            =        165.07 CUBIC ANGSTROMS

          GRADIENT NORM           =         14.68267          =       3.28314 PER ATOM
          IONIZATION POTENTIAL    =         10.226136 EV
          HOMO LUMO ENERGIES (EV) =        -10.226  0.359
          NO. OF FILLED LEVELS    =         26
          MOLECULAR WEIGHT        =        129.1584         POINT GROUP:  C1  

          MOLECULAR DIMENSIONS (Angstroms)

            Atom       Atom       Distance
            H    18    H    15     7.36694
            H    20    H    11     4.33160
            H    17    H    19     3.72024


          SCF CALCULATIONS        =          2

          WALL-CLOCK TIME         =      0.727 SECONDS
          COMPUTATION TIME        =      0.605 SECONDS

          LARGEST ATOMIC GRADIENTS

          Atom     Label                     Cartesian Gradients           Cartesian Coordinates       |Gradient|
                                           X          Y          Z        X          Y          Z

             2       C                   5.995      4.194      1.896   -1.75390    0.32080   -0.04662      7.558
            18       H                  -5.341      2.681      0.296    3.38447   -1.36502   -0.14020      5.984
             5       C                   4.585     -2.221     -0.294    0.52274   -0.42289   -0.19916      5.103
             4       C                  -3.007     -3.039     -2.386   -0.85499   -0.77477   -0.67648      4.896
             3       C                  -3.171     -2.384     -2.217   -2.67801    0.98600   -1.06051      4.545
             1       C                  -2.721     -3.265      0.063   -2.51405   -0.20004    1.17142      4.251
             7       O                   2.592     -1.568      0.120    2.70558   -0.67540    0.12797      3.032
             9       O                  -2.462      0.142     -0.244   -0.88212    1.36622    0.40530      2.478
            17       H                   0.733      0.433      1.582   -0.90921   -0.76732   -1.78179      1.796
            16       H                   1.349      1.024      0.259   -1.15620   -1.79261   -0.36924      1.713



       FINAL  POINT  AND  DERIVATIVES

   PARAMETER     ATOM    TYPE            VALUE        GRADIENT
      1          1  C    CARTESIAN X    -2.514049     -2.721145  KCAL/ANGSTROM
      2          1  C    CARTESIAN Y    -0.200035     -3.264751  KCAL/ANGSTROM
      3          1  C    CARTESIAN Z     1.171419      0.063273  KCAL/ANGSTROM
      4          2  C    CARTESIAN X    -1.753898      5.995432  KCAL/ANGSTROM
      5          2  C    CARTESIAN Y     0.320801      4.193550  KCAL/ANGSTROM
      6          2  C    CARTESIAN Z    -0.046619      1.896336  KCAL/ANGSTROM
      7          3  C    CARTESIAN X    -2.678013     -3.170860  KCAL/ANGSTROM
      8          3  C    CARTESIAN Y     0.985997     -2.384423  KCAL/ANGSTROM
      9          3  C    CARTESIAN Z    -1.060510     -2.216558  KCAL/ANGSTROM
     10          4  C    CARTESIAN X    -0.854995     -3.007067  KCAL/ANGSTROM
     11          4  C    CARTESIAN Y    -0.774770     -3.039053  KCAL/ANGSTROM
     12          4  C    CARTESIAN Z    -0.676483     -2.385842  KCAL/ANGSTROM
     13          5  C    CARTESIAN X     0.522742      4.584985  KCAL/ANGSTROM
     14          5  C    CARTESIAN Y    -0.422887     -2.221086  KCAL/ANGSTROM
     15          5  C    CARTESIAN Z    -0.199159     -0.294223  KCAL/ANGSTROM
     16          6  N    CARTESIAN X     1.533808     -0.906098  KCAL/ANGSTROM
     17          6  N    CARTESIAN Y    -1.190994      0.379508  KCAL/ANGSTROM
     18          6  N    CARTESIAN Z    -0.408242     -0.060386  KCAL/ANGSTROM
     19          7  O    CARTESIAN X     2.705578      2.591539  KCAL/ANGSTROM
     20          7  O    CARTESIAN Y    -0.675397     -1.568342  KCAL/ANGSTROM
     21          7  O    CARTESIAN Z     0.127970      0.119998  KCAL/ANGSTROM
     22          8  C    CARTESIAN X     0.451334     -0.192753  KCAL/ANGSTROM
     23          8  C    CARTESIAN Y     0.895910      0.023763  KCAL/ANGSTROM
     24          8  C    CARTESIAN Z     0.521239      0.516928  KCAL/ANGSTROM
     25          9  O    CARTESIAN X    -0.882116     -2.461604  KCAL/ANGSTROM
     26          9  O    CARTESIAN Y     1.366218      0.142267  KCAL/ANGSTROM
     27          9  O    CARTESIAN Z     0.405296     -0.243633  KCAL/ANGSTROM
     28         10  H    CARTESIAN X    -1.841601      0.265437  KCAL/ANGSTROM
     29         10  H    CARTESIAN Y    -0.704458      0.918971  KCAL/ANGSTROM
     30         10  H    CARTESIAN Z     1.874802     -0.444630  KCAL/ANGSTROM
     31         11  H    CARTESIAN X    -3.303018      0.576990  KCAL/ANGSTROM
     32         11  H    CARTESIAN Y    -0.901731      0.737934  KCAL/ANGSTROM
     33         11  H    CARTESIAN Z     0.886615      0.124032  KCAL/ANGSTROM
     34         12  H    CARTESIAN X    -2.980025      0.992404  KCAL/ANGSTROM
     35         12  H    CARTESIAN Y     0.630169      0.646739  KCAL/ANGSTROM
     36         12  H    CARTESIAN Z     1.719414      0.023384  KCAL/ANGSTROM
     37         13  H    CARTESIAN X    -3.384474      0.419218  KCAL/ANGSTROM
     38         13  H    CARTESIAN Y     0.272828      0.757509  KCAL/ANGSTROM
     39         13  H    CARTESIAN Z    -1.494773      0.373286  KCAL/ANGSTROM
     40         14  H    CARTESIAN X    -2.104718      0.544296  KCAL/ANGSTROM
     41         14  H    CARTESIAN Y     1.447243      0.658074  KCAL/ANGSTROM
     42         14  H    CARTESIAN Z    -1.874802      1.168561  KCAL/ANGSTROM
     43         15  H    CARTESIAN X    -3.256222      1.192962  KCAL/ANGSTROM
     44         15  H    CARTESIAN Y     1.792609      0.212774  KCAL/ANGSTROM
     45         15  H    CARTESIAN Z    -0.590067      0.306308  KCAL/ANGSTROM
     46         16  H    CARTESIAN X    -1.156198      1.348979  KCAL/ANGSTROM
     47         16  H    CARTESIAN Y    -1.792609      1.023971  KCAL/ANGSTROM
     48         16  H    CARTESIAN Z    -0.369240      0.258874  KCAL/ANGSTROM
     49         17  H    CARTESIAN X    -0.909205      0.733312  KCAL/ANGSTROM
     50         17  H    CARTESIAN Y    -0.767321      0.432657  KCAL/ANGSTROM
     51         17  H    CARTESIAN Z    -1.781794      1.581639  KCAL/ANGSTROM
     52         18  H    CARTESIAN X     3.384474     -5.341335  KCAL/ANGSTROM
     53         18  H    CARTESIAN Y    -1.365025      2.680910  KCAL/ANGSTROM
     54         18  H    CARTESIAN Z    -0.140201      0.296367  KCAL/ANGSTROM
     55         19  H    CARTESIAN X     0.685825     -0.346906  KCAL/ANGSTROM
     56         19  H    CARTESIAN Y     0.804200      0.062188  KCAL/ANGSTROM
     57         19  H    CARTESIAN Z     1.597837     -1.291841  KCAL/ANGSTROM
     58         20  H    CARTESIAN X     1.082923     -1.097785  KCAL/ANGSTROM
     59         20  H    CARTESIAN Y     1.681488     -0.393162  KCAL/ANGSTROM
     60         20  H    CARTESIAN Z     0.066614      0.208126  KCAL/ANGSTROM




   ATOM   CHEMICAL          X               Y               Z
  NUMBER   SYMBOL      (ANGSTROMS)     (ANGSTROMS)     (ANGSTROMS)

     1       C         -2.51404939  *  -0.20003502  *   1.17141877  *
     2       C         -1.75389756  *   0.32080061  *  -0.04661944  *
     3       C         -2.67801290  *   0.98599688  *  -1.06050954  *
     4       C         -0.85499461  *  -0.77476971  *  -0.67648265  *
     5       C          0.52274195  *  -0.42288745  *  -0.19915873  *
     6       N          1.53380823  *  -1.19099356  *  -0.40824203  *
     7       O          2.70557805  *  -0.67539665  *   0.12797033  *
     8       C          0.45133361  *   0.89590953  *   0.52123908  *
     9       O         -0.88211630  *   1.36621789  *   0.40529571  *
    10       H         -1.84160087  *  -0.70445754  *   1.87480240  *
    11       H         -3.30301767  *  -0.90173136  *   0.88661515  *
    12       H         -2.98002510  *   0.63016931  *   1.71941415  *
    13       H         -3.38447435  *   0.27282755  *  -1.49477319  *
    14       H         -2.10471793  *   1.44724299  *  -1.87480240  *
    15       H         -3.25622153  *   1.79260877  *  -0.59006670  *
    16       H         -1.15619789  *  -1.79260877  *  -0.36923996  *
    17       H         -0.90920535  *  -0.76732126  *  -1.78179364  *
    18       H          3.38447435  *  -1.36502487  *  -0.14020129  *
    19       H          0.68582462  *   0.80420049  *   1.59783699  *
    20       H          1.08292318  *   1.68148817  *   0.06661426  *

                             CARTESIAN COORDINATES

   1    C       -2.514049393    -0.200035024     1.171418771
   2    C       -1.753897564     0.320800610    -0.046619444
   3    C       -2.678012901     0.985996883    -1.060509545
   4    C       -0.854994615    -0.774769708    -0.676482654
   5    C        0.522741950    -0.422887452    -0.199158729
   6    N        1.533808232    -1.190993560    -0.408242027
   7    O        2.705578047    -0.675396653     0.127970335
   8    C        0.451333610     0.895909530     0.521239083
   9    O       -0.882116303     1.366217891     0.405295712
  10    H       -1.841600874    -0.704457541     1.874802402
  11    H       -3.303017671    -0.901731360     0.886615150
  12    H       -2.980025101     0.630169305     1.719414147
  13    H       -3.384474348     0.272827550    -1.494773189
  14    H       -2.104717926     1.447242991    -1.874802402
  15    H       -3.256221532     1.792608773    -0.590066702
  16    H       -1.156197886    -1.792608773    -0.369239963
  17    H       -0.909205350    -0.767321260    -1.781793638
  18    H        3.384474348    -1.365024873    -0.140201294
  19    H        0.685824625     0.804200494     1.597836995
  20    H        1.082923176     1.681488165     0.066614260


           Empirical Formula: C6 H11 N O2  =    20 atoms



      MOLECULAR POINT GROUP   :   C1  


                  EIGENVALUES  
 -34.97569 -31.12928 -28.83936 -27.91855 -25.73870 -24.29917 -23.80488 -20.00644
 -19.63362 -17.22424 -17.04021 -16.74478 -16.03807 -15.00660 -14.67377 -14.54672
 -14.21572 -13.52007 -13.33601 -13.00003 -12.81934 -12.51684 -11.95955 -11.26499
 -10.54878 -10.22614   0.35874   1.25395   1.94129   3.08901   3.46754   3.75485
   3.91811   4.10512   4.45990   4.82899   5.28331   5.33319   5.36114   5.68700
   5.73148   5.74454   5.79474   5.80249   6.11612   6.87838   6.98236


              NET ATOMIC CHARGES AND DIPOLE CONTRIBUTIONS

  ATOM NO.   TYPE          CHARGE      No. of ELECS.   s-Pop       p-Pop       
    1          C          -0.506757        4.5068     1.06326     3.44350
    2          C           0.338124        3.6619     1.08160     2.58028
    3          C          -0.495849        4.4958     1.06133     3.43452
    4          C          -0.356423        4.3564     1.07595     3.28047
    5          C           0.131314        3.8687     1.09965     2.76904
    6          N          -0.271040        5.2710     1.79619     3.47486
    7          O          -0.364673        6.3647     1.90172     4.46295
    8          C          -0.063493        4.0635     1.09122     2.97228
    9          O          -0.473534        6.4735     1.87983     4.59371
   10          H           0.162163        0.8378     0.83784
   11          H           0.165202        0.8348     0.83480
   12          H           0.166342        0.8337     0.83366
   13          H           0.166891        0.8331     0.83311
   14          H           0.164301        0.8357     0.83570
   15          H           0.167142        0.8329     0.83286
   16          H           0.189668        0.8103     0.81033
   17          H           0.191930        0.8081     0.80807
   18          H           0.349389        0.6506     0.65061
   19          H           0.166851        0.8331     0.83315
   20          H           0.172453        0.8275     0.82755
 DIPOLE           X         Y         Z       TOTAL
 POINT-CHG.    -1.614    -1.483    -0.635     2.282
 HYBRID         0.379     0.559     0.361     0.766
 SUM           -1.236    -0.923    -0.274     1.567


          ATOMIC ORBITAL ELECTRON POPULATIONS

     Atom    s        px        py        pz   
    1  C   1.06326   1.15860   1.17845   1.10645
    2  C   1.08160   0.85442   0.81681   0.90906
    3  C   1.06133   1.13885   1.16611   1.12956
    4  C   1.07595   0.98012   1.13327   1.16708
    5  C   1.09965   0.92529   0.93405   0.90970
    6  N   1.79619   0.98106   1.27731   1.21649
    7  O   1.90172   1.21607   1.50025   1.74663
    8  C   1.09122   0.84771   1.00492   1.11965
    9  O   1.87983   1.25459   1.43346   1.90566
   10  H   0.83784
   11  H   0.83480
   12  H   0.83366
   13  H   0.83311
   14  H   0.83570
   15  H   0.83286
   16  H   0.81033
   17  H   0.80807
   18  H   0.65061
   19  H   0.83315
   20  H   0.82755

 **********************
 *                    *
 * JOB ENDED NORMALLY *
 *                    *
 **********************



 TOTAL JOB TIME:             1.20 SECONDS

 == MOPAC DONE ==
