 *******************************************************************************
 **                                                                           **
 **                              MOPAC v23.2                                  **
 **                                                                           **
 *******************************************************************************
 **          Digital Object Identifier (DOI): 10.5281/zenodo.6511958          **
 **    Visit the DOI location for information on how to cite this program.    **
 *******************************************************************************

                              PM7 CALCULATION RESULTS

 *******************************************************************************
 *  CALCULATION DONE: (MAX THREADS = 40)             Fri Sep 19 21:41:54 2025  *
 *  PM7        - The PM7 Hamiltonian to be used
 *
 *
 *
 *                 CHARGE ON SYSTEM = +1
 *
 *
 *
 *  EPS=37.5   - USE ANDREAS KLAMT'S COSMO IMPLICIT SOLVATION MODEL
 *  1SCF       - DO 1 SCF AND THEN STOP 
 *  T=         - A TIME OF 172800.0 SECONDS REQUESTED
 *  DUMP=N     - RESTART FILE WRITTEN EVERY 7200.0 SECONDS REQUESTED
 *  RELSCF     - DEFAULT SCF CRITERION MULTIPLIED BY 0.0001
 *              (DEFAULT SCF CRITERION = 0.00010)
 *  GRADIENTS  - ALL GRADIENTS TO BE PRINTED
 *  DISP       - PRINT DISPERSION AND HYDROGEN BOND ENERGIES
 *******************************************************************************
PM7 1SCF GRADIENTS EPS=37.5 DISP RELSCF=0.0001 CHARGE=1
 Title: ASE calculation

   ATOM   CHEMICAL          X               Y               Z
  NUMBER   SYMBOL      (ANGSTROMS)     (ANGSTROMS)     (ANGSTROMS)

     1       C         -1.06034652  *   1.92283653  *   0.69027408  *
     2       C         -0.73497050  *   0.59340908  *   0.10696164  *
     3       C         -1.39951424  *   0.18163331  *  -1.18576544  *
     4       C         -1.54308304  *  -1.34772221  *  -1.14353531  *
     5       C         -1.50881955  *  -1.76197205  *   0.33236447  *
     6       C         -0.70694557  *  -0.64587368  *   1.06592026  *
     7       N          0.66235994  *  -1.02380510  *   1.20754337  *
     8       C          1.43439521  *  -0.18986141  *   0.40909580  *
     9       O          0.77025431  *   0.70360654  *  -0.23562590  *
    10       H         -2.15274240  *   2.06065909  *   0.82225106  *
    11       H         -0.61091465  *   2.10460188  *   1.67980455  *
    12       H         -0.74123251  *   2.76450448  *   0.04312501  *
    13       H         -2.39660017  *   0.66754302  *  -1.29315502  *
    14       H         -0.84183584  *   0.52133704  *  -2.08422953  *
    15       H         -2.48476165  *  -1.67903063  *  -1.62906691  *
    16       H         -0.74045463  *  -1.84530026  *  -1.72073546  *
    17       H         -1.05900864  *  -2.76450448  *   0.47951561  *
    18       H         -2.52802289  *  -1.83198436  *   0.76320817  *
    19       H         -1.15885033  *  -0.45734319  *   2.08422953  *
    20       H          2.52802289  *  -0.24750920  *   0.29208150  *



          CARTESIAN COORDINATES 

    NO.       ATOM           X           Y           Z

     1         C         -1.0603      1.9228      0.6903
     2         C         -0.7350      0.5934      0.1070
     3         C         -1.3995      0.1816     -1.1858
     4         C         -1.5431     -1.3477     -1.1435
     5         C         -1.5088     -1.7620      0.3324
     6         C         -0.7069     -0.6459      1.0659
     7         N          0.6624     -1.0238      1.2075
     8         C          1.4344     -0.1899      0.4091
     9         O          0.7703      0.7036     -0.2356
    10         H         -2.1527      2.0607      0.8223
    11         H         -0.6109      2.1046      1.6798
    12         H         -0.7412      2.7645      0.0431
    13         H         -2.3966      0.6675     -1.2932
    14         H         -0.8418      0.5213     -2.0842
    15         H         -2.4848     -1.6790     -1.6291
    16         H         -0.7405     -1.8453     -1.7207
    17         H         -1.0590     -2.7645      0.4795
    18         H         -2.5280     -1.8320      0.7632
    19         H         -1.1589     -0.4573      2.0842
    20         H          2.5280     -0.2475      0.2921

 General Reference for PM7:
 "Optimization of Parameters for Semiempirical Methods VI: More Modifications to the 
 NDDO Approximations and Re-optimization of Parameters", J. J. P. Stewart, J. Mol. Mod., 1:32, 19 (2013)
 https://link.springer.com/article/10.1007/s00894-012-1667-x

           Empirical Formula: C7 H11 N O  =    20 atoms



      MOLECULAR POINT GROUP   :   C1  


          UHF CALCULATION, NO. OF ALPHA ELECTRONS =   25
                           NO. OF BETA  ELECTRONS =   24
  SCF CRITERION =    0.1000E-07

 -------------------------------------------------------------------------------
 PM7 1SCF GRADIENTS EPS=37.5 DISP RELSCF=0.0001 CHARGE=1
 Title: ASE calculation



     1SCF WAS SPECIFIED, SO BFGS WAS NOT USED                 
     SCF FIELD WAS ACHIEVED                                   


                              PM7 CALCULATION
                                                       MOPAC v23.2 Linux
                                                       Fri Sep 19 21:41:56 2025




          FINAL HEAT OF FORMATION =        117.92385 KCAL/MOL =     493.39340 KJ/MOL

          TOTAL ENERGY            =     -34204.00117 KCAL/MOL = ELECTRONIC ENERGY + CORE-CORE REPULSION + SOLVATION ENERGY
          ENERGY OF ATOMS         =      34323.93363 KCAL/MOL
                              SUM =        119.93246 KCAL/MOL
          DISPERSION ENERGY       =         -2.00861 KCAL/MOL
                              SUM =        117.92385 KCAL/MOL = FINAL HEAT OF FORMATION

          VAN DER WAALS AREA      =        159.11 SQUARE ANGSTROMS


          TOTAL ENERGY            =      -1483.22587 EV
          ELECTRONIC ENERGY       =      -2478.49518 EV 
          CORE-CORE REPULSION     =        995.26931 EV

          DIELECTRIC ENERGY       =         -2.31720 EV
          COSMO AREA              =        159.11 SQUARE ANGSTROMS
          COSMO VOLUME            =        161.74 CUBIC ANGSTROMS

          GRADIENT NORM           =         14.24881          =       3.18613 PER ATOM
          IONIZATION POTENTIAL    =         11.912184 EV
          ALPHA SOMO LUMO (EV)    =        -11.933 -1.475
          BETA  SOMO LUMO (EV)    =        -11.912 -3.872
          NO. OF ALPHA ELECTRONS  =         25
          NO. OF BETA  ELECTRONS  =         24
          MOLECULAR WEIGHT        =        125.1700         POINT GROUP:  C1  

          MOLECULAR DIMENSIONS (Angstroms)

            Atom       Atom       Distance
            H    20    H    15     5.55590
            H    17    H    12     5.33165
            H    19    H    14     3.86409


          SCF CALCULATIONS        =          2

          WALL-CLOCK TIME         =      2.117 SECONDS
          COMPUTATION TIME        =      0.828 SECONDS

          LARGEST ATOMIC GRADIENTS

          Atom     Label                     Cartesian Gradients           Cartesian Coordinates       |Gradient|
                                           X          Y          Z        X          Y          Z

             8       C                  -1.314     -6.396      4.978    1.43440   -0.18986    0.40910      8.211
             7       N                   4.921      3.922     -3.531    0.66236   -1.02381    1.20754      7.216
             9       O                   2.226      2.540     -2.613    0.77025    0.70361   -0.23563      4.270
             6       C                   1.035      1.680      2.853   -0.70695   -0.64587    1.06592      3.469
             2       C                  -3.362     -0.068     -0.244   -0.73497    0.59341    0.10696      3.372
            20       H                  -2.680     -0.362      0.585    2.52802   -0.24751    0.29208      2.767
             1       C                   1.620     -1.828      0.878   -1.06035    1.92284    0.69027      2.595
             4       C                   1.767      1.084      1.074   -1.54308   -1.34772   -1.14354      2.335
            12       H                  -0.083      1.584     -0.070   -0.74123    2.76450    0.04313      1.588
            19       H                   0.246     -1.374     -0.754   -1.15885   -0.45734    2.08423      1.586



       FINAL  POINT  AND  DERIVATIVES

   PARAMETER     ATOM    TYPE            VALUE        GRADIENT
      1          1  C    CARTESIAN X    -1.060347      1.619768  KCAL/ANGSTROM
      2          1  C    CARTESIAN Y     1.922837     -1.828295  KCAL/ANGSTROM
      3          1  C    CARTESIAN Z     0.690274      0.877591  KCAL/ANGSTROM
      4          2  C    CARTESIAN X    -0.734971     -3.362389  KCAL/ANGSTROM
      5          2  C    CARTESIAN Y     0.593409     -0.067561  KCAL/ANGSTROM
      6          2  C    CARTESIAN Z     0.106962     -0.244308  KCAL/ANGSTROM
      7          3  C    CARTESIAN X    -1.399514      1.281730  KCAL/ANGSTROM
      8          3  C    CARTESIAN Y     0.181633      0.621947  KCAL/ANGSTROM
      9          3  C    CARTESIAN Z    -1.185765      0.258296  KCAL/ANGSTROM
     10          4  C    CARTESIAN X    -1.543083      1.767035  KCAL/ANGSTROM
     11          4  C    CARTESIAN Y    -1.347722      1.084377  KCAL/ANGSTROM
     12          4  C    CARTESIAN Z    -1.143535      1.073988  KCAL/ANGSTROM
     13          5  C    CARTESIAN X    -1.508820     -0.560380  KCAL/ANGSTROM
     14          5  C    CARTESIAN Y    -1.761972      0.584815  KCAL/ANGSTROM
     15          5  C    CARTESIAN Z     0.332364     -1.001718  KCAL/ANGSTROM
     16          6  C    CARTESIAN X    -0.706946      1.034840  KCAL/ANGSTROM
     17          6  C    CARTESIAN Y    -0.645874      1.679887  KCAL/ANGSTROM
     18          6  C    CARTESIAN Z     1.065920      2.853168  KCAL/ANGSTROM
     19          7  N    CARTESIAN X     0.662360      4.921262  KCAL/ANGSTROM
     20          7  N    CARTESIAN Y    -1.023805      3.921577  KCAL/ANGSTROM
     21          7  N    CARTESIAN Z     1.207543     -3.531149  KCAL/ANGSTROM
     22          8  C    CARTESIAN X     1.434395     -1.314108  KCAL/ANGSTROM
     23          8  C    CARTESIAN Y    -0.189861     -6.395627  KCAL/ANGSTROM
     24          8  C    CARTESIAN Z     0.409096      4.978393  KCAL/ANGSTROM
     25          9  O    CARTESIAN X     0.770254      2.226434  KCAL/ANGSTROM
     26          9  O    CARTESIAN Y     0.703607      2.540191  KCAL/ANGSTROM
     27          9  O    CARTESIAN Z    -0.235626     -2.612886  KCAL/ANGSTROM
     28         10  H    CARTESIAN X    -2.152742     -0.761004  KCAL/ANGSTROM
     29         10  H    CARTESIAN Y     2.060659      1.334139  KCAL/ANGSTROM
     30         10  H    CARTESIAN Z     0.822251     -0.008598  KCAL/ANGSTROM
     31         11  H    CARTESIAN X    -0.610915     -0.857149  KCAL/ANGSTROM
     32         11  H    CARTESIAN Y     2.104602      1.000466  KCAL/ANGSTROM
     33         11  H    CARTESIAN Z     1.679805     -0.013498  KCAL/ANGSTROM
     34         12  H    CARTESIAN X    -0.741233     -0.083130  KCAL/ANGSTROM
     35         12  H    CARTESIAN Y     2.764504      1.584024  KCAL/ANGSTROM
     36         12  H    CARTESIAN Z     0.043125     -0.070222  KCAL/ANGSTROM
     37         13  H    CARTESIAN X    -2.396600     -0.851023  KCAL/ANGSTROM
     38         13  H    CARTESIAN Y     0.667543     -0.258816  KCAL/ANGSTROM
     39         13  H    CARTESIAN Z    -1.293155     -0.679040  KCAL/ANGSTROM
     40         14  H    CARTESIAN X    -0.841836     -0.583015  KCAL/ANGSTROM
     41         14  H    CARTESIAN Y     0.521337     -0.076688  KCAL/ANGSTROM
     42         14  H    CARTESIAN Z    -2.084230     -0.692314  KCAL/ANGSTROM
     43         15  H    CARTESIAN X    -2.484762     -0.918727  KCAL/ANGSTROM
     44         15  H    CARTESIAN Y    -1.679031     -0.826928  KCAL/ANGSTROM
     45         15  H    CARTESIAN Z    -1.629067     -0.827033  KCAL/ANGSTROM
     46         16  H    CARTESIAN X    -0.740455     -0.720946  KCAL/ANGSTROM
     47         16  H    CARTESIAN Y    -1.845300     -0.815593  KCAL/ANGSTROM
     48         16  H    CARTESIAN Z    -1.720735     -0.693863  KCAL/ANGSTROM
     49         17  H    CARTESIAN X    -1.059009     -0.007000  KCAL/ANGSTROM
     50         17  H    CARTESIAN Y    -2.764504     -1.472335  KCAL/ANGSTROM
     51         17  H    CARTESIAN Z     0.479516      0.217740  KCAL/ANGSTROM
     52         18  H    CARTESIAN X    -2.528023     -0.398368  KCAL/ANGSTROM
     53         18  H    CARTESIAN Y    -1.831984     -0.873850  KCAL/ANGSTROM
     54         18  H    CARTESIAN Z     0.763208      0.284533  KCAL/ANGSTROM
     55         19  H    CARTESIAN X    -1.158850      0.246277  KCAL/ANGSTROM
     56         19  H    CARTESIAN Y    -0.457343     -1.373576  KCAL/ANGSTROM
     57         19  H    CARTESIAN Z     2.084230     -0.754125  KCAL/ANGSTROM
     58         20  H    CARTESIAN X     2.528023     -2.680112  KCAL/ANGSTROM
     59         20  H    CARTESIAN Y    -0.247509     -0.362158  KCAL/ANGSTROM
     60         20  H    CARTESIAN Z     0.292082      0.585038  KCAL/ANGSTROM




   ATOM   CHEMICAL          X               Y               Z
  NUMBER   SYMBOL      (ANGSTROMS)     (ANGSTROMS)     (ANGSTROMS)

     1       C         -1.06034652  *   1.92283653  *   0.69027408  *
     2       C         -0.73497050  *   0.59340908  *   0.10696164  *
     3       C         -1.39951424  *   0.18163331  *  -1.18576544  *
     4       C         -1.54308304  *  -1.34772221  *  -1.14353531  *
     5       C         -1.50881955  *  -1.76197205  *   0.33236447  *
     6       C         -0.70694557  *  -0.64587368  *   1.06592026  *
     7       N          0.66235994  *  -1.02380510  *   1.20754337  *
     8       C          1.43439521  *  -0.18986141  *   0.40909580  *
     9       O          0.77025431  *   0.70360654  *  -0.23562590  *
    10       H         -2.15274240  *   2.06065909  *   0.82225106  *
    11       H         -0.61091465  *   2.10460188  *   1.67980455  *
    12       H         -0.74123251  *   2.76450448  *   0.04312501  *
    13       H         -2.39660017  *   0.66754302  *  -1.29315502  *
    14       H         -0.84183584  *   0.52133704  *  -2.08422953  *
    15       H         -2.48476165  *  -1.67903063  *  -1.62906691  *
    16       H         -0.74045463  *  -1.84530026  *  -1.72073546  *
    17       H         -1.05900864  *  -2.76450448  *   0.47951561  *
    18       H         -2.52802289  *  -1.83198436  *   0.76320817  *
    19       H         -1.15885033  *  -0.45734319  *   2.08422953  *
    20       H          2.52802289  *  -0.24750920  *   0.29208150  *

                             CARTESIAN COORDINATES

   1    C       -1.060346523     1.922836531     0.690274076
   2    C       -0.734970505     0.593409079     0.106961643
   3    C       -1.399514243     0.181633314    -1.185765441
   4    C       -1.543083041    -1.347722211    -1.143535307
   5    C       -1.508819553    -1.761972052     0.332364466
   6    C       -0.706945568    -0.645873681     1.065920262
   7    N        0.662359943    -1.023805105     1.207543367
   8    C        1.434395212    -0.189861408     0.409095800
   9    O        0.770254312     0.703606537    -0.235625895
  10    H       -2.152742403     2.060659094     0.822251063
  11    H       -0.610914654     2.104601878     1.679804546
  12    H       -0.741232513     2.764504485     0.043125011
  13    H       -2.396600170     0.667543017    -1.293155024
  14    H       -0.841835841     0.521337045    -2.084229534
  15    H       -2.484761647    -1.679030633    -1.629066909
  16    H       -0.740454629    -1.845300256    -1.720735458
  17    H       -1.059008642    -2.764504485     0.479515610
  18    H       -2.528022889    -1.831984359     0.763208171
  19    H       -1.158850328    -0.457343194     2.084229534
  20    H        2.528022889    -0.247509195     0.292081502


           Empirical Formula: C7 H11 N O  =    20 atoms



      MOLECULAR POINT GROUP   :   C1  


          ALPHA EIGENVALUES  
 -37.88777 -33.22695 -30.87263 -27.55316 -25.89940 -24.28516 -22.88259 -21.18275
 -20.68440 -18.52622 -17.84693 -17.17696 -16.94546 -16.13805 -15.36846 -15.22026
 -14.77352 -14.33829 -13.76388 -13.58164 -13.09613 -13.01195 -12.56079 -12.25084
 -11.93274  -1.47512  -0.51619   0.99208   1.53382   1.79650   2.31078   2.90701
   2.96817   3.18199   3.40925   3.83267   3.94075   4.48040   4.72470   4.97775
   5.03396   5.04032   5.45741   5.73080   5.83565   6.08321   6.24367


           BETA EIGENVALUES 
 -36.70763 -32.17642 -30.73593 -27.51858 -25.74174 -24.18092 -22.60364 -21.01328
 -20.54659 -18.12857 -17.60512 -17.03406 -16.77384 -15.62076 -15.17994 -14.86277
 -14.18886 -14.04426 -13.58943 -13.42068 -13.06732 -12.86808 -12.21755 -11.91218
  -3.87235  -0.40256  -0.32987   1.25986   1.71626   1.94760   2.39903   2.94974
   3.01601   3.41070   3.46282   3.85601   3.95966   4.58771   4.73387   4.97901
   5.03980   5.04453   5.46422   5.73728   5.83865   6.08359   6.24385


              NET ATOMIC CHARGES AND DIPOLE CONTRIBUTIONS

  ATOM NO.   TYPE          CHARGE      No. of ELECS.   s-Pop       p-Pop       
    1          C          -0.523076        4.5231     1.05730     3.46577
    2          C           0.256126        3.7439     1.14191     2.60197
    3          C          -0.338271        4.3383     1.06925     3.26902
    4          C          -0.278536        4.2785     1.06380     3.21473
    5          C          -0.244149        4.2441     1.07439     3.16975
    6          C          -0.101502        4.1015     1.10619     2.99531
    7          N          -0.268833        5.2688     1.79261     3.47623
    8          C           0.425416        3.5746     1.20745     2.36713
    9          O          -0.169361        6.1694     1.87899     4.29037
   10          H           0.211439        0.7886     0.78856
   11          H           0.195066        0.8049     0.80493
   12          H           0.205419        0.7946     0.79458
   13          H           0.199562        0.8004     0.80044
   14          H           0.196443        0.8036     0.80356
   15          H           0.175006        0.8250     0.82499
   16          H           0.163129        0.8369     0.83687
   17          H           0.182082        0.8179     0.81792
   18          H           0.180154        0.8198     0.81985
   19          H           0.255782        0.7442     0.74422
   20          H           0.278105        0.7219     0.72189
 DIPOLE           X         Y         Z       TOTAL
 POINT-CHG.     1.437     1.042     0.362     1.811
 HYBRID         0.065     0.778    -0.342     0.852
 SUM            1.501     1.820     0.020     2.359


          ATOMIC ORBITAL ELECTRON POPULATIONS

     Atom    s        px        py        pz   
    1  C   1.05730   1.22079   1.04833   1.19666
    2  C   1.14191   0.65885   0.97375   0.96936
    3  C   1.06925   1.17185   1.04691   1.05026
    4  C   1.06380   1.20347   0.99045   1.02081
    5  C   1.07439   1.12281   1.05375   0.99320
    6  C   1.10619   0.89260   0.99791   1.10480
    7  N   1.79261   1.13055   1.22539   1.12029
    8  C   1.20745   1.01218   0.68844   0.66651
    9  O   1.87899   1.37386   1.43267   1.48385
   10  H   0.78856
   11  H   0.80493
   12  H   0.79458
   13  H   0.80044
   14  H   0.80356
   15  H   0.82499
   16  H   0.83687
   17  H   0.81792
   18  H   0.81985
   19  H   0.74422
   20  H   0.72189


                    (SZ)    =    0.500000
                    (S**2)  =    0.772062


          ATOMIC ORBITAL SPIN POPULATIONS

    Atom   Total    s     px     py     pz   
         Atomic
    1  C  0.0061  0.001  0.001  0.004  0.001
    2  C -0.0167 -0.001 -0.013 -0.001 -0.002
    3  C  0.0080  0.002  0.002  0.001  0.003
    4  C -0.0004 -0.000 -0.000 -0.001  0.001
    5  C  0.0766  0.009  0.025  0.024  0.019
    6  C -0.0334 -0.008 -0.036 -0.003  0.013
    7  N  0.7974  0.013  0.043  0.297  0.444
    8  C -0.1049 -0.010 -0.015 -0.033 -0.047
    9  O  0.2289  0.006  0.016  0.087  0.120
   10  H -0.0006 -0.001
   11  H -0.0003 -0.000
   12  H -0.0004 -0.000
   13  H -0.0003 -0.000
   14  H -0.0007 -0.001
   15  H  0.0012  0.001
   16  H  0.0000  0.000
   17  H -0.0027 -0.003
   18  H -0.0011 -0.001
   19  H  0.0424  0.042
   20  H  0.0008  0.001

 **********************
 *                    *
 * JOB ENDED NORMALLY *
 *                    *
 **********************



 TOTAL JOB TIME:             2.62 SECONDS

 == MOPAC DONE ==
