 *******************************************************************************
 **                                                                           **
 **                              MOPAC v23.2                                  **
 **                                                                           **
 *******************************************************************************
 **          Digital Object Identifier (DOI): 10.5281/zenodo.6511958          **
 **    Visit the DOI location for information on how to cite this program.    **
 *******************************************************************************

                              PM7 CALCULATION RESULTS

 *******************************************************************************
 *  CALCULATION DONE: (MAX THREADS = 40)             Fri Sep 19 21:27:25 2025  *
 *  PM7        - The PM7 Hamiltonian to be used
 *  1SCF       - DO 1 SCF AND THEN STOP 
 *  T=         - A TIME OF 172800.0 SECONDS REQUESTED
 *  DUMP=N     - RESTART FILE WRITTEN EVERY 7200.0 SECONDS REQUESTED
 *  RELSCF     - DEFAULT SCF CRITERION MULTIPLIED BY 0.0001
 *              (DEFAULT SCF CRITERION = 0.00010)
 *  GRADIENTS  - ALL GRADIENTS TO BE PRINTED
 *  DISP       - PRINT DISPERSION AND HYDROGEN BOND ENERGIES
 *******************************************************************************
PM7 1SCF GRADIENTS DISP RELSCF=0.0001
 Title: ASE calculation

   ATOM   CHEMICAL          X               Y               Z
  NUMBER   SYMBOL      (ANGSTROMS)     (ANGSTROMS)     (ANGSTROMS)

     1       C         -2.01852706  *  -1.43184650  *   0.32002319  *
     2       C         -0.66218064  *  -0.87235816  *   0.03922448  *
     3       C         -0.56498034  *   0.27965701  *  -0.95445921  *
     4       C          0.73758763  *   1.04202882  *  -0.57539110  *
     5       O          0.44482850  *   2.21606105  *   0.13086415  *
     6       C          1.51930540  *   0.04525797  *   0.30174397  *
     7       C          1.71123892  *  -1.28153529  *  -0.52337870  *
     8       N          0.46749318  *  -1.87191541  *   0.10766765  *
     9       C          0.41980111  *  -0.72603844  *   1.09840614  *
    10       H         -2.49968391  *  -1.78411242  *  -0.60362029  *
    11       H         -2.67615771  *  -0.68529118  *   0.78315681  *
    12       H         -1.96906930  *  -2.30134022  *   0.99588315  *
    13       H         -0.53318068  *  -0.08493729  *  -1.99315382  *
    14       H         -1.43977997  *   0.94835620  *  -0.88875162  *
    15       H          1.30788099  *   1.41435309  *  -1.44867690  *
    16       H         -0.05028378  *   2.02341333  *   0.95382858  *
    17       H          2.37418367  *   0.44955957  *   0.83219136  *
    18       H          2.58541024  *  -1.87831389  *  -0.22706497  *
    19       H          1.68176200  *  -1.19549435  *  -1.61272898  *
    20       H          0.36081087  *  -0.81846566  *   2.15802236  *



          CARTESIAN COORDINATES 

    NO.       ATOM           X           Y           Z

     1         C         -2.0185     -1.4318      0.3200
     2         C         -0.6622     -0.8724      0.0392
     3         C         -0.5650      0.2797     -0.9545
     4         C          0.7376      1.0420     -0.5754
     5         O          0.4448      2.2161      0.1309
     6         C          1.5193      0.0453      0.3017
     7         C          1.7112     -1.2815     -0.5234
     8         N          0.4675     -1.8719      0.1077
     9         C          0.4198     -0.7260      1.0984
    10         H         -2.4997     -1.7841     -0.6036
    11         H         -2.6762     -0.6853      0.7832
    12         H         -1.9691     -2.3013      0.9959
    13         H         -0.5332     -0.0849     -1.9932
    14         H         -1.4398      0.9484     -0.8888
    15         H          1.3079      1.4144     -1.4487
    16         H         -0.0503      2.0234      0.9538
    17         H          2.3742      0.4496      0.8322
    18         H          2.5854     -1.8783     -0.2271
    19         H          1.6818     -1.1955     -1.6127
    20         H          0.3608     -0.8185      2.1580

 General Reference for PM7:
 "Optimization of Parameters for Semiempirical Methods VI: More Modifications to the 
 NDDO Approximations and Re-optimization of Parameters", J. J. P. Stewart, J. Mol. Mod., 1:32, 19 (2013)
 https://link.springer.com/article/10.1007/s00894-012-1667-x

           Empirical Formula: C7 H11 N O  =    20 atoms



      MOLECULAR POINT GROUP   :   C1  


      RHF CALCULATION, NO. OF DOUBLY OCCUPIED LEVELS = 25

  SCF CRITERION =    0.1000E-07

 -------------------------------------------------------------------------------
 PM7 1SCF GRADIENTS DISP RELSCF=0.0001
 Title: ASE calculation



     1SCF WAS SPECIFIED, SO BFGS WAS NOT USED                 
     SCF FIELD WAS ACHIEVED                                   


                              PM7 CALCULATION
                                                       MOPAC v23.2 Linux
                                                       Fri Sep 19 21:27:25 2025




          FINAL HEAT OF FORMATION =         13.09486 KCAL/MOL =      54.78891 KJ/MOL

          TOTAL ENERGY            =     -34308.99524 KCAL/MOL = ELECTRONIC ENERGY + CORE-CORE REPULSION
          ENERGY OF ATOMS         =      34323.93363 KCAL/MOL
                              SUM =         14.93840 KCAL/MOL
          DISPERSION ENERGY       =         -1.84353 KCAL/MOL
                              SUM =         13.09486 KCAL/MOL = FINAL HEAT OF FORMATION



          TOTAL ENERGY            =      -1487.77885 EV
          ELECTRONIC ENERGY       =      -7688.64979 EV 
          CORE-CORE REPULSION     =       6200.87094 EV
          COSMO AREA              =        157.10 SQUARE ANGSTROMS
          COSMO VOLUME            =        159.60 CUBIC ANGSTROMS

          GRADIENT NORM           =          1.16017          =       0.25942 PER ATOM
          IONIZATION POTENTIAL    =          9.893201 EV
          HOMO LUMO ENERGIES (EV) =         -9.893  1.954
          NO. OF FILLED LEVELS    =         25
          MOLECULAR WEIGHT        =        125.1700         POINT GROUP:  C1  

          MOLECULAR DIMENSIONS (Angstroms)

            Atom       Atom       Distance
            H    17    H    10     5.55026
            H    18    H    16     4.83450
            H    20    H    15     4.24589


          SCF CALCULATIONS        =          1

          WALL-CLOCK TIME         =      0.633 SECONDS
          COMPUTATION TIME        =      1.332 SECONDS

          LARGEST ATOMIC GRADIENTS

          Atom     Label                     Cartesian Gradients           Cartesian Coordinates       |Gradient|
                                           X          Y          Z        X          Y          Z

            13       H                   0.243     -0.219      0.303   -0.53318   -0.08494   -1.99315      0.446
             8       N                  -0.305      0.066     -0.299    0.46749   -1.87192    0.10767      0.433
            10       H                   0.289      0.161      0.199   -2.49968   -1.78411   -0.60362      0.386
             9       C                  -0.228      0.133      0.226    0.41980   -0.72604    1.09841      0.347
            16       H                  -0.266      0.068      0.167   -0.05028    2.02341    0.95383      0.321
             2       C                  -0.075     -0.021     -0.276   -0.66218   -0.87236    0.03922      0.287
            17       H                   0.165     -0.112     -0.194    2.37418    0.44956    0.83219      0.278
            18       H                  -0.226     -0.126      0.070    2.58541   -1.87831   -0.22706      0.268
            20       H                   0.156      0.047      0.186    0.36081   -0.81847    2.15802      0.248
             7       C                  -0.100     -0.024     -0.211    1.71124   -1.28154   -0.52338      0.235



       FINAL  POINT  AND  DERIVATIVES

   PARAMETER     ATOM    TYPE            VALUE        GRADIENT
      1          1  C    CARTESIAN X    -2.018527      0.080338  KCAL/ANGSTROM
      2          1  C    CARTESIAN Y    -1.431847     -0.032117  KCAL/ANGSTROM
      3          1  C    CARTESIAN Z     0.320023      0.121133  KCAL/ANGSTROM
      4          2  C    CARTESIAN X    -0.662181     -0.074657  KCAL/ANGSTROM
      5          2  C    CARTESIAN Y    -0.872358     -0.020578  KCAL/ANGSTROM
      6          2  C    CARTESIAN Z     0.039224     -0.275837  KCAL/ANGSTROM
      7          3  C    CARTESIAN X    -0.564980     -0.011033  KCAL/ANGSTROM
      8          3  C    CARTESIAN Y     0.279657     -0.054886  KCAL/ANGSTROM
      9          3  C    CARTESIAN Z    -0.954459      0.048618  KCAL/ANGSTROM
     10          4  C    CARTESIAN X     0.737588     -0.026408  KCAL/ANGSTROM
     11          4  C    CARTESIAN Y     1.042029      0.050193  KCAL/ANGSTROM
     12          4  C    CARTESIAN Z    -0.575391      0.025001  KCAL/ANGSTROM
     13          5  O    CARTESIAN X     0.444829     -0.138672  KCAL/ANGSTROM
     14          5  O    CARTESIAN Y     2.216061     -0.145684  KCAL/ANGSTROM
     15          5  O    CARTESIAN Z     0.130864      0.062570  KCAL/ANGSTROM
     16          6  C    CARTESIAN X     1.519305      0.039458  KCAL/ANGSTROM
     17          6  C    CARTESIAN Y     0.045258      0.117711  KCAL/ANGSTROM
     18          6  C    CARTESIAN Z     0.301744      0.023037  KCAL/ANGSTROM
     19          7  C    CARTESIAN X     1.711239     -0.100450  KCAL/ANGSTROM
     20          7  C    CARTESIAN Y    -1.281535     -0.024151  KCAL/ANGSTROM
     21          7  C    CARTESIAN Z    -0.523379     -0.211149  KCAL/ANGSTROM
     22          8  N    CARTESIAN X     0.467493     -0.305148  KCAL/ANGSTROM
     23          8  N    CARTESIAN Y    -1.871915      0.066492  KCAL/ANGSTROM
     24          8  N    CARTESIAN Z     0.107668     -0.299258  KCAL/ANGSTROM
     25          9  C    CARTESIAN X     0.419801     -0.227865  KCAL/ANGSTROM
     26          9  C    CARTESIAN Y    -0.726038      0.132840  KCAL/ANGSTROM
     27          9  C    CARTESIAN Z     1.098406      0.225987  KCAL/ANGSTROM
     28         10  H    CARTESIAN X    -2.499684      0.288551  KCAL/ANGSTROM
     29         10  H    CARTESIAN Y    -1.784112      0.161232  KCAL/ANGSTROM
     30         10  H    CARTESIAN Z    -0.603620      0.199366  KCAL/ANGSTROM
     31         11  H    CARTESIAN X    -2.676158      0.108071  KCAL/ANGSTROM
     32         11  H    CARTESIAN Y    -0.685291      0.084416  KCAL/ANGSTROM
     33         11  H    CARTESIAN Z     0.783157     -0.190172  KCAL/ANGSTROM
     34         12  H    CARTESIAN X    -1.969069      0.031864  KCAL/ANGSTROM
     35         12  H    CARTESIAN Y    -2.301340     -0.055975  KCAL/ANGSTROM
     36         12  H    CARTESIAN Z     0.995883     -0.005207  KCAL/ANGSTROM
     37         13  H    CARTESIAN X    -0.533181      0.243196  KCAL/ANGSTROM
     38         13  H    CARTESIAN Y    -0.084937     -0.219281  KCAL/ANGSTROM
     39         13  H    CARTESIAN Z    -1.993154      0.303363  KCAL/ANGSTROM
     40         14  H    CARTESIAN X    -1.439780      0.079543  KCAL/ANGSTROM
     41         14  H    CARTESIAN Y     0.948356     -0.126597  KCAL/ANGSTROM
     42         14  H    CARTESIAN Z    -0.888752     -0.094582  KCAL/ANGSTROM
     43         15  H    CARTESIAN X     1.307881      0.115966  KCAL/ANGSTROM
     44         15  H    CARTESIAN Y     1.414353      0.048859  KCAL/ANGSTROM
     45         15  H    CARTESIAN Z    -1.448677     -0.121803  KCAL/ANGSTROM
     46         16  H    CARTESIAN X    -0.050284     -0.266145  KCAL/ANGSTROM
     47         16  H    CARTESIAN Y     2.023413      0.067681  KCAL/ANGSTROM
     48         16  H    CARTESIAN Z     0.953829      0.166827  KCAL/ANGSTROM
     49         17  H    CARTESIAN X     2.374184      0.165325  KCAL/ANGSTROM
     50         17  H    CARTESIAN Y     0.449560     -0.111559  KCAL/ANGSTROM
     51         17  H    CARTESIAN Z     0.832191     -0.194209  KCAL/ANGSTROM
     52         18  H    CARTESIAN X     2.585410     -0.225607  KCAL/ANGSTROM
     53         18  H    CARTESIAN Y    -1.878314     -0.126441  KCAL/ANGSTROM
     54         18  H    CARTESIAN Z    -0.227065      0.070143  KCAL/ANGSTROM
     55         19  H    CARTESIAN X     1.681762      0.067458  KCAL/ANGSTROM
     56         19  H    CARTESIAN Y    -1.195494      0.140556  KCAL/ANGSTROM
     57         19  H    CARTESIAN Z    -1.612729     -0.039961  KCAL/ANGSTROM
     58         20  H    CARTESIAN X     0.360811      0.156215  KCAL/ANGSTROM
     59         20  H    CARTESIAN Y    -0.818466      0.047289  KCAL/ANGSTROM
     60         20  H    CARTESIAN Z     2.158022      0.186130  KCAL/ANGSTROM




   ATOM   CHEMICAL          X               Y               Z
  NUMBER   SYMBOL      (ANGSTROMS)     (ANGSTROMS)     (ANGSTROMS)

     1       C         -2.01852706  *  -1.43184650  *   0.32002319  *
     2       C         -0.66218064  *  -0.87235816  *   0.03922448  *
     3       C         -0.56498034  *   0.27965701  *  -0.95445921  *
     4       C          0.73758763  *   1.04202882  *  -0.57539110  *
     5       O          0.44482850  *   2.21606105  *   0.13086415  *
     6       C          1.51930540  *   0.04525797  *   0.30174397  *
     7       C          1.71123892  *  -1.28153529  *  -0.52337870  *
     8       N          0.46749318  *  -1.87191541  *   0.10766765  *
     9       C          0.41980111  *  -0.72603844  *   1.09840614  *
    10       H         -2.49968391  *  -1.78411242  *  -0.60362029  *
    11       H         -2.67615771  *  -0.68529118  *   0.78315681  *
    12       H         -1.96906930  *  -2.30134022  *   0.99588315  *
    13       H         -0.53318068  *  -0.08493729  *  -1.99315382  *
    14       H         -1.43977997  *   0.94835620  *  -0.88875162  *
    15       H          1.30788099  *   1.41435309  *  -1.44867690  *
    16       H         -0.05028378  *   2.02341333  *   0.95382858  *
    17       H          2.37418367  *   0.44955957  *   0.83219136  *
    18       H          2.58541024  *  -1.87831389  *  -0.22706497  *
    19       H          1.68176200  *  -1.19549435  *  -1.61272898  *
    20       H          0.36081087  *  -0.81846566  *   2.15802236  *

                             CARTESIAN COORDINATES

   1    C       -2.018527058    -1.431846500     0.320023188
   2    C       -0.662180645    -0.872358160     0.039224481
   3    C       -0.564980339     0.279657006    -0.954459211
   4    C        0.737587628     1.042028816    -0.575391095
   5    O        0.444828500     2.216061053     0.130864149
   6    C        1.519305404     0.045257972     0.301743973
   7    C        1.711238923    -1.281535287    -0.523378702
   8    N        0.467493185    -1.871915405     0.107667649
   9    C        0.419801106    -0.726038442     1.098406136
  10    H       -2.499683905    -1.784112419    -0.603620288
  11    H       -2.676157712    -0.685291180     0.783156806
  12    H       -1.969069305    -2.301340216     0.995883148
  13    H       -0.533180680    -0.084937287    -1.993153818
  14    H       -1.439779971     0.948356197    -0.888751625
  15    H        1.307880992     1.414353089    -1.448676898
  16    H       -0.050283777     2.023413334     0.953828582
  17    H        2.374183670     0.449559566     0.832191358
  18    H        2.585410239    -1.878313887    -0.227064966
  19    H        1.681761999    -1.195494348    -1.612728981
  20    H        0.360810870    -0.818465659     2.158022359


           Empirical Formula: C7 H11 N O  =    20 atoms



      MOLECULAR POINT GROUP   :   C1  


                  EIGENVALUES  
 -37.17569 -30.09561 -27.50247 -27.16652 -24.07210 -23.67697 -21.85112 -19.33615
 -18.81615 -17.51264 -16.90102 -16.16363 -15.63479 -14.92814 -14.38490 -13.78770
 -13.65209 -13.53402 -13.05565 -12.60009 -12.30775 -11.45987 -11.24900 -10.88451
  -9.89320   1.95352   2.12941   2.43015   2.89053   3.21330   3.34957   3.56971
   3.81891   4.03032   4.26700   4.56868   5.05024   5.37188   5.43566   5.51379
   5.57393   5.73904   5.83841   5.86992   6.02340   6.13687   6.67734


              NET ATOMIC CHARGES AND DIPOLE CONTRIBUTIONS

  ATOM NO.   TYPE          CHARGE      No. of ELECS.   s-Pop       p-Pop       
    1          C          -0.442269        4.4423     1.04885     3.39341
    2          C           0.123081        3.8769     1.06261     2.81431
    3          C          -0.367854        4.3679     1.07769     3.29017
    4          C           0.162292        3.8377     1.09472     2.74299
    5          O          -0.544312        6.5443     1.84664     4.69767
    6          C          -0.218974        4.2190     1.09907     3.11991
    7          C          -0.142011        4.1420     1.08779     3.05422
    8          N          -0.366689        5.3667     1.80288     3.56381
    9          C          -0.140510        4.1405     1.09481     3.04570
   10          H           0.163318        0.8367     0.83668
   11          H           0.155335        0.8447     0.84467
   12          H           0.172924        0.8271     0.82708
   13          H           0.162588        0.8374     0.83741
   14          H           0.171149        0.8289     0.82885
   15          H           0.147526        0.8525     0.85247
   16          H           0.320255        0.6797     0.67974
   17          H           0.165556        0.8344     0.83444
   18          H           0.159456        0.8405     0.84054
   19          H           0.144418        0.8556     0.85558
   20          H           0.174722        0.8253     0.82528
 DIPOLE           X         Y         Z       TOTAL
 POINT-CHG.    -0.571     0.072    -0.380     0.690
 HYBRID        -0.075     0.356     0.225     0.427
 SUM           -0.646     0.428    -0.156     0.790


          ATOMIC ORBITAL ELECTRON POPULATIONS

     Atom    s        px        py        pz   
    1  C   1.04885   1.03961   1.16508   1.18873
    2  C   1.06261   0.89873   0.93478   0.98079
    3  C   1.07769   1.10776   1.06803   1.11438
    4  C   1.09472   0.94960   0.83049   0.96290
    5  O   1.84664   1.81370   1.39292   1.49106
    6  C   1.09907   1.06760   1.01252   1.03978
    7  C   1.08779   0.98789   0.97963   1.08670
    8  N   1.80288   1.10058   1.27236   1.19087
    9  C   1.09481   1.03616   0.97534   1.03419
   10  H   0.83668
   11  H   0.84467
   12  H   0.82708
   13  H   0.83741
   14  H   0.82885
   15  H   0.85247
   16  H   0.67974
   17  H   0.83444
   18  H   0.84054
   19  H   0.85558
   20  H   0.82528

 **********************
 *                    *
 * JOB ENDED NORMALLY *
 *                    *
 **********************



 TOTAL JOB TIME:             0.96 SECONDS

 == MOPAC DONE ==
