 *******************************************************************************
 **                                                                           **
 **                              MOPAC v23.2                                  **
 **                                                                           **
 *******************************************************************************
 **          Digital Object Identifier (DOI): 10.5281/zenodo.6511958          **
 **    Visit the DOI location for information on how to cite this program.    **
 *******************************************************************************

                              PM7 CALCULATION RESULTS

 *******************************************************************************
 *  CALCULATION DONE: (MAX THREADS = 40)             Fri Sep 19 21:35:50 2025  *
 *  PM7        - The PM7 Hamiltonian to be used
 *
 *
 *
 *                 CHARGE ON SYSTEM = +1
 *
 *
 *
 *  1SCF       - DO 1 SCF AND THEN STOP 
 *  T=         - A TIME OF 172800.0 SECONDS REQUESTED
 *  DUMP=N     - RESTART FILE WRITTEN EVERY 7200.0 SECONDS REQUESTED
 *  RELSCF     - DEFAULT SCF CRITERION MULTIPLIED BY 0.0001
 *              (DEFAULT SCF CRITERION = 0.00010)
 *  GRADIENTS  - ALL GRADIENTS TO BE PRINTED
 *  DISP       - PRINT DISPERSION AND HYDROGEN BOND ENERGIES
 *******************************************************************************
PM7 1SCF GRADIENTS DISP RELSCF=0.0001 CHARGE=1
 Title: ASE calculation

   ATOM   CHEMICAL          X               Y               Z
  NUMBER   SYMBOL      (ANGSTROMS)     (ANGSTROMS)     (ANGSTROMS)

     1       C         -2.10383636  *  -0.29702151  *   0.57703422  *
     2       C         -1.16575862  *  -0.43147526  *  -0.62214351  *
     3       C         -0.16888957  *  -1.47410469  *  -0.38892909  *
     4       O          1.06169717  *  -1.41151503  *  -0.96950837  *
     5       C          1.87989584  *  -0.37247858  *  -0.75113191  *
     6       O          2.80185754  *  -0.12071537  *  -1.47109867  *
     7       C          1.67788692  *   0.44519441  *   0.53899051  *
     8       N          2.54123002  *   1.37122045  *   0.81337949  *
     9       H         -2.56887952  *  -1.25970723  *   0.84178804  *
    10       H         -1.60020749  *   0.07988666  *   1.47090217  *
    11       H         -2.93500577  *   0.39084712  *   0.35451848  *
    12       H         -1.77613956  *  -0.71243461  *  -1.52851182  *
    13       H         -0.73439449  *   0.54909562  *  -0.90227931  *
    14       H         -0.35457009  *  -2.47041368  *  -0.02273781  *
    15       H          0.81832879  *   0.20026601  *   1.19705311  *
    16       H          2.50595846  *   1.95233198  *   1.65448199  *
    17       H          3.33666661  *   1.58160141  *   0.18710935  *



          CARTESIAN COORDINATES 

    NO.       ATOM           X           Y           Z

     1         C         -2.1038     -0.2970      0.5770
     2         C         -1.1658     -0.4315     -0.6221
     3         C         -0.1689     -1.4741     -0.3889
     4         O          1.0617     -1.4115     -0.9695
     5         C          1.8799     -0.3725     -0.7511
     6         O          2.8019     -0.1207     -1.4711
     7         C          1.6779      0.4452      0.5390
     8         N          2.5412      1.3712      0.8134
     9         H         -2.5689     -1.2597      0.8418
    10         H         -1.6002      0.0799      1.4709
    11         H         -2.9350      0.3908      0.3545
    12         H         -1.7761     -0.7124     -1.5285
    13         H         -0.7344      0.5491     -0.9023
    14         H         -0.3546     -2.4704     -0.0227
    15         H          0.8183      0.2003      1.1971
    16         H          2.5060      1.9523      1.6545
    17         H          3.3367      1.5816      0.1871

 General Reference for PM7:
 "Optimization of Parameters for Semiempirical Methods VI: More Modifications to the 
 NDDO Approximations and Re-optimization of Parameters", J. J. P. Stewart, J. Mol. Mod., 1:32, 19 (2013)
 https://link.springer.com/article/10.1007/s00894-012-1667-x

           Empirical Formula: C5 H9 N O2  =    17 atoms



      MOLECULAR POINT GROUP   :   C1  


          UHF CALCULATION, NO. OF ALPHA ELECTRONS =   23
                           NO. OF BETA  ELECTRONS =   22
  SCF CRITERION =    0.1000E-07

 -------------------------------------------------------------------------------
 PM7 1SCF GRADIENTS DISP RELSCF=0.0001 CHARGE=1
 Title: ASE calculation



     1SCF WAS SPECIFIED, SO BFGS WAS NOT USED                 
     SCF FIELD WAS ACHIEVED                                   


                              PM7 CALCULATION
                                                       MOPAC v23.2 Linux
                                                       Fri Sep 19 21:35:51 2025




          FINAL HEAT OF FORMATION =        127.03034 KCAL/MOL =     531.49492 KJ/MOL

          TOTAL ENERGY            =     -34671.45957 KCAL/MOL = ELECTRONIC ENERGY + CORE-CORE REPULSION
          ENERGY OF ATOMS         =      34800.19765 KCAL/MOL
                              SUM =        128.73808 KCAL/MOL
          DISPERSION ENERGY       =         -1.67859 KCAL/MOL
          H-BOND ENERGY           =         -0.02915 KCAL/MOL
                              SUM =        127.03034 KCAL/MOL = FINAL HEAT OF FORMATION



          TOTAL ENERGY            =      -1503.49679 EV
          ELECTRONIC ENERGY       =      -6459.74630 EV 
          CORE-CORE REPULSION     =       4956.24952 EV
          COSMO AREA              =        154.30 SQUARE ANGSTROMS
          COSMO VOLUME            =        146.03 CUBIC ANGSTROMS

          GRADIENT NORM           =          0.82713          =       0.20061 PER ATOM
          IONIZATION POTENTIAL    =         13.196263 EV
          ALPHA SOMO LUMO (EV)    =        -13.196 -6.881
          BETA  SOMO LUMO (EV)    =        -15.715 -6.872
          NO. OF ALPHA ELECTRONS  =         23
          NO. OF BETA  ELECTRONS  =         22
          MOLECULAR WEIGHT        =        115.1316         POINT GROUP:  C1  

          MOLECULAR DIMENSIONS (Angstroms)

            Atom       Atom       Distance
            H    17    H     9     6.58613
            O     4    H    16     3.75627
            H    14    H    13     2.71540


          SCF CALCULATIONS        =          1

          WALL-CLOCK TIME         =      1.211 SECONDS
          COMPUTATION TIME        =      0.666 SECONDS

          LARGEST ATOMIC GRADIENTS

          Atom     Label                     Cartesian Gradients           Cartesian Coordinates       |Gradient|
                                           X          Y          Z        X          Y          Z

            11       H                  -0.267     -0.127     -0.161   -2.93501    0.39085    0.35452      0.337
             3       C                   0.162      0.196      0.177   -0.16889   -1.47410   -0.38893      0.310
             9       H                  -0.022     -0.241      0.046   -2.56888   -1.25971    0.84179      0.247
            14       H                  -0.135     -0.109      0.119   -0.35457   -2.47041   -0.02274      0.210
            16       H                   0.092     -0.016     -0.185    2.50596    1.95233    1.65448      0.207
            12       H                  -0.112      0.168     -0.007   -1.77614   -0.71243   -1.52851      0.203
             6       O                   0.092     -0.029     -0.165    2.80186   -0.12072   -1.47110      0.192
             7       C                   0.117     -0.143      0.039    1.67789    0.44519    0.53899      0.189
             8       N                   0.046     -0.091      0.159    2.54123    1.37122    0.81338      0.189
            17       H                   0.147      0.078      0.037    3.33667    1.58160    0.18711      0.170



       FINAL  POINT  AND  DERIVATIVES

   PARAMETER     ATOM    TYPE            VALUE        GRADIENT
      1          1  C    CARTESIAN X    -2.103836     -0.046869  KCAL/ANGSTROM
      2          1  C    CARTESIAN Y    -0.297022     -0.041917  KCAL/ANGSTROM
      3          1  C    CARTESIAN Z     0.577034     -0.144016  KCAL/ANGSTROM
      4          2  C    CARTESIAN X    -1.165759     -0.007509  KCAL/ANGSTROM
      5          2  C    CARTESIAN Y    -0.431475     -0.056231  KCAL/ANGSTROM
      6          2  C    CARTESIAN Z    -0.622144      0.017357  KCAL/ANGSTROM
      7          3  C    CARTESIAN X    -0.168890      0.162127  KCAL/ANGSTROM
      8          3  C    CARTESIAN Y    -1.474105      0.195926  KCAL/ANGSTROM
      9          3  C    CARTESIAN Z    -0.388929      0.176628  KCAL/ANGSTROM
     10          4  O    CARTESIAN X     1.061697     -0.005671  KCAL/ANGSTROM
     11          4  O    CARTESIAN Y    -1.411515      0.162666  KCAL/ANGSTROM
     12          4  O    CARTESIAN Z    -0.969508      0.035151  KCAL/ANGSTROM
     13          5  C    CARTESIAN X     1.879896     -0.046599  KCAL/ANGSTROM
     14          5  C    CARTESIAN Y    -0.372479      0.027584  KCAL/ANGSTROM
     15          5  C    CARTESIAN Z    -0.751132      0.128409  KCAL/ANGSTROM
     16          6  O    CARTESIAN X     2.801858      0.092181  KCAL/ANGSTROM
     17          6  O    CARTESIAN Y    -0.120715     -0.028950  KCAL/ANGSTROM
     18          6  O    CARTESIAN Z    -1.471099     -0.165361  KCAL/ANGSTROM
     19          7  C    CARTESIAN X     1.677887      0.117282  KCAL/ANGSTROM
     20          7  C    CARTESIAN Y     0.445194     -0.143383  KCAL/ANGSTROM
     21          7  C    CARTESIAN Z     0.538991      0.038952  KCAL/ANGSTROM
     22          8  N    CARTESIAN X     2.541230      0.045855  KCAL/ANGSTROM
     23          8  N    CARTESIAN Y     1.371220     -0.091404  KCAL/ANGSTROM
     24          8  N    CARTESIAN Z     0.813379      0.159158  KCAL/ANGSTROM
     25          9  H    CARTESIAN X    -2.568880     -0.021828  KCAL/ANGSTROM
     26          9  H    CARTESIAN Y    -1.259707     -0.241303  KCAL/ANGSTROM
     27          9  H    CARTESIAN Z     0.841788      0.046357  KCAL/ANGSTROM
     28         10  H    CARTESIAN X    -1.600207      0.114235  KCAL/ANGSTROM
     29         10  H    CARTESIAN Y     0.079887      0.034610  KCAL/ANGSTROM
     30         10  H    CARTESIAN Z     1.470902      0.101257  KCAL/ANGSTROM
     31         11  H    CARTESIAN X    -2.935006     -0.267324  KCAL/ANGSTROM
     32         11  H    CARTESIAN Y     0.390847     -0.126666  KCAL/ANGSTROM
     33         11  H    CARTESIAN Z     0.354518     -0.161336  KCAL/ANGSTROM
     34         12  H    CARTESIAN X    -1.776140     -0.112455  KCAL/ANGSTROM
     35         12  H    CARTESIAN Y    -0.712435      0.168418  KCAL/ANGSTROM
     36         12  H    CARTESIAN Z    -1.528512     -0.007349  KCAL/ANGSTROM
     37         13  H    CARTESIAN X    -0.734394     -0.028166  KCAL/ANGSTROM
     38         13  H    CARTESIAN Y     0.549096      0.118333  KCAL/ANGSTROM
     39         13  H    CARTESIAN Z    -0.902279     -0.097065  KCAL/ANGSTROM
     40         14  H    CARTESIAN X    -0.354570     -0.135088  KCAL/ANGSTROM
     41         14  H    CARTESIAN Y    -2.470414     -0.109114  KCAL/ANGSTROM
     42         14  H    CARTESIAN Z    -0.022738      0.118822  KCAL/ANGSTROM
     43         15  H    CARTESIAN X     0.818329     -0.098674  KCAL/ANGSTROM
     44         15  H    CARTESIAN Y     0.200266      0.069458  KCAL/ANGSTROM
     45         15  H    CARTESIAN Z     1.197053     -0.099164  KCAL/ANGSTROM
     46         16  H    CARTESIAN X     2.505958      0.091860  KCAL/ANGSTROM
     47         16  H    CARTESIAN Y     1.952332     -0.016154  KCAL/ANGSTROM
     48         16  H    CARTESIAN Z     1.654482     -0.184706  KCAL/ANGSTROM
     49         17  H    CARTESIAN X     3.336667      0.146631  KCAL/ANGSTROM
     50         17  H    CARTESIAN Y     1.581601      0.078090  KCAL/ANGSTROM
     51         17  H    CARTESIAN Z     0.187109      0.036898  KCAL/ANGSTROM




   ATOM   CHEMICAL          X               Y               Z
  NUMBER   SYMBOL      (ANGSTROMS)     (ANGSTROMS)     (ANGSTROMS)

     1       C         -2.10383636  *  -0.29702151  *   0.57703422  *
     2       C         -1.16575862  *  -0.43147526  *  -0.62214351  *
     3       C         -0.16888957  *  -1.47410469  *  -0.38892909  *
     4       O          1.06169717  *  -1.41151503  *  -0.96950837  *
     5       C          1.87989584  *  -0.37247858  *  -0.75113191  *
     6       O          2.80185754  *  -0.12071537  *  -1.47109867  *
     7       C          1.67788692  *   0.44519441  *   0.53899051  *
     8       N          2.54123002  *   1.37122045  *   0.81337949  *
     9       H         -2.56887952  *  -1.25970723  *   0.84178804  *
    10       H         -1.60020749  *   0.07988666  *   1.47090217  *
    11       H         -2.93500577  *   0.39084712  *   0.35451848  *
    12       H         -1.77613956  *  -0.71243461  *  -1.52851182  *
    13       H         -0.73439449  *   0.54909562  *  -0.90227931  *
    14       H         -0.35457009  *  -2.47041368  *  -0.02273781  *
    15       H          0.81832879  *   0.20026601  *   1.19705311  *
    16       H          2.50595846  *   1.95233198  *   1.65448199  *
    17       H          3.33666661  *   1.58160141  *   0.18710935  *

                             CARTESIAN COORDINATES

   1    C       -2.103836357    -0.297021507     0.577034220
   2    C       -1.165758622    -0.431475264    -0.622143511
   3    C       -0.168889571    -1.474104689    -0.388929085
   4    O        1.061697167    -1.411515026    -0.969508367
   5    C        1.879895840    -0.372478578    -0.751131906
   6    O        2.801857541    -0.120715365    -1.471098673
   7    C        1.677886920     0.445194415     0.538990514
   8    N        2.541230023     1.371220451     0.813379487
   9    H       -2.568879520    -1.259707227     0.841788036
  10    H       -1.600207488     0.079886657     1.470902166
  11    H       -2.935005770     0.390847122     0.354518476
  12    H       -1.776139559    -0.712434613    -1.528511824
  13    H       -0.734394485     0.549095616    -0.902279308
  14    H       -0.354570088    -2.470413676    -0.022737811
  15    H        0.818328791     0.200266009     1.197053109
  16    H        2.505958458     1.952331979     1.654481990
  17    H        3.336666609     1.581601406     0.187109353


           Empirical Formula: C5 H9 N O2  =    17 atoms



      MOLECULAR POINT GROUP   :   C1  


          ALPHA EIGENVALUES  
 -44.17832 -36.79905 -36.26508 -32.14450 -30.80612 -28.13534 -26.57520 -25.57405
 -24.46301 -22.82904 -21.74839 -21.24913 -20.39584 -19.71429 -19.48994 -18.86401
 -18.50040 -17.50162 -16.72411 -16.37643 -16.01942 -15.77506 -13.19626  -6.88144
  -4.17013  -4.08957  -3.66455  -3.01336  -1.53724  -0.87857  -0.49803  -0.22644
  -0.10827  -0.10020   0.55430   1.14589   1.75296   2.07132   2.20006   2.35712
   3.31231


           BETA EIGENVALUES 
 -44.17842 -36.74073 -36.24959 -32.03904 -30.76516 -27.97259 -26.52487 -25.54626
 -24.35105 -22.69128 -21.65654 -21.18646 -20.25692 -19.66260 -19.33458 -18.72194
 -18.35776 -17.35241 -16.64974 -16.25746 -15.90961 -15.71518  -6.87213  -4.43780
  -4.13127  -3.82885  -3.24391  -2.84872  -1.51820  -0.86525  -0.44054  -0.21720
   0.00717   0.18461   0.74414   1.21025   1.89753   2.10089   2.21305   2.41128
   3.31458


              NET ATOMIC CHARGES AND DIPOLE CONTRIBUTIONS

  ATOM NO.   TYPE          CHARGE      No. of ELECS.   s-Pop       p-Pop       
    1          C          -0.424684        4.4247     1.05042     3.37426
    2          C          -0.312795        4.3128     1.05149     3.26130
    3          C          -0.024388        4.0244     1.15419     2.87020
    4          O          -0.241941        6.2419     1.84138     4.40056
    5          C           0.502434        3.4976     1.11671     2.38086
    6          O          -0.304676        6.3047     1.88204     4.42264
    7          C           0.066627        3.9334     1.18343     2.74994
    8          N          -0.203266        5.2033     1.49392     3.70934
    9          H           0.171997        0.8280     0.82800
   10          H           0.133373        0.8666     0.86663
   11          H           0.173106        0.8269     0.82689
   12          H           0.207092        0.7929     0.79291
   13          H           0.145795        0.8542     0.85420
   14          H           0.194603        0.8054     0.80540
   15          H           0.233678        0.7663     0.76632
   16          H           0.335075        0.6649     0.66492
   17          H           0.347970        0.6520     0.65203
 DIPOLE           X         Y         Z       TOTAL
 POINT-CHG.     1.665     5.137     6.067     8.122
 HYBRID         0.744     0.560    -0.104     0.937
 SUM            2.410     5.697     5.963     8.592


          ATOMIC ORBITAL ELECTRON POPULATIONS

     Atom    s        px        py        pz   
    1  C   1.05042   1.11561   1.20576   1.05290
    2  C   1.05149   1.07277   1.08119   1.10734
    3  C   1.15419   0.77414   1.07694   1.01912
    4  O   1.84138   1.33892   1.41985   1.64179
    5  C   1.11671   0.80296   0.77911   0.79879
    6  O   1.88204   1.31826   1.60638   1.49800
    7  C   1.18343   0.89852   0.80787   1.04355
    8  N   1.49392   1.22580   1.21884   1.26471
    9  H   0.82800
   10  H   0.86663
   11  H   0.82689
   12  H   0.79291
   13  H   0.85420
   14  H   0.80540
   15  H   0.76632
   16  H   0.66492
   17  H   0.65203


                    (SZ)    =    0.500000
                    (S**2)  =    0.755968


          ATOMIC ORBITAL SPIN POPULATIONS

    Atom   Total    s     px     py     pz   
         Atomic
    1  C  0.0170  0.003  0.005  0.001  0.008
    2  C -0.0309 -0.005 -0.010 -0.013 -0.002
    3  C  0.9262  0.028  0.079  0.129  0.689
    4  O -0.0044  0.007 -0.018  0.005  0.002
    5  C  0.0347  0.015 -0.000  0.018  0.001
    6  O  0.0219  0.001 -0.001  0.024 -0.003
    7  C  0.0203  0.003  0.000 -0.001  0.018
    8  N -0.0011 -0.000 -0.000 -0.001  0.000
    9  H -0.0004 -0.000
   10  H -0.0006 -0.001
   11  H -0.0009 -0.001
   12  H  0.0372  0.037
   13  H  0.0041  0.004
   14  H -0.0236 -0.024
   15  H -0.0010 -0.001
   16  H  0.0010  0.001
   17  H  0.0003  0.000

 **********************
 *                    *
 * JOB ENDED NORMALLY *
 *                    *
 **********************



 TOTAL JOB TIME:             1.62 SECONDS

 == MOPAC DONE ==
