 *******************************************************************************
 **                                                                           **
 **                              MOPAC v23.2                                  **
 **                                                                           **
 *******************************************************************************
 **          Digital Object Identifier (DOI): 10.5281/zenodo.6511958          **
 **    Visit the DOI location for information on how to cite this program.    **
 *******************************************************************************

                              PM7 CALCULATION RESULTS

 *******************************************************************************
 *  CALCULATION DONE: (MAX THREADS = 40)             Fri Sep 19 21:30:46 2025  *
 *  PM7        - The PM7 Hamiltonian to be used
 *  1SCF       - DO 1 SCF AND THEN STOP 
 *  T=         - A TIME OF 172800.0 SECONDS REQUESTED
 *  DUMP=N     - RESTART FILE WRITTEN EVERY 7200.0 SECONDS REQUESTED
 *  RELSCF     - DEFAULT SCF CRITERION MULTIPLIED BY 0.0001
 *              (DEFAULT SCF CRITERION = 0.00010)
 *  GRADIENTS  - ALL GRADIENTS TO BE PRINTED
 *  DISP       - PRINT DISPERSION AND HYDROGEN BOND ENERGIES
 *******************************************************************************
PM7 1SCF GRADIENTS DISP RELSCF=0.0001
 Title: ASE calculation

   ATOM   CHEMICAL          X               Y               Z
  NUMBER   SYMBOL      (ANGSTROMS)     (ANGSTROMS)     (ANGSTROMS)

     1       C         -3.06617812  *  -0.18587065  *   0.44308872  *
     2       C         -2.37850414  *   1.02497681  *  -0.18167316  *
     3       C         -0.90519980  *   1.09189153  *   0.21320353  *
     4       O         -0.30074935  *   0.06781953  *  -0.60609050  *
     5       C          1.00471669  *  -0.12777379  *  -0.35951006  *
     6       C          2.00316523  *   0.53088598  *   0.35964297  *
     7       C          3.17362118  *  -0.26697863  *   0.15520432  *
     8       N          2.89760498  *  -1.32584514  *  -0.63675744  *
     9       N          1.56800054  *  -1.25668575  *  -0.94025282  *
    10       H         -3.07281901  *  -0.13288098  *   1.53764475  *
    11       H         -2.55859702  *  -1.11888702  *   0.16289779  *
    12       H         -4.10721533  *  -0.26990155  *   0.11119280  *
    13       H         -2.88645495  *   1.96064998  *   0.12310113  *
    14       H         -2.46341341  *   0.97926020  *  -1.28853901  *
    15       H         -0.73191670  *   0.85703694  *   1.27726510  *
    16       H         -0.43851907  *   2.05850372  *  -0.04433328  *
    17       H          1.93669187  *   1.42627661  *   0.92618649  *
    18       H          4.15930876  *  -0.09846969  *   0.55081375  *
    19       H          1.16240442  *  -1.91669923  *  -1.56775378  *



          CARTESIAN COORDINATES 

    NO.       ATOM           X           Y           Z

     1         C         -3.0662     -0.1859      0.4431
     2         C         -2.3785      1.0250     -0.1817
     3         C         -0.9052      1.0919      0.2132
     4         O         -0.3007      0.0678     -0.6061
     5         C          1.0047     -0.1278     -0.3595
     6         C          2.0032      0.5309      0.3596
     7         C          3.1736     -0.2670      0.1552
     8         N          2.8976     -1.3258     -0.6368
     9         N          1.5680     -1.2567     -0.9403
    10         H         -3.0728     -0.1329      1.5376
    11         H         -2.5586     -1.1189      0.1629
    12         H         -4.1072     -0.2699      0.1112
    13         H         -2.8865      1.9606      0.1231
    14         H         -2.4634      0.9793     -1.2885
    15         H         -0.7319      0.8570      1.2773
    16         H         -0.4385      2.0585     -0.0443
    17         H          1.9367      1.4263      0.9262
    18         H          4.1593     -0.0985      0.5508
    19         H          1.1624     -1.9167     -1.5678

 General Reference for PM7:
 "Optimization of Parameters for Semiempirical Methods VI: More Modifications to the 
 NDDO Approximations and Re-optimization of Parameters", J. J. P. Stewart, J. Mol. Mod., 1:32, 19 (2013)
 https://link.springer.com/article/10.1007/s00894-012-1667-x

           Empirical Formula: C6 H10 N2 O  =    19 atoms



      MOLECULAR POINT GROUP   :   C1  


      RHF CALCULATION, NO. OF DOUBLY OCCUPIED LEVELS = 25

  SCF CRITERION =    0.1000E-07

 -------------------------------------------------------------------------------
 PM7 1SCF GRADIENTS DISP RELSCF=0.0001
 Title: ASE calculation



     1SCF WAS SPECIFIED, SO BFGS WAS NOT USED                 
     SCF FIELD WAS ACHIEVED                                   


                              PM7 CALCULATION
                                                       MOPAC v23.2 Linux
                                                       Fri Sep 19 21:30:46 2025




          FINAL HEAT OF FORMATION =         -3.65356 KCAL/MOL =     -15.28649 KJ/MOL

          TOTAL ENERGY            =     -35482.17960 KCAL/MOL = ELECTRONIC ENERGY + CORE-CORE REPULSION
          ENERGY OF ATOMS         =      35480.40871 KCAL/MOL
                              SUM =         -1.77088 KCAL/MOL
          DISPERSION ENERGY       =         -1.88267 KCAL/MOL
                              SUM =         -3.65356 KCAL/MOL = FINAL HEAT OF FORMATION



          TOTAL ENERGY            =      -1538.65293 EV
          ELECTRONIC ENERGY       =      -7278.50207 EV 
          CORE-CORE REPULSION     =       5739.84914 EV
          COSMO AREA              =        169.34 SQUARE ANGSTROMS
          COSMO VOLUME            =        161.99 CUBIC ANGSTROMS

          GRADIENT NORM           =          1.06644          =       0.24466 PER ATOM
          IONIZATION POTENTIAL    =          9.221972 EV
          HOMO LUMO ENERGIES (EV) =         -9.222  0.785
          NO. OF FILLED LEVELS    =         25
          MOLECULAR WEIGHT        =        126.1578         POINT GROUP:  C1  

          MOLECULAR DIMENSIONS (Angstroms)

            Atom       Atom       Distance
            H    18    H    12     8.27998
            H    19    H    13     4.39226
            H    10    H    14     3.05033


          SCF CALCULATIONS        =          1

          WALL-CLOCK TIME         =      0.523 SECONDS
          COMPUTATION TIME        =      1.109 SECONDS

          LARGEST ATOMIC GRADIENTS

          Atom     Label                     Cartesian Gradients           Cartesian Coordinates       |Gradient|
                                           X          Y          Z        X          Y          Z

            19       H                  -0.249      0.360     -0.110    1.16240   -1.91670   -1.56775      0.452
             4       O                  -0.116     -0.258      0.192   -0.30075    0.06782   -0.60609      0.342
            17       H                   0.077      0.219     -0.230    1.93669    1.42628    0.92619      0.327
            18       H                   0.172     -0.188      0.159    4.15931   -0.09847    0.55081      0.300
             9       N                   0.274     -0.092      0.041    1.56800   -1.25669   -0.94025      0.292
            11       H                  -0.081     -0.270     -0.004   -2.55860   -1.11889    0.16290      0.281
            15       H                  -0.058      0.027      0.264   -0.73192    0.85704    1.27727      0.272
             1       C                   0.152      0.200     -0.100   -3.06618   -0.18587    0.44309      0.271
             2       C                  -0.066      0.233     -0.106   -2.37850    1.02498   -0.18167      0.264
             8       N                   0.250     -0.055      0.041    2.89760   -1.32585   -0.63676      0.260



       FINAL  POINT  AND  DERIVATIVES

   PARAMETER     ATOM    TYPE            VALUE        GRADIENT
      1          1  C    CARTESIAN X    -3.066178      0.152024  KCAL/ANGSTROM
      2          1  C    CARTESIAN Y    -0.185871      0.200249  KCAL/ANGSTROM
      3          1  C    CARTESIAN Z     0.443089     -0.100262  KCAL/ANGSTROM
      4          2  C    CARTESIAN X    -2.378504     -0.065531  KCAL/ANGSTROM
      5          2  C    CARTESIAN Y     1.024977      0.233016  KCAL/ANGSTROM
      6          2  C    CARTESIAN Z    -0.181673     -0.106056  KCAL/ANGSTROM
      7          3  C    CARTESIAN X    -0.905200     -0.094282  KCAL/ANGSTROM
      8          3  C    CARTESIAN Y     1.091892      0.068520  KCAL/ANGSTROM
      9          3  C    CARTESIAN Z     0.213204      0.119209  KCAL/ANGSTROM
     10          4  O    CARTESIAN X    -0.300749     -0.116170  KCAL/ANGSTROM
     11          4  O    CARTESIAN Y     0.067820     -0.257585  KCAL/ANGSTROM
     12          4  O    CARTESIAN Z    -0.606090      0.192391  KCAL/ANGSTROM
     13          5  C    CARTESIAN X     1.004717     -0.074198  KCAL/ANGSTROM
     14          5  C    CARTESIAN Y    -0.127774     -0.150055  KCAL/ANGSTROM
     15          5  C    CARTESIAN Z    -0.359510     -0.153285  KCAL/ANGSTROM
     16          6  C    CARTESIAN X     2.003165     -0.124617  KCAL/ANGSTROM
     17          6  C    CARTESIAN Y     0.530886     -0.019718  KCAL/ANGSTROM
     18          6  C    CARTESIAN Z     0.359643     -0.030641  KCAL/ANGSTROM
     19          7  C    CARTESIAN X     3.173621      0.032670  KCAL/ANGSTROM
     20          7  C    CARTESIAN Y    -0.266979      0.032420  KCAL/ANGSTROM
     21          7  C    CARTESIAN Z     0.155204     -0.023635  KCAL/ANGSTROM
     22          8  N    CARTESIAN X     2.897605      0.250306  KCAL/ANGSTROM
     23          8  N    CARTESIAN Y    -1.325845     -0.055086  KCAL/ANGSTROM
     24          8  N    CARTESIAN Z    -0.636757      0.041185  KCAL/ANGSTROM
     25          9  N    CARTESIAN X     1.568001      0.274177  KCAL/ANGSTROM
     26          9  N    CARTESIAN Y    -1.256686     -0.091608  KCAL/ANGSTROM
     27          9  N    CARTESIAN Z    -0.940253      0.041024  KCAL/ANGSTROM
     28         10  H    CARTESIAN X    -3.072819     -0.075456  KCAL/ANGSTROM
     29         10  H    CARTESIAN Y    -0.132881     -0.111827  KCAL/ANGSTROM
     30         10  H    CARTESIAN Z     1.537645      0.113428  KCAL/ANGSTROM
     31         11  H    CARTESIAN X    -2.558597     -0.080673  KCAL/ANGSTROM
     32         11  H    CARTESIAN Y    -1.118887     -0.269519  KCAL/ANGSTROM
     33         11  H    CARTESIAN Z     0.162898     -0.003755  KCAL/ANGSTROM
     34         12  H    CARTESIAN X    -4.107215      0.041333  KCAL/ANGSTROM
     35         12  H    CARTESIAN Y    -0.269902     -0.090320  KCAL/ANGSTROM
     36         12  H    CARTESIAN Z     0.111193      0.002082  KCAL/ANGSTROM
     37         13  H    CARTESIAN X    -2.886455     -0.056006  KCAL/ANGSTROM
     38         13  H    CARTESIAN Y     1.960650      0.090431  KCAL/ANGSTROM
     39         13  H    CARTESIAN Z     0.123101      0.013886  KCAL/ANGSTROM
     40         14  H    CARTESIAN X    -2.463413      0.024726  KCAL/ANGSTROM
     41         14  H    CARTESIAN Y     0.979260      0.007276  KCAL/ANGSTROM
     42         14  H    CARTESIAN Z    -1.288539     -0.083901  KCAL/ANGSTROM
     43         15  H    CARTESIAN X    -0.731917     -0.058412  KCAL/ANGSTROM
     44         15  H    CARTESIAN Y     0.857037      0.026768  KCAL/ANGSTROM
     45         15  H    CARTESIAN Z     1.277265      0.264393  KCAL/ANGSTROM
     46         16  H    CARTESIAN X    -0.438519     -0.028935  KCAL/ANGSTROM
     47         16  H    CARTESIAN Y     2.058504     -0.004371  KCAL/ANGSTROM
     48         16  H    CARTESIAN Z    -0.044333     -0.104171  KCAL/ANGSTROM
     49         17  H    CARTESIAN X     1.936692      0.076549  KCAL/ANGSTROM
     50         17  H    CARTESIAN Y     1.426277      0.218608  KCAL/ANGSTROM
     51         17  H    CARTESIAN Z     0.926186     -0.230418  KCAL/ANGSTROM
     52         18  H    CARTESIAN X     4.159309      0.171798  KCAL/ANGSTROM
     53         18  H    CARTESIAN Y    -0.098470     -0.187634  KCAL/ANGSTROM
     54         18  H    CARTESIAN Z     0.550814      0.158626  KCAL/ANGSTROM
     55         19  H    CARTESIAN X     1.162404     -0.249303  KCAL/ANGSTROM
     56         19  H    CARTESIAN Y    -1.916699      0.360431  KCAL/ANGSTROM
     57         19  H    CARTESIAN Z    -1.567754     -0.110101  KCAL/ANGSTROM




   ATOM   CHEMICAL          X               Y               Z
  NUMBER   SYMBOL      (ANGSTROMS)     (ANGSTROMS)     (ANGSTROMS)

     1       C         -3.06617812  *  -0.18587065  *   0.44308872  *
     2       C         -2.37850414  *   1.02497681  *  -0.18167316  *
     3       C         -0.90519980  *   1.09189153  *   0.21320353  *
     4       O         -0.30074935  *   0.06781953  *  -0.60609050  *
     5       C          1.00471669  *  -0.12777379  *  -0.35951006  *
     6       C          2.00316523  *   0.53088598  *   0.35964297  *
     7       C          3.17362118  *  -0.26697863  *   0.15520432  *
     8       N          2.89760498  *  -1.32584514  *  -0.63675744  *
     9       N          1.56800054  *  -1.25668575  *  -0.94025282  *
    10       H         -3.07281901  *  -0.13288098  *   1.53764475  *
    11       H         -2.55859702  *  -1.11888702  *   0.16289779  *
    12       H         -4.10721533  *  -0.26990155  *   0.11119280  *
    13       H         -2.88645495  *   1.96064998  *   0.12310113  *
    14       H         -2.46341341  *   0.97926020  *  -1.28853901  *
    15       H         -0.73191670  *   0.85703694  *   1.27726510  *
    16       H         -0.43851907  *   2.05850372  *  -0.04433328  *
    17       H          1.93669187  *   1.42627661  *   0.92618649  *
    18       H          4.15930876  *  -0.09846969  *   0.55081375  *
    19       H          1.16240442  *  -1.91669923  *  -1.56775378  *

                             CARTESIAN COORDINATES

   1    C       -3.066178118    -0.185870653     0.443088716
   2    C       -2.378504142     1.024976806    -0.181673161
   3    C       -0.905199798     1.091891530     0.213203531
   4    O       -0.300749349     0.067819533    -0.606090498
   5    C        1.004716688    -0.127773786    -0.359510063
   6    C        2.003165225     0.530885976     0.359642971
   7    C        3.173621179    -0.266978634     0.155204319
   8    N        2.897604979    -1.325845135    -0.636757444
   9    N        1.568000543    -1.256685749    -0.940252823
  10    H       -3.072819006    -0.132880979     1.537644752
  11    H       -2.558597025    -1.118887023     0.162897793
  12    H       -4.107215327    -0.269901545     0.111192798
  13    H       -2.886454950     1.960649980     0.123101126
  14    H       -2.463413405     0.979260200    -1.288539009
  15    H       -0.731916698     0.857036944     1.277265100
  16    H       -0.438519069     2.058503715    -0.044333275
  17    H        1.936691868     1.426276607     0.926186493
  18    H        4.159308760    -0.098469693     0.550813750
  19    H        1.162404423    -1.916699228    -1.567753776


           Empirical Formula: C6 H10 N2 O  =    19 atoms



      MOLECULAR POINT GROUP   :   C1  


                  EIGENVALUES  
 -39.90385 -31.25026 -30.24054 -28.28979 -26.73253 -24.21772 -21.28524 -21.09202
 -20.10221 -18.96659 -16.72376 -16.50296 -15.53831 -15.18946 -14.97809 -14.46301
 -14.39544 -13.31115 -13.11832 -12.40109 -12.12395 -11.90425 -11.38650  -9.98058
  -9.22197   0.78531   0.97229   1.32666   2.36729   3.20192   3.56773   3.88508
   4.06951   4.56092   5.10663   5.15469   5.23907   5.38272   5.62114   5.69038
   5.78344   6.08067   6.12291   6.23900   6.40224   6.80297


              NET ATOMIC CHARGES AND DIPOLE CONTRIBUTIONS

  ATOM NO.   TYPE          CHARGE      No. of ELECS.   s-Pop       p-Pop       
    1          C          -0.431089        4.4311     1.05111     3.37998
    2          C          -0.269322        4.2693     1.05738     3.21194
    3          C          -0.026963        4.0270     1.10024     2.92673
    4          O          -0.335557        6.3356     1.86851     4.46705
    5          C           0.283529        3.7165     1.07760     2.63887
    6          C          -0.406790        4.4068     1.06854     3.33825
    7          C          -0.020804        4.0208     1.09490     2.92590
    8          N          -0.249482        5.2495     1.79338     3.45610
    9          N          -0.254746        5.2547     1.52264     3.73210
   10          H           0.143494        0.8565     0.85651
   11          H           0.155123        0.8449     0.84488
   12          H           0.143504        0.8565     0.85650
   13          H           0.147689        0.8523     0.85231
   14          H           0.158564        0.8414     0.84144
   15          H           0.137342        0.8627     0.86266
   16          H           0.131180        0.8688     0.86882
   17          H           0.178412        0.8216     0.82159
   18          H           0.179488        0.8205     0.82051
   19          H           0.336427        0.6636     0.66357
 DIPOLE           X         Y         Z       TOTAL
 POINT-CHG.    -2.640     1.678     0.886     3.251
 HYBRID        -0.719    -0.038    -0.314     0.786
 SUM           -3.360     1.640     0.572     3.782


          ATOMIC ORBITAL ELECTRON POPULATIONS

     Atom    s        px        py        pz   
    1  C   1.05111   1.14279   1.08866   1.14854
    2  C   1.05738   0.99009   1.07883   1.14302
    3  C   1.10024   0.96117   0.94563   1.01992
    4  O   1.86851   1.24844   1.60548   1.61313
    5  C   1.07760   0.82076   0.86117   0.95694
    6  C   1.06854   0.99003   1.14022   1.20801
    7  C   1.09490   1.04280   0.91255   0.97055
    8  N   1.79338   0.93252   1.28093   1.24266
    9  N   1.52264   1.07829   1.24808   1.40574
   10  H   0.85651
   11  H   0.84488
   12  H   0.85650
   13  H   0.85231
   14  H   0.84144
   15  H   0.86266
   16  H   0.86882
   17  H   0.82159
   18  H   0.82051
   19  H   0.66357

 **********************
 *                    *
 * JOB ENDED NORMALLY *
 *                    *
 **********************



 TOTAL JOB TIME:             0.84 SECONDS

 == MOPAC DONE ==
