 *******************************************************************************
 **                                                                           **
 **                              MOPAC v23.2                                  **
 **                                                                           **
 *******************************************************************************
 **          Digital Object Identifier (DOI): 10.5281/zenodo.6511958          **
 **    Visit the DOI location for information on how to cite this program.    **
 *******************************************************************************

                              PM7 CALCULATION RESULTS

 *******************************************************************************
 *  CALCULATION DONE: (MAX THREADS = 40)             Fri Sep 19 21:29:13 2025  *
 *  PM7        - The PM7 Hamiltonian to be used
 *  1SCF       - DO 1 SCF AND THEN STOP 
 *  T=         - A TIME OF 172800.0 SECONDS REQUESTED
 *  DUMP=N     - RESTART FILE WRITTEN EVERY 7200.0 SECONDS REQUESTED
 *  RELSCF     - DEFAULT SCF CRITERION MULTIPLIED BY 0.0001
 *              (DEFAULT SCF CRITERION = 0.00010)
 *  GRADIENTS  - ALL GRADIENTS TO BE PRINTED
 *  DISP       - PRINT DISPERSION AND HYDROGEN BOND ENERGIES
 *******************************************************************************
PM7 1SCF GRADIENTS DISP RELSCF=0.0001
 Title: ASE calculation

   ATOM   CHEMICAL          X               Y               Z
  NUMBER   SYMBOL      (ANGSTROMS)     (ANGSTROMS)     (ANGSTROMS)

     1       O         -2.04054092  *   2.03413215  *  -0.47117187  *
     2       C         -1.35512408  *   1.16009970  *   0.39740236  *
     3       C          0.14662139  *   1.35530949  *   0.07892439  *
     4       C          0.72932915  *  -0.01790747  *  -0.19697327  *
     5       C          2.12275665  *  -0.40239638  *   0.14296497  *
     6       O          1.72961731  *  -0.11532528  *  -1.20693717  *
     7       C         -0.39245694  *  -1.01882601  *  -0.29079906  *
     8       N         -1.07919174  *  -1.24933065  *   1.00268141  *
     9       C         -1.68861828  *  -0.29896787  *   0.04783565  *
    10       H         -3.00118826  *   2.02378583  *  -0.29964756  *
    11       H         -1.61207761  *   1.40720874  *   1.44723575  *
    12       H          0.66711315  *   1.86935395  *   0.90261701  *
    13       H          0.25628209  *   2.00680641  *  -0.81673269  *
    14       H          2.38702823  *  -1.43853515  *   0.33798280  *
    15       H          2.81002796  *   0.31351161  *   0.58649266  *
    16       H         -0.28907876  *  -1.79973596  *  -1.04095316  *
    17       H         -1.53854766  *  -2.14614317  *   1.10775853  *
    18       H         -2.63826716  *  -0.48222790  *  -0.44203217  *



          CARTESIAN COORDINATES 

    NO.       ATOM           X           Y           Z

     1         O         -2.0405      2.0341     -0.4712
     2         C         -1.3551      1.1601      0.3974
     3         C          0.1466      1.3553      0.0789
     4         C          0.7293     -0.0179     -0.1970
     5         C          2.1228     -0.4024      0.1430
     6         O          1.7296     -0.1153     -1.2069
     7         C         -0.3925     -1.0188     -0.2908
     8         N         -1.0792     -1.2493      1.0027
     9         C         -1.6886     -0.2990      0.0478
    10         H         -3.0012      2.0238     -0.2996
    11         H         -1.6121      1.4072      1.4472
    12         H          0.6671      1.8694      0.9026
    13         H          0.2563      2.0068     -0.8167
    14         H          2.3870     -1.4385      0.3380
    15         H          2.8100      0.3135      0.5865
    16         H         -0.2891     -1.7997     -1.0410
    17         H         -1.5385     -2.1461      1.1078
    18         H         -2.6383     -0.4822     -0.4420

 General Reference for PM7:
 "Optimization of Parameters for Semiempirical Methods VI: More Modifications to the 
 NDDO Approximations and Re-optimization of Parameters", J. J. P. Stewart, J. Mol. Mod., 1:32, 19 (2013)
 https://link.springer.com/article/10.1007/s00894-012-1667-x

           Empirical Formula: C6 H9 N O2  =    18 atoms



      MOLECULAR POINT GROUP   :   C1  


      RHF CALCULATION, NO. OF DOUBLY OCCUPIED LEVELS = 25

  SCF CRITERION =    0.1000E-07

 -------------------------------------------------------------------------------
 PM7 1SCF GRADIENTS DISP RELSCF=0.0001
 Title: ASE calculation



     1SCF WAS SPECIFIED, SO BFGS WAS NOT USED                 
     SCF FIELD WAS ACHIEVED                                   


                              PM7 CALCULATION
                                                       MOPAC v23.2 Linux
                                                       Fri Sep 19 21:29:14 2025




          FINAL HEAT OF FORMATION =        -15.47769 KCAL/MOL =     -64.75867 KJ/MOL

          TOTAL ENERGY            =     -37652.75912 KCAL/MOL = ELECTRONIC ENERGY + CORE-CORE REPULSION
          ENERGY OF ATOMS         =      37638.97832 KCAL/MOL
                              SUM =        -13.78080 KCAL/MOL
          DISPERSION ENERGY       =         -1.69689 KCAL/MOL
                              SUM =        -15.47769 KCAL/MOL = FINAL HEAT OF FORMATION



          TOTAL ENERGY            =      -1632.77817 EV
          ELECTRONIC ENERGY       =      -7702.10986 EV 
          CORE-CORE REPULSION     =       6069.33168 EV
          COSMO AREA              =        155.08 SQUARE ANGSTROMS
          COSMO VOLUME            =        152.15 CUBIC ANGSTROMS

          GRADIENT NORM           =          1.11102          =       0.26187 PER ATOM
          IONIZATION POTENTIAL    =         10.109493 EV
          HOMO LUMO ENERGIES (EV) =        -10.109  1.703
          NO. OF FILLED LEVELS    =         25
          MOLECULAR WEIGHT        =        127.1426         POINT GROUP:  C1  

          MOLECULAR DIMENSIONS (Angstroms)

            Atom       Atom       Distance
            H    14    H    10     6.43639
            H    17    H    13     4.82926
            H    11    H    16     3.30577


          SCF CALCULATIONS        =          1

          WALL-CLOCK TIME         =      0.703 SECONDS
          COMPUTATION TIME        =      0.574 SECONDS

          LARGEST ATOMIC GRADIENTS

          Atom     Label                     Cartesian Gradients           Cartesian Coordinates       |Gradient|
                                           X          Y          Z        X          Y          Z

             2       C                   0.296      0.291      0.040   -1.35512    1.16010    0.39740      0.417
             4       C                   0.027     -0.164     -0.374    0.72933   -0.01791   -0.19697      0.409
             8       N                  -0.295      0.087      0.215   -1.07919   -1.24933    1.00268      0.375
            17       H                   0.233     -0.280      0.025   -1.53855   -2.14614    1.10776      0.365
             1       O                  -0.278      0.064      0.175   -2.04054    2.03413   -0.47117      0.335
            15       H                   0.240      0.178      0.133    2.81003    0.31351    0.58649      0.327
            11       H                  -0.312      0.020     -0.008   -1.61208    1.40721    1.44724      0.313
             9       C                  -0.099      0.199     -0.146   -1.68862   -0.29897    0.04784      0.266
             3       C                   0.200     -0.087     -0.027    0.14662    1.35531    0.07892      0.220
             6       O                  -0.096     -0.119     -0.143    1.72962   -0.11533   -1.20694      0.209



       FINAL  POINT  AND  DERIVATIVES

   PARAMETER     ATOM    TYPE            VALUE        GRADIENT
      1          1  O    CARTESIAN X    -2.040541     -0.278422  KCAL/ANGSTROM
      2          1  O    CARTESIAN Y     2.034132      0.063851  KCAL/ANGSTROM
      3          1  O    CARTESIAN Z    -0.471172      0.175017  KCAL/ANGSTROM
      4          2  C    CARTESIAN X    -1.355124      0.295832  KCAL/ANGSTROM
      5          2  C    CARTESIAN Y     1.160100      0.291288  KCAL/ANGSTROM
      6          2  C    CARTESIAN Z     0.397402      0.039681  KCAL/ANGSTROM
      7          3  C    CARTESIAN X     0.146621      0.199854  KCAL/ANGSTROM
      8          3  C    CARTESIAN Y     1.355309     -0.087337  KCAL/ANGSTROM
      9          3  C    CARTESIAN Z     0.078924     -0.027500  KCAL/ANGSTROM
     10          4  C    CARTESIAN X     0.729329      0.026827  KCAL/ANGSTROM
     11          4  C    CARTESIAN Y    -0.017907     -0.164180  KCAL/ANGSTROM
     12          4  C    CARTESIAN Z    -0.196973     -0.374107  KCAL/ANGSTROM
     13          5  C    CARTESIAN X     2.122757     -0.170350  KCAL/ANGSTROM
     14          5  C    CARTESIAN Y    -0.402396      0.054850  KCAL/ANGSTROM
     15          5  C    CARTESIAN Z     0.142965      0.097756  KCAL/ANGSTROM
     16          6  O    CARTESIAN X     1.729617     -0.095537  KCAL/ANGSTROM
     17          6  O    CARTESIAN Y    -0.115325     -0.119168  KCAL/ANGSTROM
     18          6  O    CARTESIAN Z    -1.206937     -0.142583  KCAL/ANGSTROM
     19          7  C    CARTESIAN X    -0.392457      0.006220  KCAL/ANGSTROM
     20          7  C    CARTESIAN Y    -1.018826     -0.085254  KCAL/ANGSTROM
     21          7  C    CARTESIAN Z    -0.290799     -0.018969  KCAL/ANGSTROM
     22          8  N    CARTESIAN X    -1.079192     -0.294737  KCAL/ANGSTROM
     23          8  N    CARTESIAN Y    -1.249331      0.087339  KCAL/ANGSTROM
     24          8  N    CARTESIAN Z     1.002681      0.215039  KCAL/ANGSTROM
     25          9  C    CARTESIAN X    -1.688618     -0.099344  KCAL/ANGSTROM
     26          9  C    CARTESIAN Y    -0.298968      0.198843  KCAL/ANGSTROM
     27          9  C    CARTESIAN Z     0.047836     -0.145931  KCAL/ANGSTROM
     28         10  H    CARTESIAN X    -3.001188      0.069329  KCAL/ANGSTROM
     29         10  H    CARTESIAN Y     2.023786     -0.067142  KCAL/ANGSTROM
     30         10  H    CARTESIAN Z    -0.299648     -0.036429  KCAL/ANGSTROM
     31         11  H    CARTESIAN X    -1.612078     -0.311759  KCAL/ANGSTROM
     32         11  H    CARTESIAN Y     1.407209      0.020031  KCAL/ANGSTROM
     33         11  H    CARTESIAN Z     1.447236     -0.008068  KCAL/ANGSTROM
     34         12  H    CARTESIAN X     0.667113      0.057657  KCAL/ANGSTROM
     35         12  H    CARTESIAN Y     1.869354      0.124563  KCAL/ANGSTROM
     36         12  H    CARTESIAN Z     0.902617      0.104304  KCAL/ANGSTROM
     37         13  H    CARTESIAN X     0.256282      0.023919  KCAL/ANGSTROM
     38         13  H    CARTESIAN Y     2.006806     -0.099845  KCAL/ANGSTROM
     39         13  H    CARTESIAN Z    -0.816733      0.066688  KCAL/ANGSTROM
     40         14  H    CARTESIAN X     2.387028      0.119159  KCAL/ANGSTROM
     41         14  H    CARTESIAN Y    -1.438535     -0.091641  KCAL/ANGSTROM
     42         14  H    CARTESIAN Z     0.337983     -0.019131  KCAL/ANGSTROM
     43         15  H    CARTESIAN X     2.810028      0.240442  KCAL/ANGSTROM
     44         15  H    CARTESIAN Y     0.313512      0.177513  KCAL/ANGSTROM
     45         15  H    CARTESIAN Z     0.586493      0.133338  KCAL/ANGSTROM
     46         16  H    CARTESIAN X    -0.289079      0.019029  KCAL/ANGSTROM
     47         16  H    CARTESIAN Y    -1.799736     -0.024654  KCAL/ANGSTROM
     48         16  H    CARTESIAN Z    -1.040953      0.009090  KCAL/ANGSTROM
     49         17  H    CARTESIAN X    -1.538548      0.232763  KCAL/ANGSTROM
     50         17  H    CARTESIAN Y    -2.146143     -0.280186  KCAL/ANGSTROM
     51         17  H    CARTESIAN Z     1.107759      0.025414  KCAL/ANGSTROM
     52         18  H    CARTESIAN X    -2.638267     -0.040886  KCAL/ANGSTROM
     53         18  H    CARTESIAN Y    -0.482228      0.001129  KCAL/ANGSTROM
     54         18  H    CARTESIAN Z    -0.442032     -0.093611  KCAL/ANGSTROM




   ATOM   CHEMICAL          X               Y               Z
  NUMBER   SYMBOL      (ANGSTROMS)     (ANGSTROMS)     (ANGSTROMS)

     1       O         -2.04054092  *   2.03413215  *  -0.47117187  *
     2       C         -1.35512408  *   1.16009970  *   0.39740236  *
     3       C          0.14662139  *   1.35530949  *   0.07892439  *
     4       C          0.72932915  *  -0.01790747  *  -0.19697327  *
     5       C          2.12275665  *  -0.40239638  *   0.14296497  *
     6       O          1.72961731  *  -0.11532528  *  -1.20693717  *
     7       C         -0.39245694  *  -1.01882601  *  -0.29079906  *
     8       N         -1.07919174  *  -1.24933065  *   1.00268141  *
     9       C         -1.68861828  *  -0.29896787  *   0.04783565  *
    10       H         -3.00118826  *   2.02378583  *  -0.29964756  *
    11       H         -1.61207761  *   1.40720874  *   1.44723575  *
    12       H          0.66711315  *   1.86935395  *   0.90261701  *
    13       H          0.25628209  *   2.00680641  *  -0.81673269  *
    14       H          2.38702823  *  -1.43853515  *   0.33798280  *
    15       H          2.81002796  *   0.31351161  *   0.58649266  *
    16       H         -0.28907876  *  -1.79973596  *  -1.04095316  *
    17       H         -1.53854766  *  -2.14614317  *   1.10775853  *
    18       H         -2.63826716  *  -0.48222790  *  -0.44203217  *

                             CARTESIAN COORDINATES

   1    O       -2.040540923     2.034132146    -0.471171874
   2    C       -1.355124080     1.160099699     0.397402360
   3    C        0.146621392     1.355309486     0.078924388
   4    C        0.729329150    -0.017907473    -0.196973268
   5    C        2.122756650    -0.402396382     0.142964971
   6    O        1.729617310    -0.115325279    -1.206937175
   7    C       -0.392456937    -1.018826007    -0.290799056
   8    N       -1.079191739    -1.249330648     1.002681409
   9    C       -1.688618277    -0.298967874     0.047835646
  10    H       -3.001188259     2.023785829    -0.299647565
  11    H       -1.612077606     1.407208741     1.447235747
  12    H        0.667113146     1.869353945     0.902617009
  13    H        0.256282088     2.006806411    -0.816732695
  14    H        2.387028230    -1.438535153     0.337982805
  15    H        2.810027955     0.313511607     0.586492656
  16    H       -0.289078756    -1.799735962    -1.040953158
  17    H       -1.538547656    -2.146143168     1.107758528
  18    H       -2.638267159    -0.482227903    -0.442032172


           Empirical Formula: C6 H9 N O2  =    18 atoms



      MOLECULAR POINT GROUP   :   C1  


                  EIGENVALUES  
 -37.00495 -31.97568 -29.98137 -27.73107 -24.15530 -23.94547 -22.75971 -20.22898
 -19.31029 -18.71114 -17.53950 -16.50145 -15.95974 -14.91418 -14.50638 -14.43812
 -13.62720 -13.30229 -12.98193 -12.61326 -11.94030 -11.35025 -11.13642 -10.62170
 -10.10949   1.70301   2.02278   2.35503   2.46488   2.96345   3.12636   3.29280
   3.58053   4.05274   4.18412   4.24598   5.13639   5.21469   5.35923   5.49983
   5.57890   5.72555   5.82545   6.07834   6.35301


              NET ATOMIC CHARGES AND DIPOLE CONTRIBUTIONS

  ATOM NO.   TYPE          CHARGE      No. of ELECS.   s-Pop       p-Pop       
    1          O          -0.553791        6.5538     1.84734     4.70646
    2          C           0.181982        3.8180     1.08854     2.72948
    3          C          -0.318327        4.3183     1.07146     3.24686
    4          C           0.182324        3.8177     1.06639     2.75128
    5          C          -0.147699        4.1477     1.09008     3.05762
    6          O          -0.345618        6.3456     1.92208     4.42353
    7          C          -0.092910        4.0929     1.07428     3.01863
    8          N          -0.475310        5.4753     1.72638     3.74893
    9          C          -0.129994        4.1300     1.08475     3.04524
   10          H           0.315638        0.6844     0.68436
   11          H           0.132769        0.8672     0.86723
   12          H           0.158979        0.8410     0.84102
   13          H           0.192003        0.8080     0.80800
   14          H           0.154471        0.8455     0.84553
   15          H           0.152729        0.8473     0.84727
   16          H           0.170544        0.8295     0.82946
   17          H           0.261522        0.7385     0.73848
   18          H           0.160690        0.8393     0.83931
 DIPOLE           X         Y         Z       TOTAL
 POINT-CHG.    -1.232    -0.650     2.304     2.692
 HYBRID        -0.697    -0.738    -1.070     1.476
 SUM           -1.929    -1.388     1.233     2.678


          ATOMIC ORBITAL ELECTRON POPULATIONS

     Atom    s        px        py        pz   
    1  O   1.84734   1.35195   1.69147   1.66303
    2  C   1.08854   0.91275   0.85098   0.96575
    3  C   1.07146   1.01503   1.04852   1.18331
    4  C   1.06639   0.87095   0.95815   0.92219
    5  C   1.09008   1.03536   1.13938   0.88288
    6  O   1.92208   1.36663   1.91587   1.14104
    7  C   1.07428   0.96858   1.07824   0.97182
    8  N   1.72638   1.25562   1.23344   1.25988
    9  C   1.08475   1.04003   0.98110   1.02412
   10  H   0.68436
   11  H   0.86723
   12  H   0.84102
   13  H   0.80800
   14  H   0.84553
   15  H   0.84727
   16  H   0.82946
   17  H   0.73848
   18  H   0.83931

 **********************
 *                    *
 * JOB ENDED NORMALLY *
 *                    *
 **********************



 TOTAL JOB TIME:             1.12 SECONDS

 == MOPAC DONE ==
