 *******************************************************************************
 **                                                                           **
 **                              MOPAC v23.2                                  **
 **                                                                           **
 *******************************************************************************
 **          Digital Object Identifier (DOI): 10.5281/zenodo.6511958          **
 **    Visit the DOI location for information on how to cite this program.    **
 *******************************************************************************

                              PM7 CALCULATION RESULTS

 *******************************************************************************
 *  CALCULATION DONE: (MAX THREADS = 40)             Fri Sep 19 21:54:47 2025  *
 *  PM7        - The PM7 Hamiltonian to be used
 *  1SCF       - DO 1 SCF AND THEN STOP 
 *  T=         - A TIME OF 172800.0 SECONDS REQUESTED
 *  DUMP=N     - RESTART FILE WRITTEN EVERY 7200.0 SECONDS REQUESTED
 *  RELSCF     - DEFAULT SCF CRITERION MULTIPLIED BY 0.0001
 *              (DEFAULT SCF CRITERION = 0.00010)
 *  GRADIENTS  - ALL GRADIENTS TO BE PRINTED
 *  DISP       - PRINT DISPERSION AND HYDROGEN BOND ENERGIES
 *******************************************************************************
PM7 1SCF GRADIENTS DISP RELSCF=0.0001
 Title: ASE calculation

   ATOM   CHEMICAL          X               Y               Z
  NUMBER   SYMBOL      (ANGSTROMS)     (ANGSTROMS)     (ANGSTROMS)

     1       O         -2.41290855  *  -0.72984766  *   1.30018657  *
     2       C         -1.34506705  *  -1.54952503  *   0.85761124  *
     3       C         -0.28118527  *  -0.75993050  *   0.20180447  *
     4       C          0.65903300  *   0.26563978  *   0.92528273  *
     5       C          0.32980922  *   1.61594720  *   0.27683004  *
     6       C          0.01737048  *   1.27089255  *  -1.20677002  *
     7       C         -0.23023122  *  -0.23194984  *  -1.22610668  *
     8       C          0.88217526  *  -1.15553176  *  -0.71347622  *
     9       C          1.88118523  *  -0.38822959  *   0.17131459  *
    10       H         -2.59281430  *  -0.02339126  *   0.64842830  *
    11       H         -1.77434520  *  -2.32207780  *   0.18850423  *
    12       H         -0.99997503  *  -2.03062938  *   1.79684548  *
    13       H          0.68384026  *   0.24837680  *   2.00978864  *
    14       H         -0.54453830  *   2.07896134  *   0.76293282  *
    15       H          1.16105682  *   2.32959199  *   0.36667961  *
    16       H         -0.86093187  *   1.82631536  *  -1.57000114  *
    17       H          0.85765755  *   1.54365804  *  -1.86635991  *
    18       H         -0.89117134  *  -0.59926213  *  -2.00304110  *
    19       H          1.12173851  *  -2.09253477  *  -1.16655345  *
    20       H          2.53845225  *   0.30853796  *  -0.34812661  *
    21       H          2.49013997  *  -1.03889803  *   0.80256369  *



          CARTESIAN COORDINATES 

    NO.       ATOM           X           Y           Z

     1         O         -2.4129     -0.7298      1.3002
     2         C         -1.3451     -1.5495      0.8576
     3         C         -0.2812     -0.7599      0.2018
     4         C          0.6590      0.2656      0.9253
     5         C          0.3298      1.6159      0.2768
     6         C          0.0174      1.2709     -1.2068
     7         C         -0.2302     -0.2319     -1.2261
     8         C          0.8822     -1.1555     -0.7135
     9         C          1.8812     -0.3882      0.1713
    10         H         -2.5928     -0.0234      0.6484
    11         H         -1.7743     -2.3221      0.1885
    12         H         -1.0000     -2.0306      1.7968
    13         H          0.6838      0.2484      2.0098
    14         H         -0.5445      2.0790      0.7629
    15         H          1.1611      2.3296      0.3667
    16         H         -0.8609      1.8263     -1.5700
    17         H          0.8577      1.5437     -1.8664
    18         H         -0.8912     -0.5993     -2.0030
    19         H          1.1217     -2.0925     -1.1666
    20         H          2.5385      0.3085     -0.3481
    21         H          2.4901     -1.0389      0.8026

 General Reference for PM7:
 "Optimization of Parameters for Semiempirical Methods VI: More Modifications to the 
 NDDO Approximations and Re-optimization of Parameters", J. J. P. Stewart, J. Mol. Mod., 1:32, 19 (2013)
 https://link.springer.com/article/10.1007/s00894-012-1667-x

           Empirical Formula: C8 H12 O  =    21 atoms



      MOLECULAR POINT GROUP   :   C1  


      RHF CALCULATION, NO. OF DOUBLY OCCUPIED LEVELS = 25

  SCF CRITERION =    0.1000E-07

 -------------------------------------------------------------------------------
 PM7 1SCF GRADIENTS DISP RELSCF=0.0001
 Title: ASE calculation



     1SCF WAS SPECIFIED, SO BFGS WAS NOT USED                 
     SCF FIELD WAS ACHIEVED                                   


                              PM7 CALCULATION
                                                       MOPAC v23.2 Linux
                                                       Fri Sep 19 21:54:48 2025




          FINAL HEAT OF FORMATION =         -4.00762 KCAL/MOL =     -16.76788 KJ/MOL

          TOTAL ENERGY            =     -33169.52704 KCAL/MOL = ELECTRONIC ENERGY + CORE-CORE REPULSION
          ENERGY OF ATOMS         =      33167.45855 KCAL/MOL
                              SUM =         -2.06849 KCAL/MOL
          DISPERSION ENERGY       =         -1.93913 KCAL/MOL
                              SUM =         -4.00762 KCAL/MOL = FINAL HEAT OF FORMATION



          TOTAL ENERGY            =      -1438.36683 EV
          ELECTRONIC ENERGY       =      -7573.17919 EV 
          CORE-CORE REPULSION     =       6134.81236 EV
          COSMO AREA              =        160.77 SQUARE ANGSTROMS
          COSMO VOLUME            =        165.48 CUBIC ANGSTROMS

          GRADIENT NORM           =          1.06978          =       0.23345 PER ATOM
          IONIZATION POTENTIAL    =         10.201344 EV
          HOMO LUMO ENERGIES (EV) =        -10.201  1.876
          NO. OF FILLED LEVELS    =         25
          MOLECULAR WEIGHT        =        124.1822         POINT GROUP:  C1  

          MOLECULAR DIMENSIONS (Angstroms)

            Atom       Atom       Distance
            H    15    H    11     5.50330
            H    21    H    16     4.97567
            O     1    H    19     3.96928


          SCF CALCULATIONS        =          1

          WALL-CLOCK TIME         =      0.852 SECONDS
          COMPUTATION TIME        =      0.748 SECONDS

          LARGEST ATOMIC GRADIENTS

          Atom     Label                     Cartesian Gradients           Cartesian Coordinates       |Gradient|
                                           X          Y          Z        X          Y          Z

            20       H                  -0.255     -0.216      0.245    2.53845    0.30854   -0.34813      0.414
             3       C                  -0.021     -0.361      0.077   -0.28119   -0.75993    0.20180      0.369
            14       H                  -0.255     -0.141     -0.188   -0.54454    2.07896    0.76293      0.347
             9       C                   0.317      0.060      0.074    1.88119   -0.38823    0.17131      0.331
            18       H                  -0.090      0.119     -0.212   -0.89117   -0.59926   -2.00304      0.259
            19       H                   0.009      0.160      0.204    1.12174   -2.09253   -1.16655      0.259
            21       H                   0.159     -0.052     -0.185    2.49014   -1.03890    0.80256      0.250
            11       H                  -0.201      0.123     -0.023   -1.77435   -2.32208    0.18850      0.237
             7       C                  -0.067      0.204      0.051   -0.23023   -0.23195   -1.22611      0.221
            12       H                   0.045      0.135      0.159   -0.99998   -2.03063    1.79685      0.214



       FINAL  POINT  AND  DERIVATIVES

   PARAMETER     ATOM    TYPE            VALUE        GRADIENT
      1          1  O    CARTESIAN X    -2.412909      0.068600  KCAL/ANGSTROM
      2          1  O    CARTESIAN Y    -0.729848     -0.120134  KCAL/ANGSTROM
      3          1  O    CARTESIAN Z     1.300187      0.050610  KCAL/ANGSTROM
      4          2  C    CARTESIAN X    -1.345067      0.019938  KCAL/ANGSTROM
      5          2  C    CARTESIAN Y    -1.549525      0.039677  KCAL/ANGSTROM
      6          2  C    CARTESIAN Z     0.857611      0.066416  KCAL/ANGSTROM
      7          3  C    CARTESIAN X    -0.281185     -0.021265  KCAL/ANGSTROM
      8          3  C    CARTESIAN Y    -0.759931     -0.360541  KCAL/ANGSTROM
      9          3  C    CARTESIAN Z     0.201804      0.077109  KCAL/ANGSTROM
     10          4  C    CARTESIAN X     0.659033      0.104710  KCAL/ANGSTROM
     11          4  C    CARTESIAN Y     0.265640      0.044401  KCAL/ANGSTROM
     12          4  C    CARTESIAN Z     0.925283      0.136032  KCAL/ANGSTROM
     13          5  C    CARTESIAN X     0.329809      0.051858  KCAL/ANGSTROM
     14          5  C    CARTESIAN Y     1.615947      0.014531  KCAL/ANGSTROM
     15          5  C    CARTESIAN Z     0.276830      0.010480  KCAL/ANGSTROM
     16          6  C    CARTESIAN X     0.017370      0.036509  KCAL/ANGSTROM
     17          6  C    CARTESIAN Y     1.270893      0.161010  KCAL/ANGSTROM
     18          6  C    CARTESIAN Z    -1.206770      0.024751  KCAL/ANGSTROM
     19          7  C    CARTESIAN X    -0.230231     -0.067327  KCAL/ANGSTROM
     20          7  C    CARTESIAN Y    -0.231950      0.203792  KCAL/ANGSTROM
     21          7  C    CARTESIAN Z    -1.226107      0.050947  KCAL/ANGSTROM
     22          8  C    CARTESIAN X     0.882175      0.048477  KCAL/ANGSTROM
     23          8  C    CARTESIAN Y    -1.155532     -0.103832  KCAL/ANGSTROM
     24          8  C    CARTESIAN Z    -0.713476     -0.083839  KCAL/ANGSTROM
     25          9  C    CARTESIAN X     1.881185      0.317324  KCAL/ANGSTROM
     26          9  C    CARTESIAN Y    -0.388230      0.060081  KCAL/ANGSTROM
     27          9  C    CARTESIAN Z     0.171315      0.073650  KCAL/ANGSTROM
     28         10  H    CARTESIAN X    -2.592814     -0.092451  KCAL/ANGSTROM
     29         10  H    CARTESIAN Y    -0.023391     -0.164336  KCAL/ANGSTROM
     30         10  H    CARTESIAN Z     0.648428      0.005349  KCAL/ANGSTROM
     31         11  H    CARTESIAN X    -1.774345     -0.201388  KCAL/ANGSTROM
     32         11  H    CARTESIAN Y    -2.322078      0.123099  KCAL/ANGSTROM
     33         11  H    CARTESIAN Z     0.188504     -0.023252  KCAL/ANGSTROM
     34         12  H    CARTESIAN X    -0.999975      0.044671  KCAL/ANGSTROM
     35         12  H    CARTESIAN Y    -2.030629      0.135328  KCAL/ANGSTROM
     36         12  H    CARTESIAN Z     1.796845      0.159205  KCAL/ANGSTROM
     37         13  H    CARTESIAN X     0.683840     -0.066113  KCAL/ANGSTROM
     38         13  H    CARTESIAN Y     0.248377     -0.101011  KCAL/ANGSTROM
     39         13  H    CARTESIAN Z     2.009789     -0.168933  KCAL/ANGSTROM
     40         14  H    CARTESIAN X    -0.544538     -0.255047  KCAL/ANGSTROM
     41         14  H    CARTESIAN Y     2.078961     -0.141003  KCAL/ANGSTROM
     42         14  H    CARTESIAN Z     0.762933     -0.188350  KCAL/ANGSTROM
     43         15  H    CARTESIAN X     1.161057      0.140023  KCAL/ANGSTROM
     44         15  H    CARTESIAN Y     2.329592      0.062437  KCAL/ANGSTROM
     45         15  H    CARTESIAN Z     0.366680     -0.020151  KCAL/ANGSTROM
     46         16  H    CARTESIAN X    -0.860932      0.039586  KCAL/ANGSTROM
     47         16  H    CARTESIAN Y     1.826315     -0.000046  KCAL/ANGSTROM
     48         16  H    CARTESIAN Z    -1.570001     -0.140483  KCAL/ANGSTROM
     49         17  H    CARTESIAN X     0.857658      0.009136  KCAL/ANGSTROM
     50         17  H    CARTESIAN Y     1.543658      0.134204  KCAL/ANGSTROM
     51         17  H    CARTESIAN Z    -1.866360     -0.080574  KCAL/ANGSTROM
     52         18  H    CARTESIAN X    -0.891171     -0.089645  KCAL/ANGSTROM
     53         18  H    CARTESIAN Y    -0.599262      0.119354  KCAL/ANGSTROM
     54         18  H    CARTESIAN Z    -2.003041     -0.212168  KCAL/ANGSTROM
     55         19  H    CARTESIAN X     1.121739      0.008636  KCAL/ANGSTROM
     56         19  H    CARTESIAN Y    -2.092535      0.160172  KCAL/ANGSTROM
     57         19  H    CARTESIAN Z    -1.166553      0.203821  KCAL/ANGSTROM
     58         20  H    CARTESIAN X     2.538452     -0.255291  KCAL/ANGSTROM
     59         20  H    CARTESIAN Y     0.308538     -0.215505  KCAL/ANGSTROM
     60         20  H    CARTESIAN Z    -0.348127      0.244595  KCAL/ANGSTROM
     61         21  H    CARTESIAN X     2.490140      0.159055  KCAL/ANGSTROM
     62         21  H    CARTESIAN Y    -1.038898     -0.051682  KCAL/ANGSTROM
     63         21  H    CARTESIAN Z     0.802564     -0.185219  KCAL/ANGSTROM




   ATOM   CHEMICAL          X               Y               Z
  NUMBER   SYMBOL      (ANGSTROMS)     (ANGSTROMS)     (ANGSTROMS)

     1       O         -2.41290855  *  -0.72984766  *   1.30018657  *
     2       C         -1.34506705  *  -1.54952503  *   0.85761124  *
     3       C         -0.28118527  *  -0.75993050  *   0.20180447  *
     4       C          0.65903300  *   0.26563978  *   0.92528273  *
     5       C          0.32980922  *   1.61594720  *   0.27683004  *
     6       C          0.01737048  *   1.27089255  *  -1.20677002  *
     7       C         -0.23023122  *  -0.23194984  *  -1.22610668  *
     8       C          0.88217526  *  -1.15553176  *  -0.71347622  *
     9       C          1.88118523  *  -0.38822959  *   0.17131459  *
    10       H         -2.59281430  *  -0.02339126  *   0.64842830  *
    11       H         -1.77434520  *  -2.32207780  *   0.18850423  *
    12       H         -0.99997503  *  -2.03062938  *   1.79684548  *
    13       H          0.68384026  *   0.24837680  *   2.00978864  *
    14       H         -0.54453830  *   2.07896134  *   0.76293282  *
    15       H          1.16105682  *   2.32959199  *   0.36667961  *
    16       H         -0.86093187  *   1.82631536  *  -1.57000114  *
    17       H          0.85765755  *   1.54365804  *  -1.86635991  *
    18       H         -0.89117134  *  -0.59926213  *  -2.00304110  *
    19       H          1.12173851  *  -2.09253477  *  -1.16655345  *
    20       H          2.53845225  *   0.30853796  *  -0.34812661  *
    21       H          2.49013997  *  -1.03889803  *   0.80256369  *

                             CARTESIAN COORDINATES

   1    O       -2.412908551    -0.729847663     1.300186569
   2    C       -1.345067054    -1.549525032     0.857611237
   3    C       -0.281185271    -0.759930503     0.201804474
   4    C        0.659032999     0.265639778     0.925282726
   5    C        0.329809218     1.615947201     0.276830043
   6    C        0.017370475     1.270892553    -1.206770021
   7    C       -0.230231218    -0.231949845    -1.226106680
   8    C        0.882175260    -1.155531756    -0.713476222
   9    C        1.881185234    -0.388229593     0.171314594
  10    H       -2.592814296    -0.023391259     0.648428298
  11    H       -1.774345195    -2.322077800     0.188504230
  12    H       -0.999975034    -2.030629379     1.796845482
  13    H        0.683840260     0.248376803     2.009788638
  14    H       -0.544538301     2.078961338     0.762932820
  15    H        1.161056824     2.329591993     0.366679611
  16    H       -0.860931867     1.826315362    -1.570001144
  17    H        0.857657554     1.543658037    -1.866359914
  18    H       -0.891171342    -0.599262134    -2.003041099
  19    H        1.121738515    -2.092534771    -1.166553453
  20    H        2.538452249     0.308537957    -0.348126609
  21    H        2.490139972    -1.038898026     0.802563688


           Empirical Formula: C8 H12 O  =    21 atoms



      MOLECULAR POINT GROUP   :   C1  


                  EIGENVALUES  
 -33.10932 -29.20216 -26.72314 -25.56472 -24.50304 -22.09478 -20.47279 -18.81755
 -18.04635 -17.79087 -16.29805 -15.54651 -15.41726 -14.84143 -13.99130 -13.69041
 -13.49820 -12.72537 -12.41861 -12.08242 -11.68584 -11.48241 -10.61708 -10.59621
 -10.20134   1.87641   2.99273   3.17641   3.32832   3.61322   3.67479   3.84826
   4.41906   4.54209   4.86484   5.22893   5.37036   5.55948   5.72676   5.73248
   5.86880   6.00892   6.08843   6.19962   6.31363   6.37504   6.47946   6.49998


              NET ATOMIC CHARGES AND DIPOLE CONTRIBUTIONS

  ATOM NO.   TYPE          CHARGE      No. of ELECS.   s-Pop       p-Pop       
    1          O          -0.539634        6.5396     1.85189     4.68774
    2          C           0.009630        3.9904     1.07308     2.91729
    3          C          -0.132821        4.1328     1.06798     3.06484
    4          C          -0.081606        4.0816     1.08181     2.99980
    5          C          -0.277207        4.2772     1.06702     3.21018
    6          C          -0.257938        4.2579     1.06182     3.19612
    7          C          -0.161404        4.1614     1.06475     3.09665
    8          C          -0.174420        4.1744     1.06869     3.10573
    9          C          -0.281663        4.2817     1.07205     3.20961
   10          H           0.314553        0.6854     0.68545
   11          H           0.124794        0.8752     0.87521
   12          H           0.149353        0.8506     0.85065
   13          H           0.144149        0.8559     0.85585
   14          H           0.142439        0.8576     0.85756
   15          H           0.139905        0.8601     0.86009
   16          H           0.137810        0.8622     0.86219
   17          H           0.144114        0.8559     0.85589
   18          H           0.153241        0.8468     0.84676
   19          H           0.157193        0.8428     0.84281
   20          H           0.146235        0.8538     0.85376
   21          H           0.143277        0.8567     0.85672
 DIPOLE           X         Y         Z       TOTAL
 POINT-CHG.     1.441     0.182    -1.216     1.894
 HYBRID        -0.190     0.243    -0.273     0.412
 SUM            1.251     0.424    -1.489     1.991


          ATOMIC ORBITAL ELECTRON POPULATIONS

     Atom    s        px        py        pz   
    1  O   1.85189   1.58064   1.54629   1.56081
    2  C   1.07308   0.87685   0.94950   1.09094
    3  C   1.06798   1.02995   1.08165   0.95324
    4  C   1.08181   0.97355   0.96128   1.06497
    5  C   1.06702   1.15049   1.04919   1.01051
    6  C   1.06182   1.15217   1.00681   1.03713
    7  C   1.06475   1.08015   0.98845   1.02806
    8  C   1.06869   0.95606   1.08424   1.06543
    9  C   1.07205   1.03479   1.10152   1.07330
   10  H   0.68545
   11  H   0.87521
   12  H   0.85065
   13  H   0.85585
   14  H   0.85756
   15  H   0.86009
   16  H   0.86219
   17  H   0.85589
   18  H   0.84676
   19  H   0.84281
   20  H   0.85376
   21  H   0.85672

 **********************
 *                    *
 * JOB ENDED NORMALLY *
 *                    *
 **********************



 TOTAL JOB TIME:             1.41 SECONDS

 == MOPAC DONE ==
