 *******************************************************************************
 **                                                                           **
 **                              MOPAC v23.2                                  **
 **                                                                           **
 *******************************************************************************
 **          Digital Object Identifier (DOI): 10.5281/zenodo.6511958          **
 **    Visit the DOI location for information on how to cite this program.    **
 *******************************************************************************

                              PM7 CALCULATION RESULTS

 *******************************************************************************
 *  CALCULATION DONE: (MAX THREADS = 40)             Fri Sep 19 21:43:04 2025  *
 *  PM7        - The PM7 Hamiltonian to be used
 *
 *
 *
 *                 CHARGE ON SYSTEM = +1
 *
 *
 *
 *  1SCF       - DO 1 SCF AND THEN STOP 
 *  T=         - A TIME OF 172800.0 SECONDS REQUESTED
 *  DUMP=N     - RESTART FILE WRITTEN EVERY 7200.0 SECONDS REQUESTED
 *  RELSCF     - DEFAULT SCF CRITERION MULTIPLIED BY 0.0001
 *              (DEFAULT SCF CRITERION = 0.00010)
 *  GRADIENTS  - ALL GRADIENTS TO BE PRINTED
 *  DISP       - PRINT DISPERSION AND HYDROGEN BOND ENERGIES
 *******************************************************************************
PM7 1SCF GRADIENTS DISP RELSCF=0.0001 CHARGE=1
 Title: ASE calculation

   ATOM   CHEMICAL          X               Y               Z
  NUMBER   SYMBOL      (ANGSTROMS)     (ANGSTROMS)     (ANGSTROMS)

     1       O         -0.76247588  *   2.16583222  *  -0.13167172  *
     2       C         -1.02654556  *   1.04745137  *  -0.37376822  *
     3       C         -2.19073828  *   0.16316566  *  -0.76777995  *
     4       N         -1.27452550  *  -1.03271958  *  -0.83063420  *
     5       C         -0.09433251  *  -0.25962219  *  -0.36678552  *
     6       C          0.61621818  *  -0.57351834  *   0.96610751  *
     7       C          2.05447810  *  -0.63917334  *   0.59504628  *
     8       N          2.20094583  *  -0.45609431  *  -0.75272527  *
     9       C          1.00802396  *  -0.25811219  *  -1.37147367  *
    10       H         -3.02489176  *   0.11456022  *  -0.04710409  *
    11       H         -2.62402106  *   0.37525192  *  -1.76953056  *
    12       H         -1.54421297  *  -1.82185057  *  -0.25812870  *
    13       H          0.25634225  *  -1.52015316  *   1.43369191  *
    14       H          0.41927671  *   0.20202946  *   1.74645524  *
    15       H          2.88342666  *  -0.80319711  *   1.27688564  *
    16       H          3.10382791  *  -0.47002925  *  -1.23357110  *
    17       H          0.87786792  *  -0.14532162  *  -2.44541401  *



          CARTESIAN COORDINATES 

    NO.       ATOM           X           Y           Z

     1         O         -0.7625      2.1658     -0.1317
     2         C         -1.0265      1.0475     -0.3738
     3         C         -2.1907      0.1632     -0.7678
     4         N         -1.2745     -1.0327     -0.8306
     5         C         -0.0943     -0.2596     -0.3668
     6         C          0.6162     -0.5735      0.9661
     7         C          2.0545     -0.6392      0.5950
     8         N          2.2009     -0.4561     -0.7527
     9         C          1.0080     -0.2581     -1.3715
    10         H         -3.0249      0.1146     -0.0471
    11         H         -2.6240      0.3753     -1.7695
    12         H         -1.5442     -1.8219     -0.2581
    13         H          0.2563     -1.5202      1.4337
    14         H          0.4193      0.2020      1.7465
    15         H          2.8834     -0.8032      1.2769
    16         H          3.1038     -0.4700     -1.2336
    17         H          0.8779     -0.1453     -2.4454

 General Reference for PM7:
 "Optimization of Parameters for Semiempirical Methods VI: More Modifications to the 
 NDDO Approximations and Re-optimization of Parameters", J. J. P. Stewart, J. Mol. Mod., 1:32, 19 (2013)
 https://link.springer.com/article/10.1007/s00894-012-1667-x

           Empirical Formula: C6 H8 N2 O  =    17 atoms



      MOLECULAR POINT GROUP   :   C1  


          UHF CALCULATION, NO. OF ALPHA ELECTRONS =   24
                           NO. OF BETA  ELECTRONS =   23
  SCF CRITERION =    0.1000E-07

 -------------------------------------------------------------------------------
 PM7 1SCF GRADIENTS DISP RELSCF=0.0001 CHARGE=1
 Title: ASE calculation



     1SCF WAS SPECIFIED, SO BFGS WAS NOT USED                 
     SCF FIELD WAS ACHIEVED                                   


                              PM7 CALCULATION
                                                       MOPAC v23.2 Linux
                                                       Fri Sep 19 21:43:05 2025




          FINAL HEAT OF FORMATION =        194.00143 KCAL/MOL =     811.70197 KJ/MOL

          TOTAL ENERGY            =     -34669.85705 KCAL/MOL = ELECTRONIC ENERGY + CORE-CORE REPULSION
          ENERGY OF ATOMS         =      34865.63902 KCAL/MOL
                              SUM =        195.78197 KCAL/MOL
          DISPERSION ENERGY       =         -1.78054 KCAL/MOL
                              SUM =        194.00143 KCAL/MOL = FINAL HEAT OF FORMATION



          TOTAL ENERGY            =      -1503.42730 EV
          ELECTRONIC ENERGY       =      -7091.10363 EV 
          CORE-CORE REPULSION     =       5587.67634 EV
          COSMO AREA              =        154.13 SQUARE ANGSTROMS
          COSMO VOLUME            =        150.32 CUBIC ANGSTROMS

          GRADIENT NORM           =          0.90701          =       0.21998 PER ATOM
          IONIZATION POTENTIAL    =         13.869243 EV
          ALPHA SOMO LUMO (EV)    =        -13.869 -5.797
          BETA  SOMO LUMO (EV)    =        -14.054 -6.232
          NO. OF ALPHA ELECTRONS  =         24
          NO. OF BETA  ELECTRONS  =         23
          MOLECULAR WEIGHT        =        124.1420         POINT GROUP:  C1  

          MOLECULAR DIMENSIONS (Angstroms)

            Atom       Atom       Distance
            H    15    H    11     6.40323
            H    12    O     1     4.06555
            H    10    H    16     3.97581


          SCF CALCULATIONS        =          1

          WALL-CLOCK TIME         =      1.102 SECONDS
          COMPUTATION TIME        =      0.511 SECONDS

          LARGEST ATOMIC GRADIENTS

          Atom     Label                     Cartesian Gradients           Cartesian Coordinates       |Gradient|
                                           X          Y          Z        X          Y          Z

             7       C                   0.247     -0.229     -0.234    2.05448   -0.63917    0.59505      0.410
             9       C                  -0.218      0.299     -0.034    1.00802   -0.25811   -1.37147      0.371
            13       H                  -0.158      0.081      0.234    0.25634   -1.52015    1.43369      0.294
             8       N                  -0.073      0.219     -0.122    2.20095   -0.45609   -0.75273      0.261
            14       H                  -0.014     -0.022      0.245    0.41928    0.20203    1.74646      0.247
            10       H                  -0.034      0.093     -0.208   -3.02489    0.11456   -0.04710      0.230
             1       O                   0.015     -0.192      0.019   -0.76248    2.16583   -0.13167      0.193
             2       C                   0.147      0.083     -0.092   -1.02655    1.04745   -0.37377      0.192
            17       H                  -0.040     -0.114      0.137    0.87787   -0.14532   -2.44541      0.183
             6       C                  -0.034     -0.101     -0.136    0.61622   -0.57352    0.96611      0.173



       FINAL  POINT  AND  DERIVATIVES

   PARAMETER     ATOM    TYPE            VALUE        GRADIENT
      1          1  O    CARTESIAN X    -0.762476      0.014563  KCAL/ANGSTROM
      2          1  O    CARTESIAN Y     2.165832     -0.191583  KCAL/ANGSTROM
      3          1  O    CARTESIAN Z    -0.131672      0.018997  KCAL/ANGSTROM
      4          2  C    CARTESIAN X    -1.026546      0.147374  KCAL/ANGSTROM
      5          2  C    CARTESIAN Y     1.047451      0.083054  KCAL/ANGSTROM
      6          2  C    CARTESIAN Z    -0.373768     -0.091818  KCAL/ANGSTROM
      7          3  C    CARTESIAN X    -2.190738      0.069470  KCAL/ANGSTROM
      8          3  C    CARTESIAN Y     0.163166     -0.127536  KCAL/ANGSTROM
      9          3  C    CARTESIAN Z    -0.767780      0.033115  KCAL/ANGSTROM
     10          4  N    CARTESIAN X    -1.274526     -0.002614  KCAL/ANGSTROM
     11          4  N    CARTESIAN Y    -1.032720     -0.110148  KCAL/ANGSTROM
     12          4  N    CARTESIAN Z    -0.830634     -0.078196  KCAL/ANGSTROM
     13          5  C    CARTESIAN X    -0.094333      0.000250  KCAL/ANGSTROM
     14          5  C    CARTESIAN Y    -0.259622      0.093046  KCAL/ANGSTROM
     15          5  C    CARTESIAN Z    -0.366786     -0.031449  KCAL/ANGSTROM
     16          6  C    CARTESIAN X     0.616218     -0.033696  KCAL/ANGSTROM
     17          6  C    CARTESIAN Y    -0.573518     -0.100534  KCAL/ANGSTROM
     18          6  C    CARTESIAN Z     0.966108     -0.136079  KCAL/ANGSTROM
     19          7  C    CARTESIAN X     2.054478      0.247069  KCAL/ANGSTROM
     20          7  C    CARTESIAN Y    -0.639173     -0.229333  KCAL/ANGSTROM
     21          7  C    CARTESIAN Z     0.595046     -0.234094  KCAL/ANGSTROM
     22          8  N    CARTESIAN X     2.200946     -0.073229  KCAL/ANGSTROM
     23          8  N    CARTESIAN Y    -0.456094      0.219230  KCAL/ANGSTROM
     24          8  N    CARTESIAN Z    -0.752725     -0.121820  KCAL/ANGSTROM
     25          9  C    CARTESIAN X     1.008024     -0.217812  KCAL/ANGSTROM
     26          9  C    CARTESIAN Y    -0.258112      0.298679  KCAL/ANGSTROM
     27          9  C    CARTESIAN Z    -1.371474     -0.034274  KCAL/ANGSTROM
     28         10  H    CARTESIAN X    -3.024892     -0.034358  KCAL/ANGSTROM
     29         10  H    CARTESIAN Y     0.114560      0.093033  KCAL/ANGSTROM
     30         10  H    CARTESIAN Z    -0.047104     -0.207579  KCAL/ANGSTROM
     31         11  H    CARTESIAN X    -2.624021      0.120950  KCAL/ANGSTROM
     32         11  H    CARTESIAN Y     0.375252      0.034901  KCAL/ANGSTROM
     33         11  H    CARTESIAN Z    -1.769531      0.115247  KCAL/ANGSTROM
     34         12  H    CARTESIAN X    -1.544213      0.034186  KCAL/ANGSTROM
     35         12  H    CARTESIAN Y    -1.821851     -0.045074  KCAL/ANGSTROM
     36         12  H    CARTESIAN Z    -0.258129      0.043468  KCAL/ANGSTROM
     37         13  H    CARTESIAN X     0.256342     -0.158193  KCAL/ANGSTROM
     38         13  H    CARTESIAN Y    -1.520153      0.081289  KCAL/ANGSTROM
     39         13  H    CARTESIAN Z     1.433692      0.234064  KCAL/ANGSTROM
     40         14  H    CARTESIAN X     0.419277     -0.013639  KCAL/ANGSTROM
     41         14  H    CARTESIAN Y     0.202029     -0.022062  KCAL/ANGSTROM
     42         14  H    CARTESIAN Z     1.746455      0.245315  KCAL/ANGSTROM
     43         15  H    CARTESIAN X     2.883427     -0.006000  KCAL/ANGSTROM
     44         15  H    CARTESIAN Y    -0.803197      0.108242  KCAL/ANGSTROM
     45         15  H    CARTESIAN Z     1.276886      0.069690  KCAL/ANGSTROM
     46         16  H    CARTESIAN X     3.103828     -0.054586  KCAL/ANGSTROM
     47         16  H    CARTESIAN Y    -0.470029     -0.071075  KCAL/ANGSTROM
     48         16  H    CARTESIAN Z    -1.233571      0.038070  KCAL/ANGSTROM
     49         17  H    CARTESIAN X     0.877868     -0.039735  KCAL/ANGSTROM
     50         17  H    CARTESIAN Y    -0.145322     -0.114132  KCAL/ANGSTROM
     51         17  H    CARTESIAN Z    -2.445414      0.137338  KCAL/ANGSTROM




   ATOM   CHEMICAL          X               Y               Z
  NUMBER   SYMBOL      (ANGSTROMS)     (ANGSTROMS)     (ANGSTROMS)

     1       O         -0.76247588  *   2.16583222  *  -0.13167172  *
     2       C         -1.02654556  *   1.04745137  *  -0.37376822  *
     3       C         -2.19073828  *   0.16316566  *  -0.76777995  *
     4       N         -1.27452550  *  -1.03271958  *  -0.83063420  *
     5       C         -0.09433251  *  -0.25962219  *  -0.36678552  *
     6       C          0.61621818  *  -0.57351834  *   0.96610751  *
     7       C          2.05447810  *  -0.63917334  *   0.59504628  *
     8       N          2.20094583  *  -0.45609431  *  -0.75272527  *
     9       C          1.00802396  *  -0.25811219  *  -1.37147367  *
    10       H         -3.02489176  *   0.11456022  *  -0.04710409  *
    11       H         -2.62402106  *   0.37525192  *  -1.76953056  *
    12       H         -1.54421297  *  -1.82185057  *  -0.25812870  *
    13       H          0.25634225  *  -1.52015316  *   1.43369191  *
    14       H          0.41927671  *   0.20202946  *   1.74645524  *
    15       H          2.88342666  *  -0.80319711  *   1.27688564  *
    16       H          3.10382791  *  -0.47002925  *  -1.23357110  *
    17       H          0.87786792  *  -0.14532162  *  -2.44541401  *

                             CARTESIAN COORDINATES

   1    O       -0.762475881     2.165832224    -0.131671718
   2    C       -1.026545563     1.047451365    -0.373768218
   3    C       -2.190738280     0.163165658    -0.767779949
   4    N       -1.274525504    -1.032719580    -0.830634204
   5    C       -0.094332515    -0.259622192    -0.366785516
   6    C        0.616218177    -0.573518339     0.966107507
   7    C        2.054478098    -0.639173336     0.595046284
   8    N        2.200945829    -0.456094309    -0.752725271
   9    C        1.008023964    -0.258112190    -1.371473667
  10    H       -3.024891762     0.114560217    -0.047104093
  11    H       -2.624021062     0.375251925    -1.769530557
  12    H       -1.544212972    -1.821850572    -0.258128697
  13    H        0.256342254    -1.520153165     1.433691906
  14    H        0.419276705     0.202029457     1.746455240
  15    H        2.883426663    -0.803197113     1.276885644
  16    H        3.103827914    -0.470029250    -1.233571099
  17    H        0.877867922    -0.145321623    -2.445414005


           Empirical Formula: C6 H8 N2 O  =    17 atoms



      MOLECULAR POINT GROUP   :   C1  


          ALPHA EIGENVALUES  
 -43.65044 -40.48372 -36.35824 -32.80019 -30.66540 -29.57261 -26.42276 -26.15374
 -24.52029 -22.67555 -21.64720 -21.37728 -20.54459 -20.25822 -19.70102 -19.30703
 -18.50495 -18.33987 -18.05291 -18.02524 -17.32907 -14.99931 -14.21321 -13.86924
  -5.79724  -3.78668  -3.57393  -2.64529  -2.20887  -1.96254  -1.41738  -1.32071
  -1.08608  -0.92561  -0.47272  -0.26781   0.17022   0.26536   0.61848   0.73031
   1.09887   1.17116   1.82542   2.34311


           BETA EIGENVALUES 
 -44.06999 -40.43849 -36.30712 -32.80105 -30.48797 -29.52741 -26.36951 -26.13752
 -24.40163 -22.64426 -21.46234 -21.34714 -20.48663 -20.20411 -19.59552 -19.21906
 -18.42340 -18.34183 -18.03114 -17.94429 -17.27863 -14.58712 -14.05447  -6.23155
  -4.63911  -3.74466  -3.60549  -2.50439  -2.08644  -1.89440  -1.35395  -1.22062
  -1.03849  -0.85417  -0.45115  -0.21830   0.28366   0.33044   0.63120   0.75712
   1.13343   1.17596   1.82739   2.35497


              NET ATOMIC CHARGES AND DIPOLE CONTRIBUTIONS

  ATOM NO.   TYPE          CHARGE      No. of ELECS.   s-Pop       p-Pop       
    1          O          -0.272753        6.2728     1.87034     4.40241
    2          C           0.433801        3.5662     1.15662     2.40958
    3          C          -0.192805        4.1928     1.09976     3.09304
    4          N          -0.485322        5.4853     1.68405     3.80127
    5          C          -0.036016        4.0360     1.10636     2.92965
    6          C          -0.342943        4.3429     1.07132     3.27162
    7          C           0.047007        3.9530     1.13689     2.81610
    8          N          -0.134128        5.1341     1.50153     3.63260
    9          C           0.069315        3.9307     1.14713     2.78356
   10          H           0.186699        0.8133     0.81330
   11          H           0.210179        0.7898     0.78982
   12          H           0.289270        0.7107     0.71073
   13          H           0.215863        0.7841     0.78414
   14          H           0.221081        0.7789     0.77892
   15          H           0.219573        0.7804     0.78043
   16          H           0.345226        0.6548     0.65477
   17          H           0.225953        0.7740     0.77405
 DIPOLE           X         Y         Z       TOTAL
 POINT-CHG.     4.373    -2.675     0.080     5.126
 HYBRID         0.830    -0.233     0.599     1.050
 SUM            5.202    -2.908     0.679     5.999


          ATOMIC ORBITAL ELECTRON POPULATIONS

     Atom    s        px        py        pz   
    1  O   1.87034   1.76332   1.27509   1.36400
    2  C   1.15662   0.88705   0.82417   0.69836
    3  C   1.09976   1.02857   0.86997   1.19451
    4  N   1.68405   1.08025   1.13714   1.58389
    5  C   1.10636   0.95259   1.05700   0.92007
    6  C   1.07132   0.97523   1.21510   1.08130
    7  C   1.13689   1.05763   0.91355   0.84491
    8  N   1.50153   1.17448   1.31322   1.14490
    9  C   1.14713   0.84433   0.86773   1.07149
   10  H   0.81330
   11  H   0.78982
   12  H   0.71073
   13  H   0.78414
   14  H   0.77892
   15  H   0.78043
   16  H   0.65477
   17  H   0.77405


                    (SZ)    =    0.500000
                    (S**2)  =    0.819140


          ATOMIC ORBITAL SPIN POPULATIONS

    Atom   Total    s     px     py     pz   
         Atomic
    1  O  0.0173  0.001  0.011  0.005  0.001
    2  C  0.0305  0.006  0.014  0.011  0.000
    3  C  0.0055  0.000  0.001  0.004  0.000
    4  N  0.0285  0.000  0.011  0.007  0.009
    5  C -0.0506 -0.005 -0.013 -0.023 -0.009
    6  C -0.0188 -0.003 -0.018  0.006 -0.003
    7  C  0.6702  0.018  0.024  0.589  0.039
    8  N -0.2994 -0.016 -0.021 -0.233 -0.030
    9  C  0.6020  0.017  0.029  0.529  0.027
   10  H -0.0001 -0.000
   11  H  0.0000  0.000
   12  H -0.0002 -0.000
   13  H  0.0201  0.020
   14  H  0.0184  0.018
   15  H -0.0182 -0.018
   16  H  0.0112  0.011
   17  H -0.0163 -0.016

 **********************
 *                    *
 * JOB ENDED NORMALLY *
 *                    *
 **********************



 TOTAL JOB TIME:             1.60 SECONDS

 == MOPAC DONE ==
