 *******************************************************************************
 **                                                                           **
 **                              MOPAC v23.2                                  **
 **                                                                           **
 *******************************************************************************
 **          Digital Object Identifier (DOI): 10.5281/zenodo.6511958          **
 **    Visit the DOI location for information on how to cite this program.    **
 *******************************************************************************

                              PM7 CALCULATION RESULTS

 *******************************************************************************
 *  CALCULATION DONE: (MAX THREADS = 40)             Fri Sep 19 21:27:46 2025  *
 *  PM7        - The PM7 Hamiltonian to be used
 *  1SCF       - DO 1 SCF AND THEN STOP 
 *  T=         - A TIME OF 172800.0 SECONDS REQUESTED
 *  DUMP=N     - RESTART FILE WRITTEN EVERY 7200.0 SECONDS REQUESTED
 *  RELSCF     - DEFAULT SCF CRITERION MULTIPLIED BY 0.0001
 *              (DEFAULT SCF CRITERION = 0.00010)
 *  GRADIENTS  - ALL GRADIENTS TO BE PRINTED
 *  DISP       - PRINT DISPERSION AND HYDROGEN BOND ENERGIES
 *******************************************************************************
PM7 1SCF GRADIENTS DISP RELSCF=0.0001
 Title: ASE calculation

   ATOM   CHEMICAL          X               Y               Z
  NUMBER   SYMBOL      (ANGSTROMS)     (ANGSTROMS)     (ANGSTROMS)

     1       C         -1.65426895  *  -1.06907213  *   1.24435282  *
     2       C         -0.20555395  *  -0.69174606  *   1.13748725  *
     3       C          0.41279661  *   0.70061131  *   1.04120378  *
     4       N         -0.16422560  *   1.75723797  *   0.14084650  *
     5       C         -1.43758477  *   1.36889357  *  -0.50791027  *
     6       C         -0.16066076  *   0.75917895  *  -1.02595470  *
     7       C          0.51435155  *  -0.31320077  *  -0.14358009  *
     8       C          1.66126912  *  -1.08455226  *  -0.69520580  *
     9       O          1.08187236  *  -1.99874457  *  -1.61950082  *
    10       H         -2.12533641  *  -1.18309740  *   0.25630258  *
    11       H         -1.77556519  *  -2.04211128  *   1.74305599  *
    12       H         -2.22778329  *  -0.33750681  *   1.82849506  *
    13       H          0.39593965  *  -1.35788031  *   1.79231235  *
    14       H          1.13391493  *   1.07682166  *   1.74583211  *
    15       H         -2.21775554  *   0.81829160  *   0.00320970  *
    16       H         -1.88273106  *   2.18789658  *  -1.09077803  *
    17       H          0.23471393  *   0.95955608  *  -2.00801427  *
    18       H          2.37873148  *  -0.43505974  *  -1.23574596  *
    19       H          2.19823527  *  -1.65843730  *   0.08494616  *
    20       H          1.78474291  *  -2.51840419  *  -2.05657530  *



          CARTESIAN COORDINATES 

    NO.       ATOM           X           Y           Z

     1         C         -1.6543     -1.0691      1.2444
     2         C         -0.2056     -0.6917      1.1375
     3         C          0.4128      0.7006      1.0412
     4         N         -0.1642      1.7572      0.1408
     5         C         -1.4376      1.3689     -0.5079
     6         C         -0.1607      0.7592     -1.0260
     7         C          0.5144     -0.3132     -0.1436
     8         C          1.6613     -1.0846     -0.6952
     9         O          1.0819     -1.9987     -1.6195
    10         H         -2.1253     -1.1831      0.2563
    11         H         -1.7756     -2.0421      1.7431
    12         H         -2.2278     -0.3375      1.8285
    13         H          0.3959     -1.3579      1.7923
    14         H          1.1339      1.0768      1.7458
    15         H         -2.2178      0.8183      0.0032
    16         H         -1.8827      2.1879     -1.0908
    17         H          0.2347      0.9596     -2.0080
    18         H          2.3787     -0.4351     -1.2357
    19         H          2.1982     -1.6584      0.0849
    20         H          1.7847     -2.5184     -2.0566

 General Reference for PM7:
 "Optimization of Parameters for Semiempirical Methods VI: More Modifications to the 
 NDDO Approximations and Re-optimization of Parameters", J. J. P. Stewart, J. Mol. Mod., 1:32, 19 (2013)
 https://link.springer.com/article/10.1007/s00894-012-1667-x

           Empirical Formula: C7 H11 N O  =    20 atoms



      MOLECULAR POINT GROUP   :   C1  


      RHF CALCULATION, NO. OF DOUBLY OCCUPIED LEVELS = 25

  SCF CRITERION =    0.1000E-07

 -------------------------------------------------------------------------------
 PM7 1SCF GRADIENTS DISP RELSCF=0.0001
 Title: ASE calculation



     1SCF WAS SPECIFIED, SO BFGS WAS NOT USED                 
     SCF FIELD WAS ACHIEVED                                   


                              PM7 CALCULATION
                                                       MOPAC v23.2 Linux
                                                       Fri Sep 19 21:27:47 2025




          FINAL HEAT OF FORMATION =         62.07479 KCAL/MOL =     259.72091 KJ/MOL

          TOTAL ENERGY            =     -34259.83437 KCAL/MOL = ELECTRONIC ENERGY + CORE-CORE REPULSION
          ENERGY OF ATOMS         =      34323.93363 KCAL/MOL
                              SUM =         64.09927 KCAL/MOL
          DISPERSION ENERGY       =         -2.02448 KCAL/MOL
                              SUM =         62.07479 KCAL/MOL = FINAL HEAT OF FORMATION



          TOTAL ENERGY            =      -1485.64703 EV
          ELECTRONIC ENERGY       =      -7509.07638 EV 
          CORE-CORE REPULSION     =       6023.42935 EV
          COSMO AREA              =        162.59 SQUARE ANGSTROMS
          COSMO VOLUME            =        163.93 CUBIC ANGSTROMS

          GRADIENT NORM           =          1.00279          =       0.22423 PER ATOM
          IONIZATION POTENTIAL    =          9.693243 EV
          HOMO LUMO ENERGIES (EV) =         -9.693  1.154
          NO. OF FILLED LEVELS    =         25
          MOLECULAR WEIGHT        =        125.1700         POINT GROUP:  C1  

          MOLECULAR DIMENSIONS (Angstroms)

            Atom       Atom       Distance
            H    20    H    16     6.04420
            H    11    H    17     5.18202
            H    14    H    10     3.96467


          SCF CALCULATIONS        =          1

          WALL-CLOCK TIME         =      0.812 SECONDS
          COMPUTATION TIME        =      0.784 SECONDS

          LARGEST ATOMIC GRADIENTS

          Atom     Label                     Cartesian Gradients           Cartesian Coordinates       |Gradient|
                                           X          Y          Z        X          Y          Z

            17       H                  -0.121     -0.015     -0.409    0.23471    0.95956   -2.00801      0.427
            15       H                  -0.192      0.094      0.254   -2.21776    0.81829    0.00321      0.332
            16       H                  -0.173      0.239      0.003   -1.88273    2.18790   -1.09078      0.295
            11       H                  -0.078     -0.150     -0.204   -1.77557   -2.04211    1.74306      0.265
             2       C                   0.021      0.181      0.151   -0.20555   -0.69175    1.13749      0.237
            12       H                   0.097     -0.187     -0.089   -2.22778   -0.33751    1.82850      0.229
             7       C                   0.028     -0.061      0.202    0.51435   -0.31320   -0.14358      0.213
            18       H                   0.089     -0.126     -0.144    2.37873   -0.43506   -1.23575      0.211
             8       C                   0.159     -0.024      0.132    1.66127   -1.08455   -0.69521      0.208
            14       H                   0.197      0.030     -0.042    1.13391    1.07682    1.74583      0.204



       FINAL  POINT  AND  DERIVATIVES

   PARAMETER     ATOM    TYPE            VALUE        GRADIENT
      1          1  C    CARTESIAN X    -1.654269      0.017414  KCAL/ANGSTROM
      2          1  C    CARTESIAN Y    -1.069072     -0.121407  KCAL/ANGSTROM
      3          1  C    CARTESIAN Z     1.244353     -0.130027  KCAL/ANGSTROM
      4          2  C    CARTESIAN X    -0.205554      0.021114  KCAL/ANGSTROM
      5          2  C    CARTESIAN Y    -0.691746      0.181396  KCAL/ANGSTROM
      6          2  C    CARTESIAN Z     1.137487      0.150891  KCAL/ANGSTROM
      7          3  C    CARTESIAN X     0.412797     -0.001452  KCAL/ANGSTROM
      8          3  C    CARTESIAN Y     0.700611      0.070830  KCAL/ANGSTROM
      9          3  C    CARTESIAN Z     1.041204      0.124969  KCAL/ANGSTROM
     10          4  N    CARTESIAN X    -0.164226     -0.046862  KCAL/ANGSTROM
     11          4  N    CARTESIAN Y     1.757238      0.021243  KCAL/ANGSTROM
     12          4  N    CARTESIAN Z     0.140846      0.024548  KCAL/ANGSTROM
     13          5  C    CARTESIAN X    -1.437585      0.104208  KCAL/ANGSTROM
     14          5  C    CARTESIAN Y     1.368894     -0.103952  KCAL/ANGSTROM
     15          5  C    CARTESIAN Z    -0.507910     -0.128949  KCAL/ANGSTROM
     16          6  C    CARTESIAN X    -0.160661      0.149077  KCAL/ANGSTROM
     17          6  C    CARTESIAN Y     0.759179     -0.073083  KCAL/ANGSTROM
     18          6  C    CARTESIAN Z    -1.025955     -0.024032  KCAL/ANGSTROM
     19          7  C    CARTESIAN X     0.514352      0.027547  KCAL/ANGSTROM
     20          7  C    CARTESIAN Y    -0.313201     -0.061415  KCAL/ANGSTROM
     21          7  C    CARTESIAN Z    -0.143580      0.202242  KCAL/ANGSTROM
     22          8  C    CARTESIAN X     1.661269      0.158936  KCAL/ANGSTROM
     23          8  C    CARTESIAN Y    -1.084552     -0.023883  KCAL/ANGSTROM
     24          8  C    CARTESIAN Z    -0.695206      0.131815  KCAL/ANGSTROM
     25          9  O    CARTESIAN X     1.081872     -0.067979  KCAL/ANGSTROM
     26          9  O    CARTESIAN Y    -1.998745      0.103760  KCAL/ANGSTROM
     27          9  O    CARTESIAN Z    -1.619501      0.084897  KCAL/ANGSTROM
     28         10  H    CARTESIAN X    -2.125336     -0.158492  KCAL/ANGSTROM
     29         10  H    CARTESIAN Y    -1.183097     -0.004102  KCAL/ANGSTROM
     30         10  H    CARTESIAN Z     0.256303     -0.094084  KCAL/ANGSTROM
     31         11  H    CARTESIAN X    -1.775565     -0.077848  KCAL/ANGSTROM
     32         11  H    CARTESIAN Y    -2.042111     -0.149882  KCAL/ANGSTROM
     33         11  H    CARTESIAN Z     1.743056     -0.204027  KCAL/ANGSTROM
     34         12  H    CARTESIAN X    -2.227783      0.096587  KCAL/ANGSTROM
     35         12  H    CARTESIAN Y    -0.337507     -0.187051  KCAL/ANGSTROM
     36         12  H    CARTESIAN Z     1.828495     -0.089397  KCAL/ANGSTROM
     37         13  H    CARTESIAN X     0.395940      0.117683  KCAL/ANGSTROM
     38         13  H    CARTESIAN Y    -1.357880      0.125838  KCAL/ANGSTROM
     39         13  H    CARTESIAN Z     1.792312      0.100971  KCAL/ANGSTROM
     40         14  H    CARTESIAN X     1.133915      0.197443  KCAL/ANGSTROM
     41         14  H    CARTESIAN Y     1.076822      0.029767  KCAL/ANGSTROM
     42         14  H    CARTESIAN Z     1.745832     -0.042452  KCAL/ANGSTROM
     43         15  H    CARTESIAN X    -2.217756     -0.191580  KCAL/ANGSTROM
     44         15  H    CARTESIAN Y     0.818292      0.094348  KCAL/ANGSTROM
     45         15  H    CARTESIAN Z     0.003210      0.253628  KCAL/ANGSTROM
     46         16  H    CARTESIAN X    -1.882731     -0.172635  KCAL/ANGSTROM
     47         16  H    CARTESIAN Y     2.187897      0.238585  KCAL/ANGSTROM
     48         16  H    CARTESIAN Z    -1.090778      0.003376  KCAL/ANGSTROM
     49         17  H    CARTESIAN X     0.234714     -0.120630  KCAL/ANGSTROM
     50         17  H    CARTESIAN Y     0.959556     -0.014550  KCAL/ANGSTROM
     51         17  H    CARTESIAN Z    -2.008014     -0.408871  KCAL/ANGSTROM
     52         18  H    CARTESIAN X     2.378731      0.088558  KCAL/ANGSTROM
     53         18  H    CARTESIAN Y    -0.435060     -0.126311  KCAL/ANGSTROM
     54         18  H    CARTESIAN Z    -1.235746     -0.143882  KCAL/ANGSTROM
     55         19  H    CARTESIAN X     2.198235     -0.041192  KCAL/ANGSTROM
     56         19  H    CARTESIAN Y    -1.658437     -0.098997  KCAL/ANGSTROM
     57         19  H    CARTESIAN Z     0.084946      0.148293  KCAL/ANGSTROM
     58         20  H    CARTESIAN X     1.784743     -0.099899  KCAL/ANGSTROM
     59         20  H    CARTESIAN Y    -2.518404      0.098865  KCAL/ANGSTROM
     60         20  H    CARTESIAN Z    -2.056575      0.040090  KCAL/ANGSTROM




   ATOM   CHEMICAL          X               Y               Z
  NUMBER   SYMBOL      (ANGSTROMS)     (ANGSTROMS)     (ANGSTROMS)

     1       C         -1.65426895  *  -1.06907213  *   1.24435282  *
     2       C         -0.20555395  *  -0.69174606  *   1.13748725  *
     3       C          0.41279661  *   0.70061131  *   1.04120378  *
     4       N         -0.16422560  *   1.75723797  *   0.14084650  *
     5       C         -1.43758477  *   1.36889357  *  -0.50791027  *
     6       C         -0.16066076  *   0.75917895  *  -1.02595470  *
     7       C          0.51435155  *  -0.31320077  *  -0.14358009  *
     8       C          1.66126912  *  -1.08455226  *  -0.69520580  *
     9       O          1.08187236  *  -1.99874457  *  -1.61950082  *
    10       H         -2.12533641  *  -1.18309740  *   0.25630258  *
    11       H         -1.77556519  *  -2.04211128  *   1.74305599  *
    12       H         -2.22778329  *  -0.33750681  *   1.82849506  *
    13       H          0.39593965  *  -1.35788031  *   1.79231235  *
    14       H          1.13391493  *   1.07682166  *   1.74583211  *
    15       H         -2.21775554  *   0.81829160  *   0.00320970  *
    16       H         -1.88273106  *   2.18789658  *  -1.09077803  *
    17       H          0.23471393  *   0.95955608  *  -2.00801427  *
    18       H          2.37873148  *  -0.43505974  *  -1.23574596  *
    19       H          2.19823527  *  -1.65843730  *   0.08494616  *
    20       H          1.78474291  *  -2.51840419  *  -2.05657530  *

                             CARTESIAN COORDINATES

   1    C       -1.654268948    -1.069072129     1.244352817
   2    C       -0.205553949    -0.691746057     1.137487251
   3    C        0.412796611     0.700611309     1.041203779
   4    N       -0.164225597     1.757237966     0.140846498
   5    C       -1.437584774     1.368893569    -0.507910269
   6    C       -0.160660765     0.759178952    -1.025954703
   7    C        0.514351550    -0.313200773    -0.143580090
   8    C        1.661269116    -1.084552259    -0.695205804
   9    O        1.081872356    -1.998744573    -1.619500824
  10    H       -2.125336410    -1.183097400     0.256302578
  11    H       -1.775565188    -2.042111276     1.743055991
  12    H       -2.227783294    -0.337506813     1.828495061
  13    H        0.395939651    -1.357880314     1.792312348
  14    H        1.133914934     1.076821661     1.745832110
  15    H       -2.217755539     0.818291599     0.003209698
  16    H       -1.882731061     2.187896583    -1.090778034
  17    H        0.234713932     0.959556082    -2.008014271
  18    H        2.378731482    -0.435059742    -1.235745960
  19    H        2.198235275    -1.658437301     0.084946159
  20    H        1.784742910    -2.518404190    -2.056575300


           Empirical Formula: C7 H11 N O  =    20 atoms



      MOLECULAR POINT GROUP   :   C1  


                  EIGENVALUES  
 -37.03175 -29.93374 -29.03185 -26.08813 -24.77163 -22.98989 -21.72395 -19.56079
 -18.74091 -17.64124 -16.65248 -16.01139 -15.32231 -14.84189 -14.53520 -14.29889
 -13.57642 -13.29700 -12.98925 -12.40737 -11.74070 -11.42533 -10.70252 -10.34875
  -9.69324   1.15379   2.23694   2.33532   2.82806   3.24285   3.52985   3.65092
   3.95435   4.09585   4.30582   4.62703   5.25744   5.32317   5.46423   5.50456
   5.65489   5.75330   5.81328   5.88924   5.92084   5.96036   6.76202


              NET ATOMIC CHARGES AND DIPOLE CONTRIBUTIONS

  ATOM NO.   TYPE          CHARGE      No. of ELECS.   s-Pop       p-Pop       
    1          C          -0.433105        4.4331     1.04764     3.38547
    2          C          -0.138116        4.1381     1.05702     3.08109
    3          C          -0.063976        4.0640     1.08600     2.97798
    4          N          -0.344810        5.3448     1.79778     3.54703
    5          C          -0.202020        4.2020     1.07503     3.12699
    6          C          -0.069450        4.0694     1.08548     2.98397
    7          C          -0.107764        4.1078     1.06334     3.04443
    8          C           0.006389        3.9936     1.07556     2.91805
    9          O          -0.525369        6.5254     1.85467     4.67070
   10          H           0.163006        0.8370     0.83699
   11          H           0.153977        0.8460     0.84602
   12          H           0.155722        0.8443     0.84428
   13          H           0.159951        0.8400     0.84005
   14          H           0.177356        0.8226     0.82264
   15          H           0.166120        0.8339     0.83388
   16          H           0.173474        0.8265     0.82653
   17          H           0.177262        0.8227     0.82274
   18          H           0.125188        0.8748     0.87481
   19          H           0.120620        0.8794     0.87938
   20          H           0.305544        0.6945     0.69446
 DIPOLE           X         Y         Z       TOTAL
 POINT-CHG.     1.037    -1.292     0.472     1.723
 HYBRID        -0.076    -0.706    -0.152     0.726
 SUM            0.962    -1.998     0.320     2.240


          ATOMIC ORBITAL ELECTRON POPULATIONS

     Atom    s        px        py        pz   
    1  C   1.04764   1.03300   1.16739   1.18509
    2  C   1.05702   1.02743   1.01596   1.03771
    3  C   1.08600   1.08589   0.86674   1.02535
    4  N   1.79778   1.17565   1.27581   1.09558
    5  C   1.07503   0.94474   1.10896   1.07330
    6  C   1.08548   1.04346   0.92549   1.01502
    7  C   1.06334   1.06879   1.04282   0.93282
    8  C   1.07556   0.98742   0.95652   0.97411
    9  O   1.85467   1.42801   1.60624   1.63646
   10  H   0.83699
   11  H   0.84602
   12  H   0.84428
   13  H   0.84005
   14  H   0.82264
   15  H   0.83388
   16  H   0.82653
   17  H   0.82274
   18  H   0.87481
   19  H   0.87938
   20  H   0.69446

 **********************
 *                    *
 * JOB ENDED NORMALLY *
 *                    *
 **********************



 TOTAL JOB TIME:             1.27 SECONDS

 == MOPAC DONE ==
