 *******************************************************************************
 **                                                                           **
 **                              MOPAC v23.2                                  **
 **                                                                           **
 *******************************************************************************
 **          Digital Object Identifier (DOI): 10.5281/zenodo.6511958          **
 **    Visit the DOI location for information on how to cite this program.    **
 *******************************************************************************

                              PM7 CALCULATION RESULTS

 *******************************************************************************
 *  CALCULATION DONE: (MAX THREADS = 40)             Fri Sep 19 21:33:00 2025  *
 *  PM7        - The PM7 Hamiltonian to be used
 *  1SCF       - DO 1 SCF AND THEN STOP 
 *  T=         - A TIME OF 172800.0 SECONDS REQUESTED
 *  DUMP=N     - RESTART FILE WRITTEN EVERY 7200.0 SECONDS REQUESTED
 *  RELSCF     - DEFAULT SCF CRITERION MULTIPLIED BY 0.0001
 *              (DEFAULT SCF CRITERION = 0.00010)
 *  GRADIENTS  - ALL GRADIENTS TO BE PRINTED
 *  DISP       - PRINT DISPERSION AND HYDROGEN BOND ENERGIES
 *******************************************************************************
PM7 1SCF GRADIENTS DISP RELSCF=0.0001
 Title: ASE calculation

   ATOM   CHEMICAL          X               Y               Z
  NUMBER   SYMBOL      (ANGSTROMS)     (ANGSTROMS)     (ANGSTROMS)

     1       C         -3.81288223  *  -0.20206940  *   1.44242323  *
     2       C         -2.66457477  *  -0.39422640  *   1.11155160  *
     3       C         -1.30407553  *  -0.62191042  *   0.72016229  *
     4       C         -0.70667479  *   0.64576979  *   0.08378890  *
     5       C          0.64582117  *   0.32618155  *  -0.49851129  *
     6       N          1.00021112  *  -0.03595106  *  -1.67436175  *
     7       O          1.57211531  *   0.47336505  *   0.47700043  *
     8       C          2.94386269  *   0.20489440  *   0.12937249  *
     9       C          3.69349585  *   0.44591016  *   1.43024544  *
    10       H         -4.78892801  *  -0.04309994  *   1.72202879  *
    11       H         -1.23762158  *  -1.48167083  *   0.01031209  *
    12       H         -0.68308652  *  -0.92494423  *   1.60008682  *
    13       H         -1.37998111  *   1.04842410  *  -0.69850060  *
    14       H         -0.62138076  *   1.44888483  *   0.84873442  *
    15       H          0.34363451  *  -0.15469369  *  -2.42057392  *
    16       H          3.02225854  *  -0.83525131  *  -0.23067825  *
    17       H          3.24395296  *   0.89330579  *  -0.67938574  *
    18       H          3.54819886  *   1.47239973  *   1.79124766  *
    19       H          3.34366283  *  -0.22632442  *   2.22421555  *
    20       H          4.76901815  *   0.28308692  *   1.29700302  *



          CARTESIAN COORDINATES 

    NO.       ATOM           X           Y           Z

     1         C         -3.8129     -0.2021      1.4424
     2         C         -2.6646     -0.3942      1.1116
     3         C         -1.3041     -0.6219      0.7202
     4         C         -0.7067      0.6458      0.0838
     5         C          0.6458      0.3262     -0.4985
     6         N          1.0002     -0.0360     -1.6744
     7         O          1.5721      0.4734      0.4770
     8         C          2.9439      0.2049      0.1294
     9         C          3.6935      0.4459      1.4302
    10         H         -4.7889     -0.0431      1.7220
    11         H         -1.2376     -1.4817      0.0103
    12         H         -0.6831     -0.9249      1.6001
    13         H         -1.3800      1.0484     -0.6985
    14         H         -0.6214      1.4489      0.8487
    15         H          0.3436     -0.1547     -2.4206
    16         H          3.0223     -0.8353     -0.2307
    17         H          3.2440      0.8933     -0.6794
    18         H          3.5482      1.4724      1.7912
    19         H          3.3437     -0.2263      2.2242
    20         H          4.7690      0.2831      1.2970

 General Reference for PM7:
 "Optimization of Parameters for Semiempirical Methods VI: More Modifications to the 
 NDDO Approximations and Re-optimization of Parameters", J. J. P. Stewart, J. Mol. Mod., 1:32, 19 (2013)
 https://link.springer.com/article/10.1007/s00894-012-1667-x

           Empirical Formula: C7 H11 N O  =    20 atoms



      MOLECULAR POINT GROUP   :   C1  


      RHF CALCULATION, NO. OF DOUBLY OCCUPIED LEVELS = 25

  SCF CRITERION =    0.1000E-07

 -------------------------------------------------------------------------------
 PM7 1SCF GRADIENTS DISP RELSCF=0.0001
 Title: ASE calculation



     1SCF WAS SPECIFIED, SO BFGS WAS NOT USED                 
     SCF FIELD WAS ACHIEVED                                   


                              PM7 CALCULATION
                                                       MOPAC v23.2 Linux
                                                       Fri Sep 19 21:33:00 2025




          FINAL HEAT OF FORMATION =         11.62861 KCAL/MOL =      48.65412 KJ/MOL

          TOTAL ENERGY            =     -34322.30804 KCAL/MOL = ELECTRONIC ENERGY + CORE-CORE REPULSION
          ENERGY OF ATOMS         =      34323.93363 KCAL/MOL
                              SUM =          1.62559 KCAL/MOL
          DISPERSION ENERGY       =         -1.99697 KCAL/MOL
                              SUM =         -0.37138 KCAL/MOL = FINAL HEAT OF FORMATION

     *    WARNING - An energy term is incorrect or missing!

     *    FINAL HEAT OF FORMATION     =     11.62861 KCAL/MOL
     *    SUM OF CONTRIBUTIONS TO HoF =     -0.37138 KCAL/MOL
     *                     DIFFERENCE =     12.00000 KCAL/MOL



          TOTAL ENERGY            =      -1488.35614 EV
          ELECTRONIC ENERGY       =      -6989.63881 EV 
          CORE-CORE REPULSION     =       5501.28266 EV
          COSMO AREA              =        186.30 SQUARE ANGSTROMS
          COSMO VOLUME            =        177.22 CUBIC ANGSTROMS

          GRADIENT NORM           =          1.02711          =       0.22967 PER ATOM
          IONIZATION POTENTIAL    =         10.262159 EV
          HOMO LUMO ENERGIES (EV) =        -10.262  1.041
          NO. OF FILLED LEVELS    =         25
          MOLECULAR WEIGHT        =        125.1700         POINT GROUP:  C1  

          MOLECULAR DIMENSIONS (Angstroms)

            Atom       Atom       Distance
            H    20    H    10     9.57295
            H    15    H    19     4.77639
            H    11    H    14     2.93756


          SCF CALCULATIONS        =          1

          WALL-CLOCK TIME         =      0.414 SECONDS
          COMPUTATION TIME        =      0.847 SECONDS

          LARGEST ATOMIC GRADIENTS

          Atom     Label                     Cartesian Gradients           Cartesian Coordinates       |Gradient|
                                           X          Y          Z        X          Y          Z

             7       O                  -0.071     -0.156     -0.391    1.57212    0.47337    0.47700      0.427
             5       C                  -0.209     -0.069     -0.268    0.64582    0.32618   -0.49851      0.347
            10       H                  -0.327     -0.116      0.008   -4.78893   -0.04310    1.72203      0.347
             2       C                   0.019      0.008     -0.323   -2.66457   -0.39423    1.11155      0.324
            12       H                  -0.044      0.070      0.264   -0.68309   -0.92494    1.60009      0.276
            11       H                  -0.047     -0.269      0.022   -1.23762   -1.48167    0.01031      0.273
             1       C                   0.008      0.210      0.140   -3.81288   -0.20207    1.44242      0.253
            16       H                  -0.004      0.206      0.135    3.02226   -0.83525   -0.23068      0.246
             3       C                   0.219     -0.076     -0.067   -1.30408   -0.62191    0.72016      0.242
            15       H                   0.164      0.061      0.035    0.34363   -0.15469   -2.42057      0.178



       FINAL  POINT  AND  DERIVATIVES

   PARAMETER     ATOM    TYPE            VALUE        GRADIENT
      1          1  C    CARTESIAN X    -3.812882      0.007818  KCAL/ANGSTROM
      2          1  C    CARTESIAN Y    -0.202069      0.210294  KCAL/ANGSTROM
      3          1  C    CARTESIAN Z     1.442423      0.140498  KCAL/ANGSTROM
      4          2  C    CARTESIAN X    -2.664575      0.018597  KCAL/ANGSTROM
      5          2  C    CARTESIAN Y    -0.394226      0.008261  KCAL/ANGSTROM
      6          2  C    CARTESIAN Z     1.111552     -0.322881  KCAL/ANGSTROM
      7          3  C    CARTESIAN X    -1.304076      0.219491  KCAL/ANGSTROM
      8          3  C    CARTESIAN Y    -0.621910     -0.076416  KCAL/ANGSTROM
      9          3  C    CARTESIAN Z     0.720162     -0.066573  KCAL/ANGSTROM
     10          4  C    CARTESIAN X    -0.706675      0.001156  KCAL/ANGSTROM
     11          4  C    CARTESIAN Y     0.645770      0.085821  KCAL/ANGSTROM
     12          4  C    CARTESIAN Z     0.083789      0.044594  KCAL/ANGSTROM
     13          5  C    CARTESIAN X     0.645821     -0.208781  KCAL/ANGSTROM
     14          5  C    CARTESIAN Y     0.326182     -0.068843  KCAL/ANGSTROM
     15          5  C    CARTESIAN Z    -0.498511     -0.268246  KCAL/ANGSTROM
     16          6  N    CARTESIAN X     1.000211     -0.136073  KCAL/ANGSTROM
     17          6  N    CARTESIAN Y    -0.035951      0.011756  KCAL/ANGSTROM
     18          6  N    CARTESIAN Z    -1.674362     -0.058599  KCAL/ANGSTROM
     19          7  O    CARTESIAN X     1.572115     -0.070603  KCAL/ANGSTROM
     20          7  O    CARTESIAN Y     0.473365     -0.156144  KCAL/ANGSTROM
     21          7  O    CARTESIAN Z     0.477000     -0.391063  KCAL/ANGSTROM
     22          8  C    CARTESIAN X     2.943863      0.002638  KCAL/ANGSTROM
     23          8  C    CARTESIAN Y     0.204894      0.050866  KCAL/ANGSTROM
     24          8  C    CARTESIAN Z     0.129372      0.069803  KCAL/ANGSTROM
     25          9  C    CARTESIAN X     3.693496      0.114737  KCAL/ANGSTROM
     26          9  C    CARTESIAN Y     0.445910     -0.002469  KCAL/ANGSTROM
     27          9  C    CARTESIAN Z     1.430245      0.060653  KCAL/ANGSTROM
     28         10  H    CARTESIAN X    -4.788928     -0.326524  KCAL/ANGSTROM
     29         10  H    CARTESIAN Y    -0.043100     -0.115653  KCAL/ANGSTROM
     30         10  H    CARTESIAN Z     1.722029      0.008488  KCAL/ANGSTROM
     31         11  H    CARTESIAN X    -1.237622     -0.046903  KCAL/ANGSTROM
     32         11  H    CARTESIAN Y    -1.481671     -0.268553  KCAL/ANGSTROM
     33         11  H    CARTESIAN Z     0.010312      0.021692  KCAL/ANGSTROM
     34         12  H    CARTESIAN X    -0.683087     -0.044443  KCAL/ANGSTROM
     35         12  H    CARTESIAN Y    -0.924944      0.069799  KCAL/ANGSTROM
     36         12  H    CARTESIAN Z     1.600087      0.263551  KCAL/ANGSTROM
     37         13  H    CARTESIAN X    -1.379981     -0.004232  KCAL/ANGSTROM
     38         13  H    CARTESIAN Y     1.048424      0.007233  KCAL/ANGSTROM
     39         13  H    CARTESIAN Z    -0.698501      0.038163  KCAL/ANGSTROM
     40         14  H    CARTESIAN X    -0.621381      0.059969  KCAL/ANGSTROM
     41         14  H    CARTESIAN Y     1.448885      0.068546  KCAL/ANGSTROM
     42         14  H    CARTESIAN Z     0.848734      0.137600  KCAL/ANGSTROM
     43         15  H    CARTESIAN X     0.343635      0.163664  KCAL/ANGSTROM
     44         15  H    CARTESIAN Y    -0.154694      0.060754  KCAL/ANGSTROM
     45         15  H    CARTESIAN Z    -2.420574      0.035322  KCAL/ANGSTROM
     46         16  H    CARTESIAN X     3.022259     -0.003790  KCAL/ANGSTROM
     47         16  H    CARTESIAN Y    -0.835251      0.205514  KCAL/ANGSTROM
     48         16  H    CARTESIAN Z    -0.230678      0.134825  KCAL/ANGSTROM
     49         17  H    CARTESIAN X     3.243953     -0.052189  KCAL/ANGSTROM
     50         17  H    CARTESIAN Y     0.893306     -0.048809  KCAL/ANGSTROM
     51         17  H    CARTESIAN Z    -0.679386      0.154755  KCAL/ANGSTROM
     52         18  H    CARTESIAN X     3.548199      0.091942  KCAL/ANGSTROM
     53         18  H    CARTESIAN Y     1.472400      0.011065  KCAL/ANGSTROM
     54         18  H    CARTESIAN Z     1.791248      0.038702  KCAL/ANGSTROM
     55         19  H    CARTESIAN X     3.343663      0.063779  KCAL/ANGSTROM
     56         19  H    CARTESIAN Y    -0.226324     -0.029474  KCAL/ANGSTROM
     57         19  H    CARTESIAN Z     2.224216      0.048338  KCAL/ANGSTROM
     58         20  H    CARTESIAN X     4.769018      0.149744  KCAL/ANGSTROM
     59         20  H    CARTESIAN Y     0.283087     -0.023551  KCAL/ANGSTROM
     60         20  H    CARTESIAN Z     1.297003     -0.089624  KCAL/ANGSTROM




   ATOM   CHEMICAL          X               Y               Z
  NUMBER   SYMBOL      (ANGSTROMS)     (ANGSTROMS)     (ANGSTROMS)

     1       C         -3.81288223  *  -0.20206940  *   1.44242323  *
     2       C         -2.66457477  *  -0.39422640  *   1.11155160  *
     3       C         -1.30407553  *  -0.62191042  *   0.72016229  *
     4       C         -0.70667479  *   0.64576979  *   0.08378890  *
     5       C          0.64582117  *   0.32618155  *  -0.49851129  *
     6       N          1.00021112  *  -0.03595106  *  -1.67436175  *
     7       O          1.57211531  *   0.47336505  *   0.47700043  *
     8       C          2.94386269  *   0.20489440  *   0.12937249  *
     9       C          3.69349585  *   0.44591016  *   1.43024544  *
    10       H         -4.78892801  *  -0.04309994  *   1.72202879  *
    11       H         -1.23762158  *  -1.48167083  *   0.01031209  *
    12       H         -0.68308652  *  -0.92494423  *   1.60008682  *
    13       H         -1.37998111  *   1.04842410  *  -0.69850060  *
    14       H         -0.62138076  *   1.44888483  *   0.84873442  *
    15       H          0.34363451  *  -0.15469369  *  -2.42057392  *
    16       H          3.02225854  *  -0.83525131  *  -0.23067825  *
    17       H          3.24395296  *   0.89330579  *  -0.67938574  *
    18       H          3.54819886  *   1.47239973  *   1.79124766  *
    19       H          3.34366283  *  -0.22632442  *   2.22421555  *
    20       H          4.76901815  *   0.28308692  *   1.29700302  *

                             CARTESIAN COORDINATES

   1    C       -3.812882232    -0.202069400     1.442423228
   2    C       -2.664574770    -0.394226403     1.111551600
   3    C       -1.304075531    -0.621910419     0.720162289
   4    C       -0.706674787     0.645769792     0.083788900
   5    C        0.645821168     0.326181551    -0.498511289
   6    N        1.000211121    -0.035951056    -1.674361747
   7    O        1.572115311     0.473365048     0.477000433
   8    C        2.943862689     0.204894399     0.129372495
   9    C        3.693495849     0.445910158     1.430245439
  10    H       -4.788928007    -0.043099936     1.722028793
  11    H       -1.237621582    -1.481670825     0.010312087
  12    H       -0.683086524    -0.924944227     1.600086825
  13    H       -1.379981115     1.048424099    -0.698500600
  14    H       -0.621380758     1.448884826     0.848734420
  15    H        0.343634507    -0.154693688    -2.420573918
  16    H        3.022258538    -0.835251308    -0.230678248
  17    H        3.243952956     0.893305785    -0.679385741
  18    H        3.548198860     1.472399726     1.791247659
  19    H        3.343662833    -0.226324416     2.224215551
  20    H        4.769018152     0.283086921     1.297003023


           Empirical Formula: C7 H11 N O  =    20 atoms



      MOLECULAR POINT GROUP   :   C1  


                  EIGENVALUES  
 -35.35721 -30.13557 -28.86676 -27.01680 -25.88746 -23.34427 -21.26950 -20.54793
 -18.39741 -17.52720 -16.72462 -16.29941 -15.79458 -14.98196 -14.36110 -13.99357
 -13.50277 -13.35869 -12.74601 -12.40267 -11.91259 -11.06791 -10.85626 -10.41246
 -10.26216   1.04092   1.50615   1.54268   1.83389   3.16857   3.74124   3.81387
   4.16638   4.24113   4.74898   5.07776   5.36815   5.40760   5.61435   5.69911
   5.88833   5.95883   6.11799   6.24767   6.80492   6.90799   7.04315


              NET ATOMIC CHARGES AND DIPOLE CONTRIBUTIONS

  ATOM NO.   TYPE          CHARGE      No. of ELECS.   s-Pop       p-Pop       
    1          C          -0.215289        4.2153     1.13360     3.08169
    2          C          -0.067832        4.0678     1.10288     2.96495
    3          C          -0.229131        4.2291     1.03852     3.19061
    4          C          -0.327361        4.3274     1.06629     3.26107
    5          C           0.420099        3.5799     1.08659     2.49331
    6          N          -0.659033        5.6590     1.72269     3.93635
    7          O          -0.364487        6.3645     1.86993     4.49456
    8          C           0.001203        3.9988     1.09026     2.90854
    9          C          -0.466635        4.4666     1.05472     3.41192
   10          H           0.184989        0.8150     0.81501
   11          H           0.167370        0.8326     0.83263
   12          H           0.175744        0.8243     0.82426
   13          H           0.167282        0.8327     0.83272
   14          H           0.181056        0.8189     0.81894
   15          H           0.287452        0.7125     0.71255
   16          H           0.137926        0.8621     0.86207
   17          H           0.137850        0.8622     0.86215
   18          H           0.158226        0.8418     0.84177
   19          H           0.157475        0.8425     0.84253
   20          H           0.153097        0.8469     0.84690
 DIPOLE           X         Y         Z       TOTAL
 POINT-CHG.     0.362     0.024     0.595     0.697
 HYBRID        -0.870     0.150     0.059     0.885
 SUM           -0.508     0.174     0.654     0.846


          ATOMIC ORBITAL ELECTRON POPULATIONS

     Atom    s        px        py        pz   
    1  C   1.13360   1.03530   1.01549   1.03090
    2  C   1.10288   0.97410   1.00002   0.99083
    3  C   1.03852   0.99703   1.04912   1.14446
    4  C   1.06629   1.02683   1.07910   1.15514
    5  C   1.08659   0.83971   0.82379   0.82981
    6  N   1.72269   1.49763   1.31734   1.12137
    7  O   1.86993   1.25908   1.82366   1.41182
    8  C   1.09026   0.76045   1.13221   1.01587
    9  C   1.05472   1.13340   1.19014   1.08839
   10  H   0.81501
   11  H   0.83263
   12  H   0.82426
   13  H   0.83272
   14  H   0.81894
   15  H   0.71255
   16  H   0.86207
   17  H   0.86215
   18  H   0.84177
   19  H   0.84253
   20  H   0.84690

 **********************
 *                    *
 * JOB ENDED NORMALLY *
 *                    *
 **********************



 TOTAL JOB TIME:             0.78 SECONDS

 == MOPAC DONE ==
