 *******************************************************************************
 **                                                                           **
 **                              MOPAC v23.2                                  **
 **                                                                           **
 *******************************************************************************
 **          Digital Object Identifier (DOI): 10.5281/zenodo.6511958          **
 **    Visit the DOI location for information on how to cite this program.    **
 *******************************************************************************

                              PM7 CALCULATION RESULTS

 *******************************************************************************
 *  CALCULATION DONE: (MAX THREADS = 40)             Fri Sep 19 21:33:00 2025  *
 *  PM7        - The PM7 Hamiltonian to be used
 *
 *
 *
 *                 CHARGE ON SYSTEM = +1
 *
 *
 *
 *  EPS=37.5   - USE ANDREAS KLAMT'S COSMO IMPLICIT SOLVATION MODEL
 *  1SCF       - DO 1 SCF AND THEN STOP 
 *  T=         - A TIME OF 172800.0 SECONDS REQUESTED
 *  DUMP=N     - RESTART FILE WRITTEN EVERY 7200.0 SECONDS REQUESTED
 *  RELSCF     - DEFAULT SCF CRITERION MULTIPLIED BY 0.0001
 *              (DEFAULT SCF CRITERION = 0.00010)
 *  GRADIENTS  - ALL GRADIENTS TO BE PRINTED
 *  DISP       - PRINT DISPERSION AND HYDROGEN BOND ENERGIES
 *******************************************************************************
PM7 1SCF GRADIENTS EPS=37.5 DISP RELSCF=0.0001 CHARGE=1
 Title: ASE calculation

   ATOM   CHEMICAL          X               Y               Z
  NUMBER   SYMBOL      (ANGSTROMS)     (ANGSTROMS)     (ANGSTROMS)

     1       O          2.41369685  *  -1.32560550  *  -1.42756748  *
     2       C          1.64336845  *  -1.57310006  *  -0.55250636  *
     3       C          0.92554625  *  -0.40276740  *   0.19316712  *
     4       C          0.97503863  *   0.83054009  *  -0.59746759  *
     5       C         -0.21954164  *   1.56143439  *  -0.82709998  *
     6       C         -1.47409918  *   0.92801803  *  -0.43016771  *
     7       C         -1.22713711  *   0.50342489  *   1.09189588  *
     8       C         -0.52909222  *  -0.77149306  *   0.53335905  *
     9       C         -1.38318991  *  -0.60986776  *  -0.76169868  *
    10       H          1.37914516  *  -2.57357807  *  -0.19294374  *
    11       H          1.52786001  *  -0.28294851  *   1.15022822  *
    12       H          1.93917530  *   1.15197816  *  -1.02276964  *
    13       H         -0.20807157  *   2.57357807  *  -1.25057800  *
    14       H         -2.41369685  *   1.44233370  *  -0.66487038  *
    15       H         -0.64027172  *   1.18013827  *   1.71279081  *
    16       H         -2.17582307  *   0.31388123  *   1.61771869  *
    17       H         -0.64152829  *  -1.69745258  *   1.10709644  *
    18       H         -2.36188297  *  -1.11254068  *  -0.72170476  *
    19       H         -0.92154915  *  -0.87983496  *  -1.71279081  *



          CARTESIAN COORDINATES 

    NO.       ATOM           X           Y           Z

     1         O          2.4137     -1.3256     -1.4276
     2         C          1.6434     -1.5731     -0.5525
     3         C          0.9255     -0.4028      0.1932
     4         C          0.9750      0.8305     -0.5975
     5         C         -0.2195      1.5614     -0.8271
     6         C         -1.4741      0.9280     -0.4302
     7         C         -1.2271      0.5034      1.0919
     8         C         -0.5291     -0.7715      0.5334
     9         C         -1.3832     -0.6099     -0.7617
    10         H          1.3791     -2.5736     -0.1929
    11         H          1.5279     -0.2829      1.1502
    12         H          1.9392      1.1520     -1.0228
    13         H         -0.2081      2.5736     -1.2506
    14         H         -2.4137      1.4423     -0.6649
    15         H         -0.6403      1.1801      1.7128
    16         H         -2.1758      0.3139      1.6177
    17         H         -0.6415     -1.6975      1.1071
    18         H         -2.3619     -1.1125     -0.7217
    19         H         -0.9215     -0.8798     -1.7128

 General Reference for PM7:
 "Optimization of Parameters for Semiempirical Methods VI: More Modifications to the 
 NDDO Approximations and Re-optimization of Parameters", J. J. P. Stewart, J. Mol. Mod., 1:32, 19 (2013)
 https://link.springer.com/article/10.1007/s00894-012-1667-x

           Empirical Formula: C8 H10 O  =    19 atoms



      MOLECULAR POINT GROUP   :   C1  


          UHF CALCULATION, NO. OF ALPHA ELECTRONS =   24
                           NO. OF BETA  ELECTRONS =   23
  SCF CRITERION =    0.1000E-07

 -------------------------------------------------------------------------------
 PM7 1SCF GRADIENTS EPS=37.5 DISP RELSCF=0.0001 CHARGE=1
 Title: ASE calculation



     1SCF WAS SPECIFIED, SO BFGS WAS NOT USED                 
     SCF FIELD WAS ACHIEVED                                   


                              PM7 CALCULATION
                                                       MOPAC v23.2 Linux
                                                       Fri Sep 19 21:33:02 2025




          FINAL HEAT OF FORMATION =        151.73575 KCAL/MOL =     634.86237 KJ/MOL

          TOTAL ENERGY            =     -32399.19949 KCAL/MOL = ELECTRONIC ENERGY + CORE-CORE REPULSION + SOLVATION ENERGY
          ENERGY OF ATOMS         =      32552.68886 KCAL/MOL
                              SUM =        153.48937 KCAL/MOL
          DISPERSION ENERGY       =         -1.75362 KCAL/MOL
                              SUM =        151.73575 KCAL/MOL = FINAL HEAT OF FORMATION

          VAN DER WAALS AREA      =        155.87 SQUARE ANGSTROMS


          TOTAL ENERGY            =      -1404.96226 EV
          ELECTRONIC ENERGY       =      -2241.69698 EV 
          CORE-CORE REPULSION     =        836.73472 EV

          DIELECTRIC ENERGY       =         -2.55181 EV
          COSMO AREA              =        155.87 SQUARE ANGSTROMS
          COSMO VOLUME            =        158.30 CUBIC ANGSTROMS

          GRADIENT NORM           =         38.35508          =       8.79926 PER ATOM
          IONIZATION POTENTIAL    =         10.882050 EV
          ALPHA SOMO LUMO (EV)    =        -10.882 -1.787
          BETA  SOMO LUMO (EV)    =        -11.146 -3.627
          NO. OF ALPHA ELECTRONS  =         24
          NO. OF BETA  ELECTRONS  =         23
          MOLECULAR WEIGHT        =        122.1664         POINT GROUP:  C1  

          MOLECULAR DIMENSIONS (Angstroms)

            Atom       Atom       Distance
            H    16    O     1     5.74677
            H    13    H    10     5.03964
            H    11    H    18     3.97425


          SCF CALCULATIONS        =          2

          WALL-CLOCK TIME         =      2.195 SECONDS
          COMPUTATION TIME        =      1.318 SECONDS

          LARGEST ATOMIC GRADIENTS

          Atom     Label                     Cartesian Gradients           Cartesian Coordinates       |Gradient|
                                           X          Y          Z        X          Y          Z

             2       C                  19.123     -9.152    -20.306    1.64337   -1.57310   -0.55251     29.356
             1       O                 -11.425     -0.710     12.369    2.41370   -1.32561   -1.42757     16.853
             3       C                  -3.714     13.316      7.586    0.92555   -0.40277    0.19317     15.769
             6       C                   1.985      3.535     -2.623   -1.47410    0.92802   -0.43017      4.829
             4       C                  -2.692     -1.375      0.938    0.97504    0.83054   -0.59747      3.165
            11       H                  -0.297     -2.015     -2.130    1.52786   -0.28295    1.15023      2.947
            10       H                  -1.631      1.773      1.564    1.37915   -2.57358   -0.19294      2.873
             5       C                   1.621     -1.684     -0.327   -0.21954    1.56143   -0.82710      2.361
             7       C                   1.813     -0.234      1.124   -1.22714    0.50342    1.09190      2.146
            16       H                  -1.572     -0.069      1.012   -2.17582    0.31388    1.61772      1.871



       FINAL  POINT  AND  DERIVATIVES

   PARAMETER     ATOM    TYPE            VALUE        GRADIENT
      1          1  O    CARTESIAN X     2.413697    -11.424535  KCAL/ANGSTROM
      2          1  O    CARTESIAN Y    -1.325605     -0.710416  KCAL/ANGSTROM
      3          1  O    CARTESIAN Z    -1.427567     12.369429  KCAL/ANGSTROM
      4          2  C    CARTESIAN X     1.643368     19.123092  KCAL/ANGSTROM
      5          2  C    CARTESIAN Y    -1.573100     -9.151756  KCAL/ANGSTROM
      6          2  C    CARTESIAN Z    -0.552506    -20.305725  KCAL/ANGSTROM
      7          3  C    CARTESIAN X     0.925546     -3.714299  KCAL/ANGSTROM
      8          3  C    CARTESIAN Y    -0.402767     13.316161  KCAL/ANGSTROM
      9          3  C    CARTESIAN Z     0.193167      7.585519  KCAL/ANGSTROM
     10          4  C    CARTESIAN X     0.975039     -2.692310  KCAL/ANGSTROM
     11          4  C    CARTESIAN Y     0.830540     -1.374903  KCAL/ANGSTROM
     12          4  C    CARTESIAN Z    -0.597468      0.938081  KCAL/ANGSTROM
     13          5  C    CARTESIAN X    -0.219542      1.621193  KCAL/ANGSTROM
     14          5  C    CARTESIAN Y     1.561434     -1.684363  KCAL/ANGSTROM
     15          5  C    CARTESIAN Z    -0.827100     -0.326733  KCAL/ANGSTROM
     16          6  C    CARTESIAN X    -1.474099      1.984825  KCAL/ANGSTROM
     17          6  C    CARTESIAN Y     0.928018      3.535388  KCAL/ANGSTROM
     18          6  C    CARTESIAN Z    -0.430168     -2.622767  KCAL/ANGSTROM
     19          7  C    CARTESIAN X    -1.227137      1.813236  KCAL/ANGSTROM
     20          7  C    CARTESIAN Y     0.503425     -0.234438  KCAL/ANGSTROM
     21          7  C    CARTESIAN Z     1.091896      1.123904  KCAL/ANGSTROM
     22          8  C    CARTESIAN X    -0.529092      0.209831  KCAL/ANGSTROM
     23          8  C    CARTESIAN Y    -0.771493      0.303965  KCAL/ANGSTROM
     24          8  C    CARTESIAN Z     0.533359     -0.428033  KCAL/ANGSTROM
     25          9  C    CARTESIAN X    -1.383190      1.349869  KCAL/ANGSTROM
     26          9  C    CARTESIAN Y    -0.609868     -0.123035  KCAL/ANGSTROM
     27          9  C    CARTESIAN Z    -0.761699      0.592239  KCAL/ANGSTROM
     28         10  H    CARTESIAN X     1.379145     -1.631337  KCAL/ANGSTROM
     29         10  H    CARTESIAN Y    -2.573578      1.773095  KCAL/ANGSTROM
     30         10  H    CARTESIAN Z    -0.192944      1.564261  KCAL/ANGSTROM
     31         11  H    CARTESIAN X     1.527860     -0.296748  KCAL/ANGSTROM
     32         11  H    CARTESIAN Y    -0.282949     -2.015473  KCAL/ANGSTROM
     33         11  H    CARTESIAN Z     1.150228     -2.129761  KCAL/ANGSTROM
     34         12  H    CARTESIAN X     1.939175      0.809813  KCAL/ANGSTROM
     35         12  H    CARTESIAN Y     1.151978     -0.828982  KCAL/ANGSTROM
     36         12  H    CARTESIAN Z    -1.022770      0.158823  KCAL/ANGSTROM
     37         13  H    CARTESIAN X    -0.208072     -0.699364  KCAL/ANGSTROM
     38         13  H    CARTESIAN Y     2.573578     -0.775652  KCAL/ANGSTROM
     39         13  H    CARTESIAN Z    -1.250578     -0.143106  KCAL/ANGSTROM
     40         14  H    CARTESIAN X    -2.413697     -1.374580  KCAL/ANGSTROM
     41         14  H    CARTESIAN Y     1.442334      0.002523  KCAL/ANGSTROM
     42         14  H    CARTESIAN Z    -0.664870      0.039431  KCAL/ANGSTROM
     43         15  H    CARTESIAN X    -0.640272     -1.108751  KCAL/ANGSTROM
     44         15  H    CARTESIAN Y     1.180138     -0.346553  KCAL/ANGSTROM
     45         15  H    CARTESIAN Z     1.712791      0.738961  KCAL/ANGSTROM
     46         16  H    CARTESIAN X    -2.175823     -1.571571  KCAL/ANGSTROM
     47         16  H    CARTESIAN Y     0.313881     -0.069467  KCAL/ANGSTROM
     48         16  H    CARTESIAN Z     1.617719      1.012383  KCAL/ANGSTROM
     49         17  H    CARTESIAN X    -0.641528     -0.560699  KCAL/ANGSTROM
     50         17  H    CARTESIAN Y    -1.697453     -0.351514  KCAL/ANGSTROM
     51         17  H    CARTESIAN Z     1.107096      0.396935  KCAL/ANGSTROM
     52         18  H    CARTESIAN X    -2.361883     -1.489961  KCAL/ANGSTROM
     53         18  H    CARTESIAN Y    -1.112541     -0.766683  KCAL/ANGSTROM
     54         18  H    CARTESIAN Z    -0.721705     -0.249997  KCAL/ANGSTROM
     55         19  H    CARTESIAN X    -0.921549     -0.347705  KCAL/ANGSTROM
     56         19  H    CARTESIAN Y    -0.879835     -0.497900  KCAL/ANGSTROM
     57         19  H    CARTESIAN Z    -1.712791     -0.313849  KCAL/ANGSTROM




   ATOM   CHEMICAL          X               Y               Z
  NUMBER   SYMBOL      (ANGSTROMS)     (ANGSTROMS)     (ANGSTROMS)

     1       O          2.41369685  *  -1.32560550  *  -1.42756748  *
     2       C          1.64336845  *  -1.57310006  *  -0.55250636  *
     3       C          0.92554625  *  -0.40276740  *   0.19316712  *
     4       C          0.97503863  *   0.83054009  *  -0.59746759  *
     5       C         -0.21954164  *   1.56143439  *  -0.82709998  *
     6       C         -1.47409918  *   0.92801803  *  -0.43016771  *
     7       C         -1.22713711  *   0.50342489  *   1.09189588  *
     8       C         -0.52909222  *  -0.77149306  *   0.53335905  *
     9       C         -1.38318991  *  -0.60986776  *  -0.76169868  *
    10       H          1.37914516  *  -2.57357807  *  -0.19294374  *
    11       H          1.52786001  *  -0.28294851  *   1.15022822  *
    12       H          1.93917530  *   1.15197816  *  -1.02276964  *
    13       H         -0.20807157  *   2.57357807  *  -1.25057800  *
    14       H         -2.41369685  *   1.44233370  *  -0.66487038  *
    15       H         -0.64027172  *   1.18013827  *   1.71279081  *
    16       H         -2.17582307  *   0.31388123  *   1.61771869  *
    17       H         -0.64152829  *  -1.69745258  *   1.10709644  *
    18       H         -2.36188297  *  -1.11254068  *  -0.72170476  *
    19       H         -0.92154915  *  -0.87983496  *  -1.71279081  *

                             CARTESIAN COORDINATES

   1    O        2.413696849    -1.325605498    -1.427567476
   2    C        1.643368452    -1.573100058    -0.552506358
   3    C        0.925546251    -0.402767401     0.193167115
   4    C        0.975038633     0.830540094    -0.597467593
   5    C       -0.219541643     1.561434386    -0.827099976
   6    C       -1.474099175     0.928018027    -0.430167712
   7    C       -1.227137112     0.503424888     1.091895878
   8    C       -0.529092217    -0.771493055     0.533359053
   9    C       -1.383189910    -0.609867764    -0.761698679
  10    H        1.379145164    -2.573578065    -0.192943742
  11    H        1.527860012    -0.282948508     1.150228224
  12    H        1.939175296     1.151978162    -1.022769636
  13    H       -0.208071570     2.573578065    -1.250578001
  14    H       -2.413696849     1.442333701    -0.664870377
  15    H       -0.640271715     1.180138268     1.712790815
  16    H       -2.175823073     0.313881227     1.617718693
  17    H       -0.641528293    -1.697452579     1.107096438
  18    H       -2.361882973    -1.112540684    -0.721704762
  19    H       -0.921549150    -0.879834958    -1.712790815


           Empirical Formula: C8 H10 O  =    19 atoms



      MOLECULAR POINT GROUP   :   C1  


          ALPHA EIGENVALUES  
 -33.48759 -32.23248 -28.00987 -27.32283 -23.81678 -23.22170 -21.60094 -20.88077
 -18.82915 -17.98822 -17.15273 -16.38138 -15.80798 -15.45564 -15.33674 -14.90132
 -14.63719 -14.44688 -13.67466 -12.60867 -12.38292 -12.03804 -11.65785 -10.88205
  -1.78715  -0.10025   1.84079   2.10084   2.18914   2.24984   2.59817   2.76009
   2.90647   3.04109   3.89433   4.08650   4.31704   4.60741   4.70647   4.73858
   5.00923   5.14176   5.37192   5.46480   5.77525   5.84186


           BETA EIGENVALUES 
 -33.39655 -32.19431 -27.86109 -27.16353 -23.75607 -23.14735 -21.50394 -20.78497
 -18.75055 -17.95149 -16.97777 -16.31059 -15.73104 -15.35204 -15.24272 -14.81653
 -14.41953 -14.21264 -13.53819 -12.48326 -12.34134 -11.96486 -11.14553  -3.62674
  -0.46958  -0.07711   1.92730   2.22669   2.27493   2.31218   2.66161   2.85179
   3.02287   3.10303   3.91476   4.10643   4.41028   4.67513   4.74474   4.79782
   5.02620   5.15553   5.37543   5.46824   5.78510   5.84631


              NET ATOMIC CHARGES AND DIPOLE CONTRIBUTIONS

  ATOM NO.   TYPE          CHARGE      No. of ELECS.   s-Pop       p-Pop       
    1          O          -0.485951        6.4860     1.86732     4.61863
    2          C           0.441856        3.5581     1.16368     2.39447
    3          C          -0.339554        4.3396     1.09121     3.24835
    4          C           0.116776        3.8832     1.16329     2.71994
    5          C           0.137994        3.8620     1.16883     2.69317
    6          C          -0.194610        4.1946     1.08582     3.10879
    7          C          -0.249519        4.2495     1.08789     3.16162
    8          C          -0.106361        4.1064     1.07892     3.02745
    9          C          -0.273323        4.2733     1.08183     3.19150
   10          H           0.179797        0.8202     0.82020
   11          H           0.262782        0.7372     0.73722
   12          H           0.218459        0.7815     0.78154
   13          H           0.214821        0.7852     0.78518
   14          H           0.197649        0.8024     0.80235
   15          H           0.170078        0.8299     0.82992
   16          H           0.182627        0.8174     0.81737
   17          H           0.179086        0.8209     0.82091
   18          H           0.180841        0.8192     0.81916
   19          H           0.166553        0.8334     0.83345
 DIPOLE           X         Y         Z       TOTAL
 POINT-CHG.    -2.174     3.009     2.381     4.410
 HYBRID         0.247     0.578    -0.238     0.672
 SUM           -1.928     3.587     2.143     4.602


          ATOMIC ORBITAL ELECTRON POPULATIONS

     Atom    s        px        py        pz   
    1  O   1.86732   1.38073   1.87736   1.36054
    2  C   1.16368   0.70196   0.96501   0.72750
    3  C   1.09121   1.08927   1.02839   1.13069
    4  C   1.16329   1.05686   0.88459   0.77849
    5  C   1.16883   0.98283   1.03835   0.67199
    6  C   1.08582   1.05865   1.03201   1.01814
    7  C   1.08789   1.16032   1.03876   0.96255
    8  C   1.07892   0.92270   1.07418   1.03057
    9  C   1.08183   1.15196   0.96649   1.07304
   10  H   0.82020
   11  H   0.73722
   12  H   0.78154
   13  H   0.78518
   14  H   0.80235
   15  H   0.82992
   16  H   0.81737
   17  H   0.82091
   18  H   0.81916
   19  H   0.83345


                    (SZ)    =    0.500000
                    (S**2)  =    0.752485


          ATOMIC ORBITAL SPIN POPULATIONS

    Atom   Total    s     px     py     pz   
         Atomic
    1  O  0.0108  0.000  0.001  0.010 -0.000
    2  C  0.0260  0.002  0.005  0.017  0.002
    3  C -0.0060 -0.004 -0.002 -0.000  0.001
    4  C  0.4705  0.009  0.028  0.154  0.280
    5  C  0.4079  0.007  0.005  0.048  0.348
    6  C -0.0093 -0.003 -0.007 -0.009  0.009
    7  C  0.0636  0.005  0.001  0.021  0.036
    8  C -0.0032 -0.000 -0.000 -0.001 -0.001
    9  C  0.0297  0.003  0.001  0.024  0.001
   10  H  0.0063  0.006
   11  H  0.0255  0.025
   12  H -0.0119 -0.012
   13  H -0.0100 -0.010
   14  H  0.0001  0.000
   15  H -0.0020 -0.002
   16  H  0.0024  0.002
   17  H  0.0004  0.000
   18  H -0.0002 -0.000
   19  H -0.0008 -0.001

 **********************
 *                    *
 * JOB ENDED NORMALLY *
 *                    *
 **********************



 TOTAL JOB TIME:             2.51 SECONDS

 == MOPAC DONE ==
