 *******************************************************************************
 **                                                                           **
 **                              MOPAC v23.2                                  **
 **                                                                           **
 *******************************************************************************
 **          Digital Object Identifier (DOI): 10.5281/zenodo.6511958          **
 **    Visit the DOI location for information on how to cite this program.    **
 *******************************************************************************

                              PM7 CALCULATION RESULTS

 *******************************************************************************
 *  CALCULATION DONE: (MAX THREADS = 40)             Fri Sep 19 21:35:36 2025  *
 *  PM7        - The PM7 Hamiltonian to be used
 *  1SCF       - DO 1 SCF AND THEN STOP 
 *  T=         - A TIME OF 172800.0 SECONDS REQUESTED
 *  DUMP=N     - RESTART FILE WRITTEN EVERY 7200.0 SECONDS REQUESTED
 *  RELSCF     - DEFAULT SCF CRITERION MULTIPLIED BY 0.0001
 *              (DEFAULT SCF CRITERION = 0.00010)
 *  GRADIENTS  - ALL GRADIENTS TO BE PRINTED
 *  DISP       - PRINT DISPERSION AND HYDROGEN BOND ENERGIES
 *******************************************************************************
PM7 1SCF GRADIENTS DISP RELSCF=0.0001
 Title: ASE calculation

   ATOM   CHEMICAL          X               Y               Z
  NUMBER   SYMBOL      (ANGSTROMS)     (ANGSTROMS)     (ANGSTROMS)

     1       C          2.37336327  *  -0.65916899  *   0.28749862  *
     2       C          0.96241773  *  -0.53154095  *   0.81549914  *
     3       C          0.27886675  *   0.84087273  *   0.47557486  *
     4       O         -0.13233990  *   1.44381447  *   1.66726817  *
     5       C         -0.85004326  *   0.08816150  *  -0.28039429  *
     6       O         -1.04019016  *   0.60717043  *  -1.53718099  *
     7       C         -2.07252354  *  -0.41320335  *   0.50994825  *
     8       C         -1.34781113  *  -1.77242133  *   0.76476830  *
     9       C         -0.10726686  *  -1.28807426  *  -0.01944344  *
    10       H          2.43372138  *  -0.43529376  *  -0.78487364  *
    11       H          3.05430027  *   0.02933479  *   0.80439160  *
    12       H          2.75964478  *  -1.67601625  *   0.43008616  *
    13       H          0.91152699  *  -0.75311420  *   1.89749274  *
    14       H          0.86061272  *   1.54047723  *  -0.13859182  *
    15       H         -0.66184970  *   2.24613822  *   1.48296316  *
    16       H         -1.63242790  *   0.03875760  *  -2.07309491  *
    17       H         -2.99259133  *  -0.48597881  *  -0.07160076  *
    18       H         -2.28441155  *   0.15823983  *   1.41997956  *
    19       H         -1.84675729  *  -2.63610685  *   0.31959856  *
    20       H         -1.16616884  *  -1.99400499  *   1.81994926  *
    21       H          0.25184684  *  -1.91237047  *  -0.82292688  *



          CARTESIAN COORDINATES 

    NO.       ATOM           X           Y           Z

     1         C          2.3734     -0.6592      0.2875
     2         C          0.9624     -0.5315      0.8155
     3         C          0.2789      0.8409      0.4756
     4         O         -0.1323      1.4438      1.6673
     5         C         -0.8500      0.0882     -0.2804
     6         O         -1.0402      0.6072     -1.5372
     7         C         -2.0725     -0.4132      0.5099
     8         C         -1.3478     -1.7724      0.7648
     9         C         -0.1073     -1.2881     -0.0194
    10         H          2.4337     -0.4353     -0.7849
    11         H          3.0543      0.0293      0.8044
    12         H          2.7596     -1.6760      0.4301
    13         H          0.9115     -0.7531      1.8975
    14         H          0.8606      1.5405     -0.1386
    15         H         -0.6618      2.2461      1.4830
    16         H         -1.6324      0.0388     -2.0731
    17         H         -2.9926     -0.4860     -0.0716
    18         H         -2.2844      0.1582      1.4200
    19         H         -1.8468     -2.6361      0.3196
    20         H         -1.1662     -1.9940      1.8199
    21         H          0.2518     -1.9124     -0.8229

 General Reference for PM7:
 "Optimization of Parameters for Semiempirical Methods VI: More Modifications to the 
 NDDO Approximations and Re-optimization of Parameters", J. J. P. Stewart, J. Mol. Mod., 1:32, 19 (2013)
 https://link.springer.com/article/10.1007/s00894-012-1667-x

           Empirical Formula: C7 H12 O2  =    21 atoms



      MOLECULAR POINT GROUP   :   C1  


      RHF CALCULATION, NO. OF DOUBLY OCCUPIED LEVELS = 26

  SCF CRITERION =    0.1000E-07

 -------------------------------------------------------------------------------
 PM7 1SCF GRADIENTS DISP RELSCF=0.0001
 Title: ASE calculation



     1SCF WAS SPECIFIED, SO BFGS WAS NOT USED                 
     SCF FIELD WAS ACHIEVED                                   


                              PM7 CALCULATION
                                                       MOPAC v23.2 Linux
                                                       Fri Sep 19 21:35:37 2025




          FINAL HEAT OF FORMATION =        -75.33308 KCAL/MOL =    -315.19363 KJ/MOL

          TOTAL ENERGY            =     -37170.56606 KCAL/MOL = ELECTRONIC ENERGY + CORE-CORE REPULSION
          ENERGY OF ATOMS         =      37097.27293 KCAL/MOL
                              SUM =        -73.29313 KCAL/MOL
          DISPERSION ENERGY       =         -2.03995 KCAL/MOL
                              SUM =        -75.33308 KCAL/MOL = FINAL HEAT OF FORMATION



          TOTAL ENERGY            =      -1611.86830 EV
          ELECTRONIC ENERGY       =      -8176.66355 EV 
          CORE-CORE REPULSION     =       6564.79524 EV
          COSMO AREA              =        163.43 SQUARE ANGSTROMS
          COSMO VOLUME            =        166.26 CUBIC ANGSTROMS

          GRADIENT NORM           =          0.92207          =       0.20121 PER ATOM
          IONIZATION POTENTIAL    =         10.009048 EV
          HOMO LUMO ENERGIES (EV) =        -10.009  2.621
          NO. OF FILLED LEVELS    =         26
          MOLECULAR WEIGHT        =        128.1706         POINT GROUP:  C1  

          MOLECULAR DIMENSIONS (Angstroms)

            Atom       Atom       Distance
            H    17    H    11     6.13171
            H    19    H    15     4.85269
            H    16    H    20     4.13474


          SCF CALCULATIONS        =          1

          WALL-CLOCK TIME         =      0.711 SECONDS
          COMPUTATION TIME        =      1.575 SECONDS

          LARGEST ATOMIC GRADIENTS

          Atom     Label                     Cartesian Gradients           Cartesian Coordinates       |Gradient|
                                           X          Y          Z        X          Y          Z

             5       C                   0.293     -0.120     -0.087   -0.85004    0.08816   -0.28039      0.328
             7       C                   0.062      0.169     -0.220   -2.07252   -0.41320    0.50995      0.284
            11       H                  -0.127      0.032     -0.213    3.05430    0.02933    0.80439      0.250
             9       C                  -0.059      0.171     -0.173   -0.10727   -1.28807   -0.01944      0.250
            17       H                  -0.124      0.128     -0.151   -2.99259   -0.48598   -0.07160      0.234
            16       H                  -0.086     -0.125      0.166   -1.63243    0.03876   -2.07309      0.225
            14       H                  -0.213      0.020     -0.020    0.86061    1.54048   -0.13859      0.215
            10       H                  -0.032      0.001      0.207    2.43372   -0.43529   -0.78487      0.209
            20       H                  -0.072     -0.157      0.116   -1.16617   -1.99400    1.81995      0.208
            21       H                   0.147      0.082      0.100    0.25185   -1.91237   -0.82293      0.196



       FINAL  POINT  AND  DERIVATIVES

   PARAMETER     ATOM    TYPE            VALUE        GRADIENT
      1          1  C    CARTESIAN X     2.373363     -0.142817  KCAL/ANGSTROM
      2          1  C    CARTESIAN Y    -0.659169      0.005405  KCAL/ANGSTROM
      3          1  C    CARTESIAN Z     0.287499      0.080448  KCAL/ANGSTROM
      4          2  C    CARTESIAN X     0.962418     -0.046697  KCAL/ANGSTROM
      5          2  C    CARTESIAN Y    -0.531541      0.056007  KCAL/ANGSTROM
      6          2  C    CARTESIAN Z     0.815499      0.138834  KCAL/ANGSTROM
      7          3  C    CARTESIAN X     0.278867      0.152396  KCAL/ANGSTROM
      8          3  C    CARTESIAN Y     0.840873     -0.035953  KCAL/ANGSTROM
      9          3  C    CARTESIAN Z     0.475575     -0.050278  KCAL/ANGSTROM
     10          4  O    CARTESIAN X    -0.132340      0.132988  KCAL/ANGSTROM
     11          4  O    CARTESIAN Y     1.443814     -0.011681  KCAL/ANGSTROM
     12          4  O    CARTESIAN Z     1.667268     -0.093166  KCAL/ANGSTROM
     13          5  C    CARTESIAN X    -0.850043      0.293207  KCAL/ANGSTROM
     14          5  C    CARTESIAN Y     0.088162     -0.119614  KCAL/ANGSTROM
     15          5  C    CARTESIAN Z    -0.280394     -0.087355  KCAL/ANGSTROM
     16          6  O    CARTESIAN X    -1.040190      0.006990  KCAL/ANGSTROM
     17          6  O    CARTESIAN Y     0.607170     -0.019501  KCAL/ANGSTROM
     18          6  O    CARTESIAN Z    -1.537181     -0.021712  KCAL/ANGSTROM
     19          7  C    CARTESIAN X    -2.072524      0.061655  KCAL/ANGSTROM
     20          7  C    CARTESIAN Y    -0.413203      0.168837  KCAL/ANGSTROM
     21          7  C    CARTESIAN Z     0.509948     -0.219721  KCAL/ANGSTROM
     22          8  C    CARTESIAN X    -1.347811     -0.016059  KCAL/ANGSTROM
     23          8  C    CARTESIAN Y    -1.772421      0.018956  KCAL/ANGSTROM
     24          8  C    CARTESIAN Z     0.764768     -0.043208  KCAL/ANGSTROM
     25          9  C    CARTESIAN X    -0.107267     -0.058785  KCAL/ANGSTROM
     26          9  C    CARTESIAN Y    -1.288074      0.170943  KCAL/ANGSTROM
     27          9  C    CARTESIAN Z    -0.019443     -0.172919  KCAL/ANGSTROM
     28         10  H    CARTESIAN X     2.433721     -0.032133  KCAL/ANGSTROM
     29         10  H    CARTESIAN Y    -0.435294      0.000993  KCAL/ANGSTROM
     30         10  H    CARTESIAN Z    -0.784874      0.206575  KCAL/ANGSTROM
     31         11  H    CARTESIAN X     3.054300     -0.127428  KCAL/ANGSTROM
     32         11  H    CARTESIAN Y     0.029335      0.031596  KCAL/ANGSTROM
     33         11  H    CARTESIAN Z     0.804392     -0.213008  KCAL/ANGSTROM
     34         12  H    CARTESIAN X     2.759645     -0.070374  KCAL/ANGSTROM
     35         12  H    CARTESIAN Y    -1.676016      0.094637  KCAL/ANGSTROM
     36         12  H    CARTESIAN Z     0.430086     -0.136848  KCAL/ANGSTROM
     37         13  H    CARTESIAN X     0.911527     -0.046820  KCAL/ANGSTROM
     38         13  H    CARTESIAN Y    -0.753114     -0.063406  KCAL/ANGSTROM
     39         13  H    CARTESIAN Z     1.897493      0.126867  KCAL/ANGSTROM
     40         14  H    CARTESIAN X     0.860613     -0.212887  KCAL/ANGSTROM
     41         14  H    CARTESIAN Y     1.540477      0.020424  KCAL/ANGSTROM
     42         14  H    CARTESIAN Z    -0.138592     -0.020426  KCAL/ANGSTROM
     43         15  H    CARTESIAN X    -0.661850      0.107816  KCAL/ANGSTROM
     44         15  H    CARTESIAN Y     2.246138     -0.012047  KCAL/ANGSTROM
     45         15  H    CARTESIAN Z     1.482963      0.154275  KCAL/ANGSTROM
     46         16  H    CARTESIAN X    -1.632428     -0.086398  KCAL/ANGSTROM
     47         16  H    CARTESIAN Y     0.038758     -0.124502  KCAL/ANGSTROM
     48         16  H    CARTESIAN Z    -2.073095      0.166290  KCAL/ANGSTROM
     49         17  H    CARTESIAN X    -2.992591     -0.123773  KCAL/ANGSTROM
     50         17  H    CARTESIAN Y    -0.485979      0.128261  KCAL/ANGSTROM
     51         17  H    CARTESIAN Z    -0.071601     -0.151221  KCAL/ANGSTROM
     52         18  H    CARTESIAN X    -2.284412      0.147054  KCAL/ANGSTROM
     53         18  H    CARTESIAN Y     0.158240     -0.076827  KCAL/ANGSTROM
     54         18  H    CARTESIAN Z     1.419980      0.035656  KCAL/ANGSTROM
     55         19  H    CARTESIAN X    -1.846757     -0.012721  KCAL/ANGSTROM
     56         19  H    CARTESIAN Y    -2.636107     -0.157730  KCAL/ANGSTROM
     57         19  H    CARTESIAN Z     0.319599      0.085146  KCAL/ANGSTROM
     58         20  H    CARTESIAN X    -1.166169     -0.071823  KCAL/ANGSTROM
     59         20  H    CARTESIAN Y    -1.994005     -0.156865  KCAL/ANGSTROM
     60         20  H    CARTESIAN Z     1.819949      0.115663  KCAL/ANGSTROM
     61         21  H    CARTESIAN X     0.251847      0.146608  KCAL/ANGSTROM
     62         21  H    CARTESIAN Y    -1.912370      0.082064  KCAL/ANGSTROM
     63         21  H    CARTESIAN Z    -0.822927      0.100104  KCAL/ANGSTROM




   ATOM   CHEMICAL          X               Y               Z
  NUMBER   SYMBOL      (ANGSTROMS)     (ANGSTROMS)     (ANGSTROMS)

     1       C          2.37336327  *  -0.65916899  *   0.28749862  *
     2       C          0.96241773  *  -0.53154095  *   0.81549914  *
     3       C          0.27886675  *   0.84087273  *   0.47557486  *
     4       O         -0.13233990  *   1.44381447  *   1.66726817  *
     5       C         -0.85004326  *   0.08816150  *  -0.28039429  *
     6       O         -1.04019016  *   0.60717043  *  -1.53718099  *
     7       C         -2.07252354  *  -0.41320335  *   0.50994825  *
     8       C         -1.34781113  *  -1.77242133  *   0.76476830  *
     9       C         -0.10726686  *  -1.28807426  *  -0.01944344  *
    10       H          2.43372138  *  -0.43529376  *  -0.78487364  *
    11       H          3.05430027  *   0.02933479  *   0.80439160  *
    12       H          2.75964478  *  -1.67601625  *   0.43008616  *
    13       H          0.91152699  *  -0.75311420  *   1.89749274  *
    14       H          0.86061272  *   1.54047723  *  -0.13859182  *
    15       H         -0.66184970  *   2.24613822  *   1.48296316  *
    16       H         -1.63242790  *   0.03875760  *  -2.07309491  *
    17       H         -2.99259133  *  -0.48597881  *  -0.07160076  *
    18       H         -2.28441155  *   0.15823983  *   1.41997956  *
    19       H         -1.84675729  *  -2.63610685  *   0.31959856  *
    20       H         -1.16616884  *  -1.99400499  *   1.81994926  *
    21       H          0.25184684  *  -1.91237047  *  -0.82292688  *

                             CARTESIAN COORDINATES

   1    C        2.373363266    -0.659168988     0.287498623
   2    C        0.962417735    -0.531540949     0.815499144
   3    C        0.278866747     0.840872733     0.475574855
   4    O       -0.132339895     1.443814473     1.667268171
   5    C       -0.850043255     0.088161501    -0.280394289
   6    O       -1.040190156     0.607170430    -1.537180991
   7    C       -2.072523537    -0.413203353     0.509948251
   8    C       -1.347811125    -1.772421334     0.764768300
   9    C       -0.107266861    -1.288074259    -0.019443444
  10    H        2.433721379    -0.435293763    -0.784873639
  11    H        3.054300268     0.029334794     0.804391604
  12    H        2.759644785    -1.676016254     0.430086162
  13    H        0.911526985    -0.753114204     1.897492743
  14    H        0.860612723     1.540477232    -0.138591815
  15    H       -0.661849699     2.246138223     1.482963162
  16    H       -1.632427901     0.038757599    -2.073094906
  17    H       -2.992591334    -0.485978813    -0.071600762
  18    H       -2.284411552     0.158239834     1.419979557
  19    H       -1.846757293    -2.636106849     0.319598556
  20    H       -1.166168836    -1.994004987     1.819949263
  21    H        0.251846840    -1.912370470    -0.822926877


           Empirical Formula: C7 H12 O2  =    21 atoms



      MOLECULAR POINT GROUP   :   C1  


                  EIGENVALUES  
 -32.04317 -29.48260 -28.93416 -27.32444 -24.40352 -22.73801 -21.05878 -20.19619
 -18.30054 -17.64848 -17.07999 -16.34454 -15.62340 -14.69783 -14.37090 -14.05484
 -13.91639 -13.43262 -13.03983 -12.36416 -11.93717 -11.73239 -11.49702 -11.25000
 -10.36860 -10.00905   2.62099   2.79044   3.16029   3.32518   3.36597   3.52554
   3.61083   4.39215   4.75655   5.12364   5.42774   5.66870   5.72386   5.79349
   5.92387   5.96909   6.02134   6.25650   6.38555   6.45460   6.50433   6.93013


              NET ATOMIC CHARGES AND DIPOLE CONTRIBUTIONS

  ATOM NO.   TYPE          CHARGE      No. of ELECS.   s-Pop       p-Pop       
    1          C          -0.451178        4.4512     1.05174     3.39944
    2          C          -0.113368        4.1134     1.07409     3.03928
    3          C           0.110126        3.8899     1.10759     2.78229
    4          O          -0.543791        6.5438     1.84494     4.69885
    5          C           0.207813        3.7922     1.10392     2.68827
    6          O          -0.533361        6.5334     1.83710     4.69626
    7          C          -0.328944        4.3289     1.07553     3.25342
    8          C          -0.272610        4.2726     1.06690     3.20571
    9          C          -0.216274        4.2163     1.09291     3.12336
   10          H           0.150640        0.8494     0.84936
   11          H           0.152869        0.8471     0.84713
   12          H           0.150149        0.8499     0.84985
   13          H           0.161072        0.8389     0.83893
   14          H           0.138028        0.8620     0.86197
   15          H           0.319049        0.6810     0.68095
   16          H           0.325023        0.6750     0.67498
   17          H           0.144426        0.8556     0.85557
   18          H           0.163100        0.8369     0.83690
   19          H           0.139313        0.8607     0.86069
   20          H           0.148553        0.8514     0.85145
   21          H           0.149366        0.8506     0.85063
 DIPOLE           X         Y         Z       TOTAL
 POINT-CHG.    -0.253    -1.097    -0.569     1.261
 HYBRID        -0.549     0.157    -0.288     0.640
 SUM           -0.802    -0.940    -0.857     1.504


          ATOMIC ORBITAL ELECTRON POPULATIONS

     Atom    s        px        py        pz   
    1  C   1.05174   1.05645   1.17781   1.16517
    2  C   1.07409   0.95744   0.98476   1.09708
    3  C   1.10759   0.97160   0.96521   0.84548
    4  O   1.84494   1.77779   1.53460   1.38646
    5  C   1.10392   0.95230   0.94321   0.79275
    6  O   1.83710   1.75206   1.58602   1.35818
    7  C   1.07553   1.06353   1.04787   1.14202
    8  C   1.06690   1.03341   1.03883   1.13346
    9  C   1.09291   1.00287   1.04680   1.07370
   10  H   0.84936
   11  H   0.84713
   12  H   0.84985
   13  H   0.83893
   14  H   0.86197
   15  H   0.68095
   16  H   0.67498
   17  H   0.85557
   18  H   0.83690
   19  H   0.86069
   20  H   0.85145
   21  H   0.85063

 **********************
 *                    *
 * JOB ENDED NORMALLY *
 *                    *
 **********************



 TOTAL JOB TIME:             1.03 SECONDS

 == MOPAC DONE ==
