 *******************************************************************************
 **                                                                           **
 **                              MOPAC v23.2                                  **
 **                                                                           **
 *******************************************************************************
 **          Digital Object Identifier (DOI): 10.5281/zenodo.6511958          **
 **    Visit the DOI location for information on how to cite this program.    **
 *******************************************************************************

                              PM7 CALCULATION RESULTS

 *******************************************************************************
 *  CALCULATION DONE: (MAX THREADS = 40)             Fri Sep 19 21:49:53 2025  *
 *  PM7        - The PM7 Hamiltonian to be used
 *
 *
 *
 *                 CHARGE ON SYSTEM = +1
 *
 *
 *
 *  1SCF       - DO 1 SCF AND THEN STOP 
 *  T=         - A TIME OF 172800.0 SECONDS REQUESTED
 *  DUMP=N     - RESTART FILE WRITTEN EVERY 7200.0 SECONDS REQUESTED
 *  RELSCF     - DEFAULT SCF CRITERION MULTIPLIED BY 0.0001
 *              (DEFAULT SCF CRITERION = 0.00010)
 *  GRADIENTS  - ALL GRADIENTS TO BE PRINTED
 *  DISP       - PRINT DISPERSION AND HYDROGEN BOND ENERGIES
 *******************************************************************************
PM7 1SCF GRADIENTS DISP RELSCF=0.0001 CHARGE=1
 Title: ASE calculation

   ATOM   CHEMICAL          X               Y               Z
  NUMBER   SYMBOL      (ANGSTROMS)     (ANGSTROMS)     (ANGSTROMS)

     1       C          2.00464482  *   0.35448579  *  -1.07782237  *
     2       N          2.87365562  *   0.71580091  *  -0.07552994  *
     3       N          2.30610638  *   0.79946674  *   1.10294847  *
     4       N          0.98004526  *   0.49533784  *   0.92213866  *
     5       C          0.69414393  *   0.20591957  *  -0.40083537  *
     6       C         -0.74580911  *  -0.05316787  *  -0.09067412  *
     7       C         -1.97890281  *   0.04360488  *  -0.90867411  *
     8       O         -1.40794175  *  -1.21175767  *  -0.51054563  *
     9       C         -0.42775292  *   0.26030938  *   1.42679124  *
    10       H          2.28536161  *   0.21694132  *  -2.12180657  *
    11       H         -2.94049652  *   0.29872401  *  -0.44448205  *
    12       H         -1.93387250  *   0.27252264  *  -1.97958931  *
    13       H         -0.50706979  *  -0.60105110  *   2.12132717  *
    14       H         -0.89147551  *   1.16614843  *   1.86079689  *



          CARTESIAN COORDINATES 

    NO.       ATOM           X           Y           Z

     1         C          2.0046      0.3545     -1.0778
     2         N          2.8737      0.7158     -0.0755
     3         N          2.3061      0.7995      1.1029
     4         N          0.9800      0.4953      0.9221
     5         C          0.6941      0.2059     -0.4008
     6         C         -0.7458     -0.0532     -0.0907
     7         C         -1.9789      0.0436     -0.9087
     8         O         -1.4079     -1.2118     -0.5105
     9         C         -0.4278      0.2603      1.4268
    10         H          2.2854      0.2169     -2.1218
    11         H         -2.9405      0.2987     -0.4445
    12         H         -1.9339      0.2725     -1.9796
    13         H         -0.5071     -0.6011      2.1213
    14         H         -0.8915      1.1661      1.8608

 General Reference for PM7:
 "Optimization of Parameters for Semiempirical Methods VI: More Modifications to the 
 NDDO Approximations and Re-optimization of Parameters", J. J. P. Stewart, J. Mol. Mod., 1:32, 19 (2013)
 https://link.springer.com/article/10.1007/s00894-012-1667-x

           Empirical Formula: C5 H5 N3 O  =    14 atoms



      MOLECULAR POINT GROUP   :   C1  


          UHF CALCULATION, NO. OF ALPHA ELECTRONS =   23
                           NO. OF BETA  ELECTRONS =   22
  SCF CRITERION =    0.1000E-07

 -------------------------------------------------------------------------------
 PM7 1SCF GRADIENTS DISP RELSCF=0.0001 CHARGE=1
 Title: ASE calculation



     1SCF WAS SPECIFIED, SO BFGS WAS NOT USED                 
     SCF FIELD WAS ACHIEVED                                   


                              PM7 CALCULATION
                                                       MOPAC v23.2 Linux
                                                       Fri Sep 19 21:49:54 2025




          FINAL HEAT OF FORMATION =        334.29446 KCAL/MOL =    1398.68801 KJ/MOL

          TOTAL ENERGY            =     -35071.68989 KCAL/MOL = ELECTRONIC ENERGY + CORE-CORE REPULSION
          ENERGY OF ATOMS         =      35407.34440 KCAL/MOL
                              SUM =        335.65451 KCAL/MOL
          DISPERSION ENERGY       =         -1.36005 KCAL/MOL
                              SUM =        334.29446 KCAL/MOL = FINAL HEAT OF FORMATION



          TOTAL ENERGY            =      -1520.85242 EV
          ELECTRONIC ENERGY       =      -6684.36928 EV 
          CORE-CORE REPULSION     =       5163.51686 EV
          COSMO AREA              =        148.72 SQUARE ANGSTROMS
          COSMO VOLUME            =        139.99 CUBIC ANGSTROMS

          GRADIENT NORM           =          1.07118          =       0.28628 PER ATOM
          IONIZATION POTENTIAL    =         15.856789 EV
          ALPHA SOMO LUMO (EV)    =        -15.872 -6.637
          BETA  SOMO LUMO (EV)    =        -15.857 -8.884
          NO. OF ALPHA ELECTRONS  =         23
          NO. OF BETA  ELECTRONS  =         22
          MOLECULAR WEIGHT        =        123.1140         POINT GROUP:  C1  

          MOLECULAR DIMENSIONS (Angstroms)

            Atom       Atom       Distance
            H    11    N     2     5.84076
            H    10    H    13     4.45708
            H    14    O     8     2.63359


          SCF CALCULATIONS        =          1

          WALL-CLOCK TIME         =      1.867 SECONDS
          COMPUTATION TIME        =      0.236 SECONDS

          LARGEST ATOMIC GRADIENTS

          Atom     Label                     Cartesian Gradients           Cartesian Coordinates       |Gradient|
                                           X          Y          Z        X          Y          Z

            11       H                  -0.063     -0.204     -0.339   -2.94050    0.29872   -0.44448      0.401
             5       C                  -0.386     -0.005     -0.102    0.69414    0.20592   -0.40084      0.400
            14       H                   0.359      0.038      0.122   -0.89148    1.16615    1.86080      0.381
             2       N                  -0.243      0.192      0.212    2.87366    0.71580   -0.07553      0.376
             6       C                  -0.236      0.162     -0.088   -0.74581   -0.05317   -0.09067      0.299
             3       N                   0.273      0.024     -0.026    2.30611    0.79947    1.10295      0.276
             8       O                  -0.019      0.030      0.247   -1.40794   -1.21176   -0.51055      0.250
            10       H                  -0.095     -0.203      0.095    2.28536    0.21694   -2.12181      0.243
             1       C                   0.194      0.059     -0.117    2.00464    0.35449   -1.07782      0.234
            13       H                   0.174     -0.011     -0.141   -0.50707   -0.60105    2.12133      0.224



       FINAL  POINT  AND  DERIVATIVES

   PARAMETER     ATOM    TYPE            VALUE        GRADIENT
      1          1  C    CARTESIAN X     2.004645      0.194020  KCAL/ANGSTROM
      2          1  C    CARTESIAN Y     0.354486      0.058974  KCAL/ANGSTROM
      3          1  C    CARTESIAN Z    -1.077822     -0.116833  KCAL/ANGSTROM
      4          2  N    CARTESIAN X     2.873656     -0.243045  KCAL/ANGSTROM
      5          2  N    CARTESIAN Y     0.715801      0.192174  KCAL/ANGSTROM
      6          2  N    CARTESIAN Z    -0.075530      0.212295  KCAL/ANGSTROM
      7          3  N    CARTESIAN X     2.306106      0.273295  KCAL/ANGSTROM
      8          3  N    CARTESIAN Y     0.799467      0.023875  KCAL/ANGSTROM
      9          3  N    CARTESIAN Z     1.102948     -0.025985  KCAL/ANGSTROM
     10          4  N    CARTESIAN X     0.980045     -0.083329  KCAL/ANGSTROM
     11          4  N    CARTESIAN Y     0.495338     -0.165965  KCAL/ANGSTROM
     12          4  N    CARTESIAN Z     0.922139      0.050664  KCAL/ANGSTROM
     13          5  C    CARTESIAN X     0.694144     -0.386170  KCAL/ANGSTROM
     14          5  C    CARTESIAN Y     0.205920     -0.005497  KCAL/ANGSTROM
     15          5  C    CARTESIAN Z    -0.400835     -0.102218  KCAL/ANGSTROM
     16          6  C    CARTESIAN X    -0.745809     -0.236280  KCAL/ANGSTROM
     17          6  C    CARTESIAN Y    -0.053168      0.161728  KCAL/ANGSTROM
     18          6  C    CARTESIAN Z    -0.090674     -0.087681  KCAL/ANGSTROM
     19          7  C    CARTESIAN X    -1.978903      0.081019  KCAL/ANGSTROM
     20          7  C    CARTESIAN Y     0.043605     -0.128653  KCAL/ANGSTROM
     21          7  C    CARTESIAN Z    -0.908674     -0.088481  KCAL/ANGSTROM
     22          8  O    CARTESIAN X    -1.407942     -0.018964  KCAL/ANGSTROM
     23          8  O    CARTESIAN Y    -1.211758      0.029689  KCAL/ANGSTROM
     24          8  O    CARTESIAN Z    -0.510546      0.247168  KCAL/ANGSTROM
     25          9  C    CARTESIAN X    -0.427753      0.026910  KCAL/ANGSTROM
     26          9  C    CARTESIAN Y     0.260309     -0.007475  KCAL/ANGSTROM
     27          9  C    CARTESIAN Z     1.426791      0.174772  KCAL/ANGSTROM
     28         10  H    CARTESIAN X     2.285362     -0.094768  KCAL/ANGSTROM
     29         10  H    CARTESIAN Y     0.216941     -0.203130  KCAL/ANGSTROM
     30         10  H    CARTESIAN Z    -2.121807      0.095043  KCAL/ANGSTROM
     31         11  H    CARTESIAN X    -2.940497     -0.063169  KCAL/ANGSTROM
     32         11  H    CARTESIAN Y     0.298724     -0.204273  KCAL/ANGSTROM
     33         11  H    CARTESIAN Z    -0.444482     -0.339296  KCAL/ANGSTROM
     34         12  H    CARTESIAN X    -1.933872      0.017923  KCAL/ANGSTROM
     35         12  H    CARTESIAN Y     0.272523      0.221106  KCAL/ANGSTROM
     36         12  H    CARTESIAN Z    -1.979589     -0.000136  KCAL/ANGSTROM
     37         13  H    CARTESIAN X    -0.507070      0.173547  KCAL/ANGSTROM
     38         13  H    CARTESIAN Y    -0.601051     -0.011000  KCAL/ANGSTROM
     39         13  H    CARTESIAN Z     2.121327     -0.141176  KCAL/ANGSTROM
     40         14  H    CARTESIAN X    -0.891476      0.359008  KCAL/ANGSTROM
     41         14  H    CARTESIAN Y     1.166148      0.038443  KCAL/ANGSTROM
     42         14  H    CARTESIAN Z     1.860797      0.121858  KCAL/ANGSTROM




   ATOM   CHEMICAL          X               Y               Z
  NUMBER   SYMBOL      (ANGSTROMS)     (ANGSTROMS)     (ANGSTROMS)

     1       C          2.00464482  *   0.35448579  *  -1.07782237  *
     2       N          2.87365562  *   0.71580091  *  -0.07552994  *
     3       N          2.30610638  *   0.79946674  *   1.10294847  *
     4       N          0.98004526  *   0.49533784  *   0.92213866  *
     5       C          0.69414393  *   0.20591957  *  -0.40083537  *
     6       C         -0.74580911  *  -0.05316787  *  -0.09067412  *
     7       C         -1.97890281  *   0.04360488  *  -0.90867411  *
     8       O         -1.40794175  *  -1.21175767  *  -0.51054563  *
     9       C         -0.42775292  *   0.26030938  *   1.42679124  *
    10       H          2.28536161  *   0.21694132  *  -2.12180657  *
    11       H         -2.94049652  *   0.29872401  *  -0.44448205  *
    12       H         -1.93387250  *   0.27252264  *  -1.97958931  *
    13       H         -0.50706979  *  -0.60105110  *   2.12132717  *
    14       H         -0.89147551  *   1.16614843  *   1.86079689  *

                             CARTESIAN COORDINATES

   1    C        2.004644821     0.354485788    -1.077822368
   2    N        2.873655620     0.715800909    -0.075529936
   3    N        2.306106378     0.799466740     1.102948474
   4    N        0.980045262     0.495337839     0.922138662
   5    C        0.694143925     0.205919574    -0.400835367
   6    C       -0.745809107    -0.053167873    -0.090674123
   7    C       -1.978902809     0.043604876    -0.908674114
   8    O       -1.407941751    -1.211757670    -0.510545635
   9    C       -0.427752920     0.260309378     1.426791240
  10    H        2.285361611     0.216941322    -2.121806569
  11    H       -2.940496521     0.298724009    -0.444482051
  12    H       -1.933872497     0.272522642    -1.979589308
  13    H       -0.507069790    -0.601051097     2.121327169
  14    H       -0.891475514     1.166148433     1.860796894


           Empirical Formula: C5 H5 N3 O  =    14 atoms



      MOLECULAR POINT GROUP   :   C1  


          ALPHA EIGENVALUES  
 -47.72478 -41.22711 -37.67255 -35.28721 -31.67746 -29.58044 -28.58507 -27.12820
 -24.88376 -23.69598 -23.10071 -22.24986 -21.48840 -20.57990 -20.29782 -19.65791
 -18.79361 -18.52279 -17.93014 -17.32150 -16.81827 -16.67926 -15.87211  -6.63712
  -5.66321  -5.46622  -4.46568  -3.59068  -3.43491  -3.23260  -3.07045  -2.87391
  -2.57687  -1.71219  -1.61281  -0.51071  -0.27046  -0.21796   0.03472   0.54222
   0.73544


           BETA EIGENVALUES 
 -47.59960 -41.45528 -37.62503 -34.89772 -31.55471 -29.51772 -28.53054 -26.97190
 -24.81291 -23.59797 -22.67676 -22.19706 -21.41731 -20.25721 -20.16062 -19.56860
 -18.79487 -18.08543 -17.65855 -17.40206 -17.22629 -15.85679  -8.88408  -5.62393
  -5.53684  -4.71051  -4.30987  -3.55384  -3.37761  -3.14128  -3.01091  -2.80009
  -2.50209  -1.66716  -1.57881  -0.42431  -0.23003  -0.16606   0.02847   0.54893
   0.73959


              NET ATOMIC CHARGES AND DIPOLE CONTRIBUTIONS

  ATOM NO.   TYPE          CHARGE      No. of ELECS.   s-Pop       p-Pop       
    1          C           0.128204        3.8718     1.16821     2.70359
    2          N          -0.156427        5.1564     1.77339     3.38304
    3          N           0.246703        4.7533     1.81830     2.93500
    4          N          -0.235768        5.2358     1.61080     3.62497
    5          C           0.154621        3.8454     1.19727     2.64811
    6          C           0.021921        3.9781     1.07563     2.90245
    7          C          -0.059045        4.0590     1.10826     2.95078
    8          O          -0.176851        6.1769     1.92588     4.25097
    9          C          -0.004673        4.0047     1.12447     2.88020
   10          H           0.258584        0.7414     0.74142
   11          H           0.202407        0.7976     0.79759
   12          H           0.194590        0.8054     0.80541
   13          H           0.216566        0.7834     0.78343
   14          H           0.209167        0.7908     0.79083
 DIPOLE           X         Y         Z       TOTAL
 POINT-CHG.    -2.467     1.811    -1.066     3.240
 HYBRID        -0.169    -0.680    -0.233     0.738
 SUM           -2.636     1.131    -1.298     3.149


          ATOMIC ORBITAL ELECTRON POPULATIONS

     Atom    s        px        py        pz   
    1  C   1.16821   0.84734   0.80761   1.04864
    2  N   1.77339   1.26362   1.14967   0.96975
    3  N   1.81830   0.82812   0.95965   1.14724
    4  N   1.61080   1.10972   1.36171   1.15354
    5  C   1.19727   0.99345   0.78830   0.86636
    6  C   1.07563   0.89524   1.04191   0.96530
    7  C   1.10826   0.98887   0.85585   1.10606
    8  O   1.92588   1.46716   1.05005   1.73375
    9  C   1.12447   0.68211   1.18138   1.01672
   10  H   0.74142
   11  H   0.79759
   12  H   0.80541
   13  H   0.78343
   14  H   0.79083


                    (SZ)    =    0.500000
                    (S**2)  =    0.848123


          ATOMIC ORBITAL SPIN POPULATIONS

    Atom   Total    s     px     py     pz   
         Atomic
    1  C  0.5373  0.013  0.030  0.459  0.034
    2  N -0.2934 -0.003 -0.043 -0.212 -0.036
    3  N  0.5534  0.006  0.046  0.455  0.047
    4  N -0.2092 -0.012 -0.027 -0.147 -0.024
    5  C  0.3960  0.008  0.022  0.342  0.024
    6  C -0.0298 -0.003 -0.011 -0.012 -0.003
    7  C  0.0278  0.001  0.015  0.007  0.005
    8  O  0.0282 -0.001  0.012  0.018 -0.001
    9  C  0.0119  0.001  0.009  0.000  0.002
   10  H -0.0144 -0.014
   11  H  0.0002  0.000
   12  H -0.0006 -0.001
   13  H -0.0038 -0.004
   14  H -0.0037 -0.004

 **********************
 *                    *
 * JOB ENDED NORMALLY *
 *                    *
 **********************



 TOTAL JOB TIME:             2.56 SECONDS

 == MOPAC DONE ==
