 *******************************************************************************
 **                                                                           **
 **                              MOPAC v23.2                                  **
 **                                                                           **
 *******************************************************************************
 **          Digital Object Identifier (DOI): 10.5281/zenodo.6511958          **
 **    Visit the DOI location for information on how to cite this program.    **
 *******************************************************************************

                              PM7 CALCULATION RESULTS

 *******************************************************************************
 *  CALCULATION DONE: (MAX THREADS = 40)             Fri Sep 19 21:41:23 2025  *
 *  PM7        - The PM7 Hamiltonian to be used
 *  1SCF       - DO 1 SCF AND THEN STOP 
 *  T=         - A TIME OF 172800.0 SECONDS REQUESTED
 *  DUMP=N     - RESTART FILE WRITTEN EVERY 7200.0 SECONDS REQUESTED
 *  RELSCF     - DEFAULT SCF CRITERION MULTIPLIED BY 0.0001
 *              (DEFAULT SCF CRITERION = 0.00010)
 *  GRADIENTS  - ALL GRADIENTS TO BE PRINTED
 *  DISP       - PRINT DISPERSION AND HYDROGEN BOND ENERGIES
 *******************************************************************************
PM7 1SCF GRADIENTS DISP RELSCF=0.0001
 Title: ASE calculation

   ATOM   CHEMICAL          X               Y               Z
  NUMBER   SYMBOL      (ANGSTROMS)     (ANGSTROMS)     (ANGSTROMS)

     1       C         -2.71010990  *   0.55009109  *  -0.08422464  *
     2       C         -1.33976727  *   0.40853766  *  -0.74879707  *
     3       C         -0.58755273  *  -0.78159472  *  -0.18168960  *
     4       C          0.06251690  *  -0.62312864  *   1.23756028  *
     5       C          1.42919172  *  -1.08122911  *   0.68212946  *
     6       C          2.43740450  *  -0.02202570  *   0.20311937  *
     7       C          1.80192261  *   1.22776011  *  -0.35182604  *
     8       C          1.79438350  *  -0.01951064  *  -1.20776036  *
     9       C          0.80160115  *  -1.11663048  *  -0.78380419  *
    10       H         -2.61018317  *   0.74168298  *   0.99070075  *
    11       H         -3.27896608  *   1.37870024  *  -0.51962161  *
    12       H         -3.31036406  *  -0.35955315  *  -0.20188653  *
    13       H         -0.76184710  *   1.34448850  *  -0.62463106  *
    14       H         -1.45286801  *   0.28353383  *  -1.84419293  *
    15       H         -1.24173136  *  -1.67685548  *  -0.21587228  *
    16       H          0.04727502  *   0.39456403  *   1.63349297  *
    17       H         -0.35996189  *  -1.28501445  *   1.99554560  *
    18       H          1.86167363  *  -1.97102543  *   1.12210926  *
    19       H          3.46516683  *  -0.07506528  *   0.49599097  *
    20       H          0.89002572  *   1.62950191  *   0.07982709  *
    21       H          2.45331619  *   2.04590516  *  -0.65463061  *
    22       H          2.24980484  *  -0.05230063  *  -2.17631809  *
    23       H          0.85231108  *  -2.01781731  *  -1.38422704  *



          CARTESIAN COORDINATES 

    NO.       ATOM           X           Y           Z

     1         C         -2.7101      0.5501     -0.0842
     2         C         -1.3398      0.4085     -0.7488
     3         C         -0.5876     -0.7816     -0.1817
     4         C          0.0625     -0.6231      1.2376
     5         C          1.4292     -1.0812      0.6821
     6         C          2.4374     -0.0220      0.2031
     7         C          1.8019      1.2278     -0.3518
     8         C          1.7944     -0.0195     -1.2078
     9         C          0.8016     -1.1166     -0.7838
    10         H         -2.6102      0.7417      0.9907
    11         H         -3.2790      1.3787     -0.5196
    12         H         -3.3104     -0.3596     -0.2019
    13         H         -0.7618      1.3445     -0.6246
    14         H         -1.4529      0.2835     -1.8442
    15         H         -1.2417     -1.6769     -0.2159
    16         H          0.0473      0.3946      1.6335
    17         H         -0.3600     -1.2850      1.9955
    18         H          1.8617     -1.9710      1.1221
    19         H          3.4652     -0.0751      0.4960
    20         H          0.8900      1.6295      0.0798
    21         H          2.4533      2.0459     -0.6546
    22         H          2.2498     -0.0523     -2.1763
    23         H          0.8523     -2.0178     -1.3842

 General Reference for PM7:
 "Optimization of Parameters for Semiempirical Methods VI: More Modifications to the 
 NDDO Approximations and Re-optimization of Parameters", J. J. P. Stewart, J. Mol. Mod., 1:32, 19 (2013)
 https://link.springer.com/article/10.1007/s00894-012-1667-x

           Empirical Formula: C9 H14  =    23 atoms



      MOLECULAR POINT GROUP   :   C1  


      RHF CALCULATION, NO. OF DOUBLY OCCUPIED LEVELS = 25

  SCF CRITERION =    0.1000E-07

 -------------------------------------------------------------------------------
 PM7 1SCF GRADIENTS DISP RELSCF=0.0001
 Title: ASE calculation



     1SCF WAS SPECIFIED, SO BFGS WAS NOT USED                 
     SCF FIELD WAS ACHIEVED                                   


                              PM7 CALCULATION
                                                       MOPAC v23.2 Linux
                                                       Fri Sep 19 21:41:23 2025




          FINAL HEAT OF FORMATION =         47.98751 KCAL/MOL =     200.77976 KJ/MOL

          TOTAL ENERGY            =     -29802.28148 KCAL/MOL = ELECTRONIC ENERGY + CORE-CORE REPULSION
          ENERGY OF ATOMS         =      29852.41387 KCAL/MOL
                              SUM =         50.13239 KCAL/MOL
          DISPERSION ENERGY       =         -2.14487 KCAL/MOL
                              SUM =         47.98751 KCAL/MOL = FINAL HEAT OF FORMATION



          TOTAL ENERGY            =      -1292.34924 EV
          ELECTRONIC ENERGY       =      -7342.75601 EV 
          CORE-CORE REPULSION     =       6050.40677 EV
          COSMO AREA              =        167.99 SQUARE ANGSTROMS
          COSMO VOLUME            =        172.29 CUBIC ANGSTROMS

          GRADIENT NORM           =          1.33667          =       0.27871 PER ATOM
          IONIZATION POTENTIAL    =          9.836416 EV
          HOMO LUMO ENERGIES (EV) =         -9.836  2.090
          NO. OF FILLED LEVELS    =         25
          MOLECULAR WEIGHT        =        122.2096         POINT GROUP:  C1  

          MOLECULAR DIMENSIONS (Angstroms)

            Atom       Atom       Distance
            H    19    H    11     6.97339
            H    21    H    17     4.83136
            H    23    H    16     3.85159


          SCF CALCULATIONS        =          1

          WALL-CLOCK TIME         =      0.758 SECONDS
          COMPUTATION TIME        =      0.628 SECONDS

          LARGEST ATOMIC GRADIENTS

          Atom     Label                     Cartesian Gradients           Cartesian Coordinates       |Gradient|
                                           X          Y          Z        X          Y          Z

            15       H                  -0.306     -0.032     -0.282   -1.24173   -1.67686   -0.21587      0.418
            19       H                  -0.300      0.279      0.070    3.46517   -0.07507    0.49599      0.415
            22       H                  -0.275      0.245      0.133    2.24980   -0.05230   -2.17632      0.391
            23       H                   0.241     -0.030      0.291    0.85231   -2.01782   -1.38423      0.379
            12       H                  -0.071     -0.355      0.085   -3.31036   -0.35955   -0.20189      0.371
            14       H                   0.313      0.167     -0.060   -1.45287    0.28353   -1.84419      0.360
            13       H                   0.338      0.017      0.078   -0.76185    1.34449   -0.62463      0.347
            16       H                   0.202      0.245     -0.120    0.04728    0.39456    1.63349      0.340
             6       C                   0.085     -0.268     -0.171    2.43740   -0.02203    0.20312      0.329
            10       H                   0.113      0.114      0.247   -2.61018    0.74168    0.99070      0.295



       FINAL  POINT  AND  DERIVATIVES

   PARAMETER     ATOM    TYPE            VALUE        GRADIENT
      1          1  C    CARTESIAN X    -2.710110     -0.147051  KCAL/ANGSTROM
      2          1  C    CARTESIAN Y     0.550091     -0.085344  KCAL/ANGSTROM
      3          1  C    CARTESIAN Z    -0.084225      0.136866  KCAL/ANGSTROM
      4          2  C    CARTESIAN X    -1.339767     -0.024353  KCAL/ANGSTROM
      5          2  C    CARTESIAN Y     0.408538      0.111821  KCAL/ANGSTROM
      6          2  C    CARTESIAN Z    -0.748797      0.040047  KCAL/ANGSTROM
      7          3  C    CARTESIAN X    -0.587553     -0.109692  KCAL/ANGSTROM
      8          3  C    CARTESIAN Y    -0.781595     -0.031359  KCAL/ANGSTROM
      9          3  C    CARTESIAN Z    -0.181690     -0.146496  KCAL/ANGSTROM
     10          4  C    CARTESIAN X     0.062517     -0.085965  KCAL/ANGSTROM
     11          4  C    CARTESIAN Y    -0.623129      0.031098  KCAL/ANGSTROM
     12          4  C    CARTESIAN Z     1.237560     -0.005731  KCAL/ANGSTROM
     13          5  C    CARTESIAN X     1.429192     -0.118667  KCAL/ANGSTROM
     14          5  C    CARTESIAN Y    -1.081229     -0.224565  KCAL/ANGSTROM
     15          5  C    CARTESIAN Z     0.682129      0.015740  KCAL/ANGSTROM
     16          6  C    CARTESIAN X     2.437404      0.084629  KCAL/ANGSTROM
     17          6  C    CARTESIAN Y    -0.022026     -0.268023  KCAL/ANGSTROM
     18          6  C    CARTESIAN Z     0.203119     -0.170938  KCAL/ANGSTROM
     19          7  C    CARTESIAN X     1.801923      0.021624  KCAL/ANGSTROM
     20          7  C    CARTESIAN Y     1.227760      0.066166  KCAL/ANGSTROM
     21          7  C    CARTESIAN Z    -0.351826      0.091929  KCAL/ANGSTROM
     22          8  C    CARTESIAN X     1.794383      0.169423  KCAL/ANGSTROM
     23          8  C    CARTESIAN Y    -0.019511     -0.007820  KCAL/ANGSTROM
     24          8  C    CARTESIAN Z    -1.207760      0.016047  KCAL/ANGSTROM
     25          9  C    CARTESIAN X     0.801601     -0.097416  KCAL/ANGSTROM
     26          9  C    CARTESIAN Y    -1.116630      0.023183  KCAL/ANGSTROM
     27          9  C    CARTESIAN Z    -0.783804     -0.037031  KCAL/ANGSTROM
     28         10  H    CARTESIAN X    -2.610183      0.112612  KCAL/ANGSTROM
     29         10  H    CARTESIAN Y     0.741683      0.114329  KCAL/ANGSTROM
     30         10  H    CARTESIAN Z     0.990701      0.247065  KCAL/ANGSTROM
     31         11  H    CARTESIAN X    -3.278966     -0.148499  KCAL/ANGSTROM
     32         11  H    CARTESIAN Y     1.378700     -0.100547  KCAL/ANGSTROM
     33         11  H    CARTESIAN Z    -0.519622     -0.164520  KCAL/ANGSTROM
     34         12  H    CARTESIAN X    -3.310364     -0.070805  KCAL/ANGSTROM
     35         12  H    CARTESIAN Y    -0.359553     -0.354712  KCAL/ANGSTROM
     36         12  H    CARTESIAN Z    -0.201887      0.084632  KCAL/ANGSTROM
     37         13  H    CARTESIAN X    -0.761847      0.337968  KCAL/ANGSTROM
     38         13  H    CARTESIAN Y     1.344488      0.016771  KCAL/ANGSTROM
     39         13  H    CARTESIAN Z    -0.624631      0.078311  KCAL/ANGSTROM
     40         14  H    CARTESIAN X    -1.452868      0.313024  KCAL/ANGSTROM
     41         14  H    CARTESIAN Y     0.283534      0.166677  KCAL/ANGSTROM
     42         14  H    CARTESIAN Z    -1.844193     -0.059586  KCAL/ANGSTROM
     43         15  H    CARTESIAN X    -1.241731     -0.305990  KCAL/ANGSTROM
     44         15  H    CARTESIAN Y    -1.676855     -0.032007  KCAL/ANGSTROM
     45         15  H    CARTESIAN Z    -0.215872     -0.282500  KCAL/ANGSTROM
     46         16  H    CARTESIAN X     0.047275      0.202487  KCAL/ANGSTROM
     47         16  H    CARTESIAN Y     0.394564      0.244888  KCAL/ANGSTROM
     48         16  H    CARTESIAN Z     1.633493     -0.120286  KCAL/ANGSTROM
     49         17  H    CARTESIAN X    -0.359962     -0.129365  KCAL/ANGSTROM
     50         17  H    CARTESIAN Y    -1.285014      0.047112  KCAL/ANGSTROM
     51         17  H    CARTESIAN Z     1.995546      0.104907  KCAL/ANGSTROM
     52         18  H    CARTESIAN X     1.861674      0.147088  KCAL/ANGSTROM
     53         18  H    CARTESIAN Y    -1.971025     -0.122341  KCAL/ANGSTROM
     54         18  H    CARTESIAN Z     1.122109     -0.089579  KCAL/ANGSTROM
     55         19  H    CARTESIAN X     3.465167     -0.299893  KCAL/ANGSTROM
     56         19  H    CARTESIAN Y    -0.075065      0.278652  KCAL/ANGSTROM
     57         19  H    CARTESIAN Z     0.495991      0.069595  KCAL/ANGSTROM
     58         20  H    CARTESIAN X     0.890026      0.074288  KCAL/ANGSTROM
     59         20  H    CARTESIAN Y     1.629502      0.091830  KCAL/ANGSTROM
     60         20  H    CARTESIAN Z     0.079827     -0.087348  KCAL/ANGSTROM
     61         21  H    CARTESIAN X     2.453316      0.108700  KCAL/ANGSTROM
     62         21  H    CARTESIAN Y     2.045905     -0.181002  KCAL/ANGSTROM
     63         21  H    CARTESIAN Z    -0.654631     -0.145103  KCAL/ANGSTROM
     64         22  H    CARTESIAN X     2.249805     -0.274701  KCAL/ANGSTROM
     65         22  H    CARTESIAN Y    -0.052301      0.244910  KCAL/ANGSTROM
     66         22  H    CARTESIAN Z    -2.176318      0.132575  KCAL/ANGSTROM
     67         23  H    CARTESIAN X     0.852311      0.240557  KCAL/ANGSTROM
     68         23  H    CARTESIAN Y    -2.017817     -0.029720  KCAL/ANGSTROM
     69         23  H    CARTESIAN Z    -1.384227      0.291403  KCAL/ANGSTROM




   ATOM   CHEMICAL          X               Y               Z
  NUMBER   SYMBOL      (ANGSTROMS)     (ANGSTROMS)     (ANGSTROMS)

     1       C         -2.71010990  *   0.55009109  *  -0.08422464  *
     2       C         -1.33976727  *   0.40853766  *  -0.74879707  *
     3       C         -0.58755273  *  -0.78159472  *  -0.18168960  *
     4       C          0.06251690  *  -0.62312864  *   1.23756028  *
     5       C          1.42919172  *  -1.08122911  *   0.68212946  *
     6       C          2.43740450  *  -0.02202570  *   0.20311937  *
     7       C          1.80192261  *   1.22776011  *  -0.35182604  *
     8       C          1.79438350  *  -0.01951064  *  -1.20776036  *
     9       C          0.80160115  *  -1.11663048  *  -0.78380419  *
    10       H         -2.61018317  *   0.74168298  *   0.99070075  *
    11       H         -3.27896608  *   1.37870024  *  -0.51962161  *
    12       H         -3.31036406  *  -0.35955315  *  -0.20188653  *
    13       H         -0.76184710  *   1.34448850  *  -0.62463106  *
    14       H         -1.45286801  *   0.28353383  *  -1.84419293  *
    15       H         -1.24173136  *  -1.67685548  *  -0.21587228  *
    16       H          0.04727502  *   0.39456403  *   1.63349297  *
    17       H         -0.35996189  *  -1.28501445  *   1.99554560  *
    18       H          1.86167363  *  -1.97102543  *   1.12210926  *
    19       H          3.46516683  *  -0.07506528  *   0.49599097  *
    20       H          0.89002572  *   1.62950191  *   0.07982709  *
    21       H          2.45331619  *   2.04590516  *  -0.65463061  *
    22       H          2.24980484  *  -0.05230063  *  -2.17631809  *
    23       H          0.85231108  *  -2.01781731  *  -1.38422704  *

                             CARTESIAN COORDINATES

   1    C       -2.710109903     0.550091086    -0.084224644
   2    C       -1.339767274     0.408537660    -0.748797070
   3    C       -0.587552726    -0.781594717    -0.181689600
   4    C        0.062516898    -0.623128640     1.237560278
   5    C        1.429191724    -1.081229108     0.682129460
   6    C        2.437404495    -0.022025699     0.203119373
   7    C        1.801922609     1.227760111    -0.351826040
   8    C        1.794383499    -0.019510644    -1.207760357
   9    C        0.801601151    -1.116630484    -0.783804193
  10    H       -2.610183171     0.741682976     0.990700746
  11    H       -3.278966075     1.378700238    -0.519621609
  12    H       -3.310364064    -0.359553153    -0.201886530
  13    H       -0.761847104     1.344488499    -0.624631064
  14    H       -1.452868010     0.283533828    -1.844192927
  15    H       -1.241731356    -1.676855482    -0.215872283
  16    H        0.047275016     0.394564031     1.633492972
  17    H       -0.359961891    -1.285014449     1.995545596
  18    H        1.861673632    -1.971025432     1.122109261
  19    H        3.465166827    -0.075065284     0.495990971
  20    H        0.890025722     1.629501908     0.079827087
  21    H        2.453316190     2.045905162    -0.654630606
  22    H        2.249804841    -0.052300629    -2.176318087
  23    H        0.852311083    -2.017817313    -1.384227044


           Empirical Formula: C9 H14  =    23 atoms



      MOLECULAR POINT GROUP   :   C1  


                  EIGENVALUES  
 -32.65344 -28.50691 -26.71705 -23.39032 -23.13541 -20.95022 -19.65686 -19.40973
 -17.87951 -16.99511 -15.84070 -15.57161 -14.87207 -14.02866 -13.91098 -13.33867
 -13.05591 -12.65089 -12.35034 -11.89862 -11.49321 -10.95053 -10.89244 -10.75601
  -9.83642   2.09012   3.08307   3.63537   3.67701   3.72809   3.82999   4.42847
   4.60897   4.65834   5.06357   5.46916   5.63981   5.73103   5.86772   5.96026
   6.10053   6.15078   6.24939   6.28386   6.31850   6.40792   6.42821   6.71226
   6.89935   7.06879


              NET ATOMIC CHARGES AND DIPOLE CONTRIBUTIONS

  ATOM NO.   TYPE          CHARGE      No. of ELECS.   s-Pop       p-Pop       
    1          C          -0.436379        4.4364     1.05209     3.38429
    2          C          -0.265074        4.2651     1.05431     3.21077
    3          C          -0.107087        4.1071     1.07202     3.03506
    4          C          -0.296467        4.2965     1.07176     3.22471
    5          C          -0.127009        4.1270     1.08046     3.04655
    6          C          -0.180306        4.1803     1.06456     3.11575
    7          C          -0.313891        4.3139     1.05457     3.25932
    8          C          -0.176734        4.1767     1.06375     3.11298
    9          C          -0.149654        4.1497     1.08512     3.06453
   10          H           0.143662        0.8563     0.85634
   11          H           0.141451        0.8585     0.85855
   12          H           0.142744        0.8573     0.85726
   13          H           0.142610        0.8574     0.85739
   14          H           0.142513        0.8575     0.85749
   15          H           0.136567        0.8634     0.86343
   16          H           0.148157        0.8518     0.85184
   17          H           0.138667        0.8613     0.86133
   18          H           0.142555        0.8574     0.85745
   19          H           0.157251        0.8427     0.84275
   20          H           0.163327        0.8367     0.83667
   21          H           0.155305        0.8447     0.84470
   22          H           0.156241        0.8438     0.84376
   23          H           0.141554        0.8584     0.85845
 DIPOLE           X         Y         Z       TOTAL
 POINT-CHG.    -0.347    -0.108    -0.017     0.364
 HYBRID         0.084     0.125     0.024     0.153
 SUM           -0.263     0.017     0.007     0.263


          ATOMIC ORBITAL ELECTRON POPULATIONS

     Atom    s        px        py        pz   
    1  C   1.05209   1.06331   1.17079   1.15020
    2  C   1.05431   1.01769   1.08246   1.11063
    3  C   1.07202   0.99055   1.06140   0.98312
    4  C   1.07176   1.02250   1.15711   1.04510
    5  C   1.08046   0.97871   1.05458   1.01325
    6  C   1.06456   1.07000   1.02384   1.02191
    7  C   1.05457   1.15635   0.99109   1.11188
    8  C   1.06375   1.08235   1.02068   1.00995
    9  C   1.08512   0.99345   1.05661   1.01448
   10  H   0.85634
   11  H   0.85855
   12  H   0.85726
   13  H   0.85739
   14  H   0.85749
   15  H   0.86343
   16  H   0.85184
   17  H   0.86133
   18  H   0.85745
   19  H   0.84275
   20  H   0.83667
   21  H   0.84470
   22  H   0.84376
   23  H   0.85845

 **********************
 *                    *
 * JOB ENDED NORMALLY *
 *                    *
 **********************



 TOTAL JOB TIME:             1.35 SECONDS

 == MOPAC DONE ==
