 *******************************************************************************
 **                                                                           **
 **                              MOPAC v23.2                                  **
 **                                                                           **
 *******************************************************************************
 **          Digital Object Identifier (DOI): 10.5281/zenodo.6511958          **
 **    Visit the DOI location for information on how to cite this program.    **
 *******************************************************************************

                              PM7 CALCULATION RESULTS

 *******************************************************************************
 *  CALCULATION DONE: (MAX THREADS = 40)             Fri Sep 19 21:39:23 2025  *
 *  PM7        - The PM7 Hamiltonian to be used
 *
 *
 *
 *                 CHARGE ON SYSTEM = +1
 *
 *
 *
 *  1SCF       - DO 1 SCF AND THEN STOP 
 *  T=         - A TIME OF 172800.0 SECONDS REQUESTED
 *  DUMP=N     - RESTART FILE WRITTEN EVERY 7200.0 SECONDS REQUESTED
 *  RELSCF     - DEFAULT SCF CRITERION MULTIPLIED BY 0.0001
 *              (DEFAULT SCF CRITERION = 0.00010)
 *  GRADIENTS  - ALL GRADIENTS TO BE PRINTED
 *  DISP       - PRINT DISPERSION AND HYDROGEN BOND ENERGIES
 *******************************************************************************
PM7 1SCF GRADIENTS DISP RELSCF=0.0001 CHARGE=1
 Title: ASE calculation

   ATOM   CHEMICAL          X               Y               Z
  NUMBER   SYMBOL      (ANGSTROMS)     (ANGSTROMS)     (ANGSTROMS)

     1       O         -0.16489598  *   0.68208842  *  -2.02030856  *
     2       C          0.04110063  *   0.17189115  *  -0.99522959  *
     3       C          0.96096427  *  -0.75455809  *  -0.34181059  *
     4       C          2.21157577  *  -0.25738993  *   0.31081498  *
     5       O          1.06486060  *  -0.65007458  *   1.07607863  *
     6       C         -1.28045288  *   0.68320017  *   0.24467299  *
     7       O         -0.57429706  *   1.39639306  *   1.07754120  *
     8       C         -2.59874980  *   0.99989204  *  -0.33383313  *
     9       C         -2.32690866  *  -0.35397765  *   0.33669336  *
    10       H          0.89085725  *  -1.79611132  *  -0.72839563  *
    11       H          3.08201263  *  -0.92291190  *   0.40130407  *
    12       H          2.46524152  *   0.80540278  *   0.33944241  *
    13       H         -0.04072533  *   0.80638438  *   1.73317123  *
    14       H         -3.23631302  *   1.75316638  *   0.15454360  *
    15       H         -2.78090039  *   1.05112174  *  -1.41174707  *
    16       H         -2.76492232  *  -0.59799896  *   1.31516170  *
    17       H         -2.33216547  *  -1.26451997  *  -0.26707385  *



          CARTESIAN COORDINATES 

    NO.       ATOM           X           Y           Z

     1         O         -0.1649      0.6821     -2.0203
     2         C          0.0411      0.1719     -0.9952
     3         C          0.9610     -0.7546     -0.3418
     4         C          2.2116     -0.2574      0.3108
     5         O          1.0649     -0.6501      1.0761
     6         C         -1.2805      0.6832      0.2447
     7         O         -0.5743      1.3964      1.0775
     8         C         -2.5987      0.9999     -0.3338
     9         C         -2.3269     -0.3540      0.3367
    10         H          0.8909     -1.7961     -0.7284
    11         H          3.0820     -0.9229      0.4013
    12         H          2.4652      0.8054      0.3394
    13         H         -0.0407      0.8064      1.7332
    14         H         -3.2363      1.7532      0.1545
    15         H         -2.7809      1.0511     -1.4117
    16         H         -2.7649     -0.5980      1.3152
    17         H         -2.3322     -1.2645     -0.2671

 General Reference for PM7:
 "Optimization of Parameters for Semiempirical Methods VI: More Modifications to the 
 NDDO Approximations and Re-optimization of Parameters", J. J. P. Stewart, J. Mol. Mod., 1:32, 19 (2013)
 https://link.springer.com/article/10.1007/s00894-012-1667-x

           Empirical Formula: C6 H8 O3  =    17 atoms



      MOLECULAR POINT GROUP   :   C1  


          UHF CALCULATION, NO. OF ALPHA ELECTRONS =   25
                           NO. OF BETA  ELECTRONS =   24
  SCF CRITERION =    0.1000E-07

 -------------------------------------------------------------------------------
 PM7 1SCF GRADIENTS DISP RELSCF=0.0001 CHARGE=1
 Title: ASE calculation



     1SCF WAS SPECIFIED, SO BFGS WAS NOT USED                 
     SCF FIELD WAS ACHIEVED                                   


                              PM7 CALCULATION
                                                       MOPAC v23.2 Linux
                                                       Fri Sep 19 21:39:23 2025




          FINAL HEAT OF FORMATION =        152.31656 KCAL/MOL =     637.29248 KJ/MOL

          TOTAL ENERGY            =     -39642.85258 KCAL/MOL = ELECTRONIC ENERGY + CORE-CORE REPULSION
          ENERGY OF ATOMS         =      39797.54792 KCAL/MOL
                              SUM =        154.69534 KCAL/MOL
          DISPERSION ENERGY       =         -1.56583 KCAL/MOL
          H-BOND ENERGY           =         -0.81295 KCAL/MOL
                              SUM =        152.31656 KCAL/MOL = FINAL HEAT OF FORMATION



          TOTAL ENERGY            =      -1719.07679 EV
          ELECTRONIC ENERGY       =      -7708.18308 EV 
          CORE-CORE REPULSION     =       5989.10629 EV
          COSMO AREA              =        156.16 SQUARE ANGSTROMS
          COSMO VOLUME            =        154.04 CUBIC ANGSTROMS

          GRADIENT NORM           =          1.02451          =       0.24848 PER ATOM
          IONIZATION POTENTIAL    =         14.952550 EV
          ALPHA SOMO LUMO (EV)    =        -14.953 -5.524
          BETA  SOMO LUMO (EV)    =        -16.008 -7.468
          NO. OF ALPHA ELECTRONS  =         25
          NO. OF BETA  ELECTRONS  =         24
          MOLECULAR WEIGHT        =        128.1274         POINT GROUP:  C1  

          MOLECULAR DIMENSIONS (Angstroms)

            Atom       Atom       Distance
            H    14    H    11     6.86611
            O     1    H    16     4.04694
            H    12    H    17     3.43266


          SCF CALCULATIONS        =          1

          WALL-CLOCK TIME         =      0.594 SECONDS
          COMPUTATION TIME        =      0.725 SECONDS

          LARGEST ATOMIC GRADIENTS

          Atom     Label                     Cartesian Gradients           Cartesian Coordinates       |Gradient|
                                           X          Y          Z        X          Y          Z

             6       C                  -0.252     -0.073      0.258   -1.28045    0.68320    0.24467      0.368
            16       H                   0.301     -0.154      0.085   -2.76492   -0.59800    1.31516      0.348
            12       H                  -0.116      0.206     -0.237    2.46524    0.80540    0.33944      0.335
            15       H                   0.046      0.260     -0.185   -2.78090    1.05112   -1.41175      0.322
            11       H                  -0.025     -0.300      0.062    3.08201   -0.92291    0.40130      0.307
             2       C                  -0.129     -0.075      0.224    0.04110    0.17189   -0.99523      0.269
            10       H                   0.081     -0.167      0.183    0.89086   -1.79611   -0.72840      0.261
             5       O                  -0.203      0.134      0.045    1.06486   -0.65007    1.07608      0.247
             9       C                   0.040     -0.227      0.004   -2.32691   -0.35398    0.33669      0.231
            13       H                   0.213      0.080     -0.035   -0.04073    0.80638    1.73317      0.231



       FINAL  POINT  AND  DERIVATIVES

   PARAMETER     ATOM    TYPE            VALUE        GRADIENT
      1          1  O    CARTESIAN X    -0.164896      0.194204  KCAL/ANGSTROM
      2          1  O    CARTESIAN Y     0.682088      0.088992  KCAL/ANGSTROM
      3          1  O    CARTESIAN Z    -2.020309     -0.061604  KCAL/ANGSTROM
      4          2  C    CARTESIAN X     0.041101     -0.128589  KCAL/ANGSTROM
      5          2  C    CARTESIAN Y     0.171891     -0.075217  KCAL/ANGSTROM
      6          2  C    CARTESIAN Z    -0.995230      0.223920  KCAL/ANGSTROM
      7          3  C    CARTESIAN X     0.960964     -0.023489  KCAL/ANGSTROM
      8          3  C    CARTESIAN Y    -0.754558      0.063399  KCAL/ANGSTROM
      9          3  C    CARTESIAN Z    -0.341811     -0.046693  KCAL/ANGSTROM
     10          4  C    CARTESIAN X     2.211576      0.044842  KCAL/ANGSTROM
     11          4  C    CARTESIAN Y    -0.257390      0.059869  KCAL/ANGSTROM
     12          4  C    CARTESIAN Z     0.310815      0.010167  KCAL/ANGSTROM
     13          5  O    CARTESIAN X     1.064861     -0.202972  KCAL/ANGSTROM
     14          5  O    CARTESIAN Y    -0.650075      0.134348  KCAL/ANGSTROM
     15          5  O    CARTESIAN Z     1.076079      0.044679  KCAL/ANGSTROM
     16          6  C    CARTESIAN X    -1.280453     -0.252230  KCAL/ANGSTROM
     17          6  C    CARTESIAN Y     0.683200     -0.073045  KCAL/ANGSTROM
     18          6  C    CARTESIAN Z     0.244673      0.258241  KCAL/ANGSTROM
     19          7  O    CARTESIAN X    -0.574297      0.005527  KCAL/ANGSTROM
     20          7  O    CARTESIAN Y     1.396393      0.007565  KCAL/ANGSTROM
     21          7  O    CARTESIAN Z     1.077541     -0.173439  KCAL/ANGSTROM
     22          8  C    CARTESIAN X    -2.598750     -0.073911  KCAL/ANGSTROM
     23          8  C    CARTESIAN Y     0.999892      0.055051  KCAL/ANGSTROM
     24          8  C    CARTESIAN Z    -0.333833     -0.064931  KCAL/ANGSTROM
     25          9  C    CARTESIAN X    -2.326909      0.039520  KCAL/ANGSTROM
     26          9  C    CARTESIAN Y    -0.353978     -0.227366  KCAL/ANGSTROM
     27          9  C    CARTESIAN Z     0.336693      0.004029  KCAL/ANGSTROM
     28         10  H    CARTESIAN X     0.890857      0.081490  KCAL/ANGSTROM
     29         10  H    CARTESIAN Y    -1.796111     -0.166760  KCAL/ANGSTROM
     30         10  H    CARTESIAN Z    -0.728396      0.183195  KCAL/ANGSTROM
     31         11  H    CARTESIAN X     3.082013     -0.024686  KCAL/ANGSTROM
     32         11  H    CARTESIAN Y    -0.922912     -0.300179  KCAL/ANGSTROM
     33         11  H    CARTESIAN Z     0.401304      0.061633  KCAL/ANGSTROM
     34         12  H    CARTESIAN X     2.465242     -0.116016  KCAL/ANGSTROM
     35         12  H    CARTESIAN Y     0.805403      0.206100  KCAL/ANGSTROM
     36         12  H    CARTESIAN Z     0.339442     -0.236895  KCAL/ANGSTROM
     37         13  H    CARTESIAN X    -0.040725      0.213353  KCAL/ANGSTROM
     38         13  H    CARTESIAN Y     0.806384      0.080417  KCAL/ANGSTROM
     39         13  H    CARTESIAN Z     1.733171     -0.034512  KCAL/ANGSTROM
     40         14  H    CARTESIAN X    -3.236313     -0.073975  KCAL/ANGSTROM
     41         14  H    CARTESIAN Y     1.753166      0.086859  KCAL/ANGSTROM
     42         14  H    CARTESIAN Z     0.154544      0.126358  KCAL/ANGSTROM
     43         15  H    CARTESIAN X    -2.780900      0.045556  KCAL/ANGSTROM
     44         15  H    CARTESIAN Y     1.051122      0.259675  KCAL/ANGSTROM
     45         15  H    CARTESIAN Z    -1.411747     -0.184644  KCAL/ANGSTROM
     46         16  H    CARTESIAN X    -2.764922      0.300702  KCAL/ANGSTROM
     47         16  H    CARTESIAN Y    -0.597999     -0.154436  KCAL/ANGSTROM
     48         16  H    CARTESIAN Z     1.315162      0.084547  KCAL/ANGSTROM
     49         17  H    CARTESIAN X    -2.332165     -0.029290  KCAL/ANGSTROM
     50         17  H    CARTESIAN Y    -1.264520     -0.045243  KCAL/ANGSTROM
     51         17  H    CARTESIAN Z    -0.267074     -0.194171  KCAL/ANGSTROM




   ATOM   CHEMICAL          X               Y               Z
  NUMBER   SYMBOL      (ANGSTROMS)     (ANGSTROMS)     (ANGSTROMS)

     1       O         -0.16489598  *   0.68208842  *  -2.02030856  *
     2       C          0.04110063  *   0.17189115  *  -0.99522959  *
     3       C          0.96096427  *  -0.75455809  *  -0.34181059  *
     4       C          2.21157577  *  -0.25738993  *   0.31081498  *
     5       O          1.06486060  *  -0.65007458  *   1.07607863  *
     6       C         -1.28045288  *   0.68320017  *   0.24467299  *
     7       O         -0.57429706  *   1.39639306  *   1.07754120  *
     8       C         -2.59874980  *   0.99989204  *  -0.33383313  *
     9       C         -2.32690866  *  -0.35397765  *   0.33669336  *
    10       H          0.89085725  *  -1.79611132  *  -0.72839563  *
    11       H          3.08201263  *  -0.92291190  *   0.40130407  *
    12       H          2.46524152  *   0.80540278  *   0.33944241  *
    13       H         -0.04072533  *   0.80638438  *   1.73317123  *
    14       H         -3.23631302  *   1.75316638  *   0.15454360  *
    15       H         -2.78090039  *   1.05112174  *  -1.41174707  *
    16       H         -2.76492232  *  -0.59799896  *   1.31516170  *
    17       H         -2.33216547  *  -1.26451997  *  -0.26707385  *

                             CARTESIAN COORDINATES

   1    O       -0.164895976     0.682088424    -2.020308563
   2    C        0.041100630     0.171891154    -0.995229590
   3    C        0.960964271    -0.754558091    -0.341810591
   4    C        2.211575773    -0.257389930     0.310814976
   5    O        1.064860605    -0.650074577     1.076078627
   6    C       -1.280452879     0.683200171     0.244672987
   7    O       -0.574297065     1.396393056     1.077541196
   8    C       -2.598749798     0.999892038    -0.333833130
   9    C       -2.326908659    -0.353977654     0.336693363
  10    H        0.890857249    -1.796111322    -0.728395628
  11    H        3.082012626    -0.922911900     0.401304072
  12    H        2.465241524     0.805402776     0.339442411
  13    H       -0.040725325     0.806384383     1.733171228
  14    H       -3.236313017     1.753166378     0.154543601
  15    H       -2.780900389     1.051121739    -1.411747068
  16    H       -2.764922321    -0.597998963     1.315161699
  17    H       -2.332165473    -1.264519968    -0.267073848


           Empirical Formula: C6 H8 O3  =    17 atoms



      MOLECULAR POINT GROUP   :   C1  


          ALPHA EIGENVALUES  
 -39.71082 -37.75330 -37.01904 -35.27536 -31.10733 -28.46368 -26.53491 -25.85929
 -25.16419 -23.13312 -22.85952 -22.40517 -21.69227 -21.01536 -20.53378 -20.14504
 -19.50494 -18.95421 -18.64837 -17.61801 -17.33432 -17.28221 -16.73358 -16.07414
 -14.95255  -5.52359  -5.01545  -3.52749  -3.17171  -2.95624  -2.88604  -2.64685
  -1.63880  -1.37246  -1.28603  -1.13232  -0.10210   0.02675   0.60970   0.66136
   0.86348   1.10396   1.48523   1.62627


           BETA EIGENVALUES 
 -38.49121 -37.59846 -36.50532 -34.97819 -30.91712 -28.34518 -26.36700 -25.63146
 -24.92478 -22.78337 -22.55669 -22.23412 -21.47332 -20.79548 -20.27273 -19.92170
 -19.18443 -18.69822 -17.69923 -17.41199 -17.29026 -17.06311 -16.62669 -16.00798
  -7.46754  -5.33665  -4.25923  -3.38915  -3.08351  -2.85266  -2.71993  -2.45380
  -1.55463  -1.27707  -1.16306  -0.85664  -0.08003   0.12542   0.61369   0.69271
   0.86730   1.11534   1.50300   1.63753


              NET ATOMIC CHARGES AND DIPOLE CONTRIBUTIONS

  ATOM NO.   TYPE          CHARGE      No. of ELECS.   s-Pop       p-Pop       
    1          O          -0.022424        6.0224     1.87437     4.14806
    2          C           0.310940        3.6891     1.22323     2.46583
    3          C          -0.088151        4.0882     1.08505     3.00310
    4          C          -0.045483        4.0455     1.10815     2.93733
    5          O          -0.301234        6.3012     1.92214     4.37909
    6          C           0.200960        3.7990     1.11304     2.68600
    7          O          -0.264004        6.2640     1.84537     4.41863
    8          C          -0.290330        4.2903     1.06939     3.22094
    9          C          -0.336814        4.3368     1.07059     3.26623
   10          H           0.236039        0.7640     0.76396
   11          H           0.204161        0.7958     0.79584
   12          H           0.182476        0.8175     0.81752
   13          H           0.368740        0.6313     0.63126
   14          H           0.219151        0.7808     0.78085
   15          H           0.207415        0.7926     0.79258
   16          H           0.216394        0.7836     0.78361
   17          H           0.202164        0.7978     0.79784
 DIPOLE           X         Y         Z       TOTAL
 POINT-CHG.     0.665    -1.268    -0.947     1.717
 HYBRID        -0.052     0.196     0.374     0.425
 SUM            0.613    -1.072    -0.573     1.362


          ATOMIC ORBITAL ELECTRON POPULATIONS

     Atom    s        px        py        pz   
    1  O   1.87437   1.49312   1.39063   1.26431
    2  C   1.22323   0.84325   0.75803   0.86455
    3  C   1.08505   1.03233   1.08053   0.89023
    4  C   1.10815   0.91839   1.15051   0.86843
    5  O   1.92214   1.39484   1.87364   1.11062
    6  C   1.11304   0.81942   1.03889   0.82769
    7  O   1.84537   1.55346   1.41379   1.45139
    8  C   1.06939   0.99482   1.05580   1.17032
    9  C   1.07059   1.03696   1.02905   1.20021
   10  H   0.76396
   11  H   0.79584
   12  H   0.81752
   13  H   0.63126
   14  H   0.78085
   15  H   0.79258
   16  H   0.78361
   17  H   0.79784


                    (SZ)    =    0.500000
                    (S**2)  =    0.771356


          ATOMIC ORBITAL SPIN POPULATIONS

    Atom   Total    s     px     py     pz   
         Atomic
    1  O  0.3908  0.010  0.210  0.058  0.113
    2  C  0.0790  0.003  0.055 -0.012  0.033
    3  C  0.0651  0.005  0.031  0.027  0.002
    4  C  0.0084  0.000  0.002 -0.000  0.006
    5  O  0.0070  0.000 -0.000  0.005  0.002
    6  C  0.1593  0.004  0.074  0.000  0.081
    7  O  0.2270  0.008  0.087  0.022  0.111
    8  C  0.0159 -0.001  0.016  0.000  0.001
    9  C  0.0436  0.001  0.045 -0.001 -0.001
   10  H  0.0030  0.003
   11  H  0.0012  0.001
   12  H -0.0003 -0.000
   13  H -0.0109 -0.011
   14  H  0.0024  0.002
   15  H  0.0022  0.002
   16  H  0.0046  0.005
   17  H  0.0015  0.001

 **********************
 *                    *
 * JOB ENDED NORMALLY *
 *                    *
 **********************



 TOTAL JOB TIME:             1.11 SECONDS

 == MOPAC DONE ==
