 *******************************************************************************
 **                                                                           **
 **                              MOPAC v23.2                                  **
 **                                                                           **
 *******************************************************************************
 **          Digital Object Identifier (DOI): 10.5281/zenodo.6511958          **
 **    Visit the DOI location for information on how to cite this program.    **
 *******************************************************************************

                              PM7 CALCULATION RESULTS

 *******************************************************************************
 *  CALCULATION DONE: (MAX THREADS = 40)             Fri Sep 19 21:31:38 2025  *
 *  PM7        - The PM7 Hamiltonian to be used
 *
 *
 *
 *                 CHARGE ON SYSTEM = +1
 *
 *
 *
 *  1SCF       - DO 1 SCF AND THEN STOP 
 *  T=         - A TIME OF 172800.0 SECONDS REQUESTED
 *  DUMP=N     - RESTART FILE WRITTEN EVERY 7200.0 SECONDS REQUESTED
 *  RELSCF     - DEFAULT SCF CRITERION MULTIPLIED BY 0.0001
 *              (DEFAULT SCF CRITERION = 0.00010)
 *  GRADIENTS  - ALL GRADIENTS TO BE PRINTED
 *  DISP       - PRINT DISPERSION AND HYDROGEN BOND ENERGIES
 *******************************************************************************
PM7 1SCF GRADIENTS DISP RELSCF=0.0001 CHARGE=1
 Title: ASE calculation

   ATOM   CHEMICAL          X               Y               Z
  NUMBER   SYMBOL      (ANGSTROMS)     (ANGSTROMS)     (ANGSTROMS)

     1       C         -3.12731683  *  -0.33366041  *   0.34541854  *
     2       C         -1.96336608  *  -0.57790151  *  -0.62192739  *
     3       N         -0.91539067  *   0.31180204  *  -0.32003048  *
     4       C          0.41628199  *   0.11112371  *  -0.35017809  *
     5       N          1.35344761  *   0.82038725  *  -1.02110884  *
     6       C          2.69505111  *   0.49594769  *  -0.50177841  *
     7       O          3.66390186  *   1.01495361  *  -0.93284066  *
     8       C          2.41150454  *  -0.53336764  *   0.56531419  *
     9       O          0.96711788  *  -0.71789916  *   0.56982243  *
    10       H         -3.98437068  *  -0.97876812  *   0.09205975  *
    11       H         -3.48498067  *   0.70815891  *   0.32041349  *
    12       H         -2.85096845  *  -0.55199363  *   1.38712965  *
    13       H         -2.31977801  *  -0.34424687  *  -1.68247012  *
    14       H         -1.67058753  *  -1.66033674  *  -0.64776416  *
    15       H          1.17849654  *   1.51532219  *  -1.74788895  *
    16       H          2.69402481  *  -0.21179700  *   1.59393468  *
    17       H          2.84681776  *  -1.53705985  *   0.35544040  *



          CARTESIAN COORDINATES 

    NO.       ATOM           X           Y           Z

     1         C         -3.1273     -0.3337      0.3454
     2         C         -1.9634     -0.5779     -0.6219
     3         N         -0.9154      0.3118     -0.3200
     4         C          0.4163      0.1111     -0.3502
     5         N          1.3534      0.8204     -1.0211
     6         C          2.6951      0.4959     -0.5018
     7         O          3.6639      1.0150     -0.9328
     8         C          2.4115     -0.5334      0.5653
     9         O          0.9671     -0.7179      0.5698
    10         H         -3.9844     -0.9788      0.0921
    11         H         -3.4850      0.7082      0.3204
    12         H         -2.8510     -0.5520      1.3871
    13         H         -2.3198     -0.3442     -1.6825
    14         H         -1.6706     -1.6603     -0.6478
    15         H          1.1785      1.5153     -1.7479
    16         H          2.6940     -0.2118      1.5939
    17         H          2.8468     -1.5371      0.3554

 General Reference for PM7:
 "Optimization of Parameters for Semiempirical Methods VI: More Modifications to the 
 NDDO Approximations and Re-optimization of Parameters", J. J. P. Stewart, J. Mol. Mod., 1:32, 19 (2013)
 https://link.springer.com/article/10.1007/s00894-012-1667-x

           Empirical Formula: C5 H8 N2 O2  =    17 atoms



      MOLECULAR POINT GROUP   :   C1  


          UHF CALCULATION, NO. OF ALPHA ELECTRONS =   25
                           NO. OF BETA  ELECTRONS =   24
  SCF CRITERION =    0.1000E-07

 -------------------------------------------------------------------------------
 PM7 1SCF GRADIENTS DISP RELSCF=0.0001 CHARGE=1
 Title: ASE calculation



     1SCF WAS SPECIFIED, SO BFGS WAS NOT USED                 
     SCF FIELD WAS ACHIEVED                                   


                              PM7 CALCULATION
                                                       MOPAC v23.2 Linux
                                                       Fri Sep 19 21:31:38 2025




          FINAL HEAT OF FORMATION =        133.40184 KCAL/MOL =     558.15331 KJ/MOL

          TOTAL ENERGY            =     -38660.50840 KCAL/MOL = ELECTRONIC ENERGY + CORE-CORE REPULSION
          ENERGY OF ATOMS         =      38795.45340 KCAL/MOL
                              SUM =        134.94500 KCAL/MOL
          DISPERSION ENERGY       =         -1.54723 KCAL/MOL
          MM CORR. FOR -CO-NH-    =          0.00408 KCAL/MOL
                              SUM =        133.40184 KCAL/MOL = FINAL HEAT OF FORMATION



          TOTAL ENERGY            =      -1676.47832 EV
          ELECTRONIC ENERGY       =      -7388.52594 EV 
          CORE-CORE REPULSION     =       5712.04762 EV
          COSMO AREA              =        164.03 SQUARE ANGSTROMS
          COSMO VOLUME            =        151.54 CUBIC ANGSTROMS

          GRADIENT NORM           =          0.98025          =       0.23775 PER ATOM
          IONIZATION POTENTIAL    =         15.538678 EV
          ALPHA SOMO LUMO (EV)    =        -15.755 -5.715
          BETA  SOMO LUMO (EV)    =        -15.539 -6.971
          NO. OF ALPHA ELECTRONS  =         25
          NO. OF BETA  ELECTRONS  =         24
          MOLECULAR WEIGHT        =        128.1304         POINT GROUP:  C1  

          MOLECULAR DIMENSIONS (Angstroms)

            Atom       Atom       Distance
            H    10    O     7     7.97003
            H    13    H    16     4.04054
            H    11    H    17     3.40667


          SCF CALCULATIONS        =          1

          WALL-CLOCK TIME         =      0.734 SECONDS
          COMPUTATION TIME        =      0.599 SECONDS

          LARGEST ATOMIC GRADIENTS

          Atom     Label                     Cartesian Gradients           Cartesian Coordinates       |Gradient|
                                           X          Y          Z        X          Y          Z

             2       C                  -0.299     -0.267      0.181   -1.96337   -0.57790   -0.62193      0.440
            16       H                   0.361     -0.173      0.036    2.69402   -0.21180    1.59393      0.402
             5       N                   0.241      0.054     -0.190    1.35345    0.82039   -1.02111      0.312
            15       H                   0.015      0.044     -0.301    1.17850    1.51532   -1.74789      0.304
             3       N                   0.078      0.152     -0.160   -0.91539    0.31180   -0.32003      0.234
             1       C                  -0.203     -0.113      0.018   -3.12732   -0.33366    0.34542      0.233
            12       H                  -0.001      0.111     -0.186   -2.85097   -0.55199    1.38713      0.216
             9       O                  -0.179     -0.012      0.110    0.96712   -0.71790    0.56982      0.210
             4       C                  -0.037      0.178      0.087    0.41628    0.11112   -0.35018      0.202
            14       H                   0.168      0.091     -0.029   -1.67059   -1.66034   -0.64776      0.193



       FINAL  POINT  AND  DERIVATIVES

   PARAMETER     ATOM    TYPE            VALUE        GRADIENT
      1          1  C    CARTESIAN X    -3.127317     -0.202503  KCAL/ANGSTROM
      2          1  C    CARTESIAN Y    -0.333660     -0.113006  KCAL/ANGSTROM
      3          1  C    CARTESIAN Z     0.345419      0.018099  KCAL/ANGSTROM
      4          2  C    CARTESIAN X    -1.963366     -0.298808  KCAL/ANGSTROM
      5          2  C    CARTESIAN Y    -0.577902     -0.267255  KCAL/ANGSTROM
      6          2  C    CARTESIAN Z    -0.621927      0.181054  KCAL/ANGSTROM
      7          3  N    CARTESIAN X    -0.915391      0.078182  KCAL/ANGSTROM
      8          3  N    CARTESIAN Y     0.311802      0.152210  KCAL/ANGSTROM
      9          3  N    CARTESIAN Z    -0.320030     -0.160207  KCAL/ANGSTROM
     10          4  C    CARTESIAN X     0.416282     -0.036727  KCAL/ANGSTROM
     11          4  C    CARTESIAN Y     0.111124      0.178022  KCAL/ANGSTROM
     12          4  C    CARTESIAN Z    -0.350178      0.087219  KCAL/ANGSTROM
     13          5  N    CARTESIAN X     1.353448      0.240926  KCAL/ANGSTROM
     14          5  N    CARTESIAN Y     0.820387      0.054361  KCAL/ANGSTROM
     15          5  N    CARTESIAN Z    -1.021109     -0.190260  KCAL/ANGSTROM
     16          6  C    CARTESIAN X     2.695051     -0.065943  KCAL/ANGSTROM
     17          6  C    CARTESIAN Y     0.495948      0.055887  KCAL/ANGSTROM
     18          6  C    CARTESIAN Z    -0.501778      0.050687  KCAL/ANGSTROM
     19          7  O    CARTESIAN X     3.663902      0.030200  KCAL/ANGSTROM
     20          7  O    CARTESIAN Y     1.014954      0.042416  KCAL/ANGSTROM
     21          7  O    CARTESIAN Z    -0.932841      0.120562  KCAL/ANGSTROM
     22          8  C    CARTESIAN X     2.411505     -0.060776  KCAL/ANGSTROM
     23          8  C    CARTESIAN Y    -0.533368     -0.090228  KCAL/ANGSTROM
     24          8  C    CARTESIAN Z     0.565314      0.097084  KCAL/ANGSTROM
     25          9  O    CARTESIAN X     0.967118     -0.179017  KCAL/ANGSTROM
     26          9  O    CARTESIAN Y    -0.717899     -0.012341  KCAL/ANGSTROM
     27          9  O    CARTESIAN Z     0.569822      0.109502  KCAL/ANGSTROM
     28         10  H    CARTESIAN X    -3.984371      0.025422  KCAL/ANGSTROM
     29         10  H    CARTESIAN Y    -0.978768     -0.045356  KCAL/ANGSTROM
     30         10  H    CARTESIAN Z     0.092060      0.128256  KCAL/ANGSTROM
     31         11  H    CARTESIAN X    -3.484981     -0.110753  KCAL/ANGSTROM
     32         11  H    CARTESIAN Y     0.708159     -0.125292  KCAL/ANGSTROM
     33         11  H    CARTESIAN Z     0.320413     -0.058635  KCAL/ANGSTROM
     34         12  H    CARTESIAN X    -2.850968     -0.000581  KCAL/ANGSTROM
     35         12  H    CARTESIAN Y    -0.551994      0.111482  KCAL/ANGSTROM
     36         12  H    CARTESIAN Z     1.387130     -0.185573  KCAL/ANGSTROM
     37         13  H    CARTESIAN X    -2.319778      0.017337  KCAL/ANGSTROM
     38         13  H    CARTESIAN Y    -0.344247      0.155531  KCAL/ANGSTROM
     39         13  H    CARTESIAN Z    -1.682470      0.102764  KCAL/ANGSTROM
     40         14  H    CARTESIAN X    -1.670588      0.168058  KCAL/ANGSTROM
     41         14  H    CARTESIAN Y    -1.660337      0.090661  KCAL/ANGSTROM
     42         14  H    CARTESIAN Z    -0.647764     -0.029042  KCAL/ANGSTROM
     43         15  H    CARTESIAN X     1.178497      0.014756  KCAL/ANGSTROM
     44         15  H    CARTESIAN Y     1.515322      0.044099  KCAL/ANGSTROM
     45         15  H    CARTESIAN Z    -1.747889     -0.300760  KCAL/ANGSTROM
     46         16  H    CARTESIAN X     2.694025      0.361049  KCAL/ANGSTROM
     47         16  H    CARTESIAN Y    -0.211797     -0.172853  KCAL/ANGSTROM
     48         16  H    CARTESIAN Z     1.593935      0.036216  KCAL/ANGSTROM
     49         17  H    CARTESIAN X     2.846818      0.019178  KCAL/ANGSTROM
     50         17  H    CARTESIAN Y    -1.537060     -0.058341  KCAL/ANGSTROM
     51         17  H    CARTESIAN Z     0.355440     -0.006970  KCAL/ANGSTROM




   ATOM   CHEMICAL          X               Y               Z
  NUMBER   SYMBOL      (ANGSTROMS)     (ANGSTROMS)     (ANGSTROMS)

     1       C         -3.12731683  *  -0.33366041  *   0.34541854  *
     2       C         -1.96336608  *  -0.57790151  *  -0.62192739  *
     3       N         -0.91539067  *   0.31180204  *  -0.32003048  *
     4       C          0.41628199  *   0.11112371  *  -0.35017809  *
     5       N          1.35344761  *   0.82038725  *  -1.02110884  *
     6       C          2.69505111  *   0.49594769  *  -0.50177841  *
     7       O          3.66390186  *   1.01495361  *  -0.93284066  *
     8       C          2.41150454  *  -0.53336764  *   0.56531419  *
     9       O          0.96711788  *  -0.71789916  *   0.56982243  *
    10       H         -3.98437068  *  -0.97876812  *   0.09205975  *
    11       H         -3.48498067  *   0.70815891  *   0.32041349  *
    12       H         -2.85096845  *  -0.55199363  *   1.38712965  *
    13       H         -2.31977801  *  -0.34424687  *  -1.68247012  *
    14       H         -1.67058753  *  -1.66033674  *  -0.64776416  *
    15       H          1.17849654  *   1.51532219  *  -1.74788895  *
    16       H          2.69402481  *  -0.21179700  *   1.59393468  *
    17       H          2.84681776  *  -1.53705985  *   0.35544040  *

                             CARTESIAN COORDINATES

   1    C       -3.127316827    -0.333660414     0.345418536
   2    C       -1.963366081    -0.577901513    -0.621927385
   3    N       -0.915390666     0.311802045    -0.320030484
   4    C        0.416281986     0.111123709    -0.350178087
   5    N        1.353447608     0.820387254    -1.021108842
   6    C        2.695051114     0.495947686    -0.501778405
   7    O        3.663901859     1.014953613    -0.932840657
   8    C        2.411504543    -0.533367638     0.565314193
   9    O        0.967117882    -0.717899158     0.569822435
  10    H       -3.984370677    -0.978768116     0.092059751
  11    H       -3.484980669     0.708158906     0.320413494
  12    H       -2.850968446    -0.551993628     1.387129652
  13    H       -2.319778012    -0.344246866    -1.682470125
  14    H       -1.670587528    -1.660336745    -0.647764165
  15    H        1.178496541     1.515322188    -1.747888949
  16    H        2.694024813    -0.211797002     1.593934677
  17    H        2.846817756    -1.537059852     0.355440400


           Empirical Formula: C5 H8 N2 O2  =    17 atoms



      MOLECULAR POINT GROUP   :   C1  


          ALPHA EIGENVALUES  
 -43.46410 -41.11888 -37.22889 -36.66896 -32.08161 -30.87731 -27.93983 -26.89294
 -25.76843 -23.79554 -22.52526 -22.32029 -21.83977 -20.56555 -20.21405 -19.92182
 -19.67353 -19.31807 -18.14452 -17.55580 -17.22577 -16.56617 -16.25736 -16.09203
 -15.75487  -5.71541  -4.89630  -4.15711  -4.03896  -3.01996  -2.61917  -2.49125
  -1.10983  -0.87535  -0.41237  -0.24654  -0.06326   0.24357   0.38668   0.70404
   0.81043   1.84708   1.90380   2.96867


           BETA EIGENVALUES 
 -43.33421 -39.54392 -37.15617 -36.52166 -31.94549 -30.73017 -27.77401 -26.82208
 -25.54226 -23.51505 -22.47803 -21.99683 -21.61965 -20.21076 -20.01011 -19.64774
 -19.57288 -19.25253 -18.01293 -17.25168 -16.66958 -16.45529 -16.13691 -15.53868
  -6.97148  -5.53009  -4.65274  -4.15036  -3.65974  -2.74048  -2.55444  -2.31074
  -1.00764  -0.67798  -0.39181  -0.06063   0.07016   0.37492   0.46296   0.79955
   0.84439   1.85457   1.91275   2.97185


              NET ATOMIC CHARGES AND DIPOLE CONTRIBUTIONS

  ATOM NO.   TYPE          CHARGE      No. of ELECS.   s-Pop       p-Pop       
    1          C          -0.422974        4.4230     1.05739     3.36559
    2          C          -0.104929        4.1049     1.07255     3.03238
    3          N          -0.206463        5.2065     1.71883     3.48763
    4          C           0.540356        3.4596     1.09109     2.36855
    5          N          -0.534823        5.5348     1.57960     3.95522
    6          C           0.507916        3.4921     1.11737     2.37471
    7          O          -0.213634        6.2136     1.87820     4.33543
    8          C          -0.149454        4.1495     1.12344     3.02601
    9          O          -0.208263        6.2083     1.88909     4.31917
   10          H           0.187351        0.8126     0.81265
   11          H           0.185361        0.8146     0.81464
   12          H           0.175721        0.8243     0.82428
   13          H           0.228106        0.7719     0.77189
   14          H           0.183716        0.8163     0.81628
   15          H           0.379645        0.6204     0.62035
   16          H           0.226875        0.7731     0.77313
   17          H           0.225492        0.7745     0.77451
 DIPOLE           X         Y         Z       TOTAL
 POINT-CHG.    -1.886    -1.860    -0.353     2.673
 HYBRID         0.173     0.181    -0.564     0.617
 SUM           -1.713    -1.680    -0.917     2.568


          ATOMIC ORBITAL ELECTRON POPULATIONS

     Atom    s        px        py        pz   
    1  C   1.05739   1.04679   1.21314   1.10566
    2  C   1.07255   0.91488   1.01783   1.09966
    3  N   1.71883   1.02589   1.32471   1.13703
    4  C   1.09109   0.82898   0.75914   0.78042
    5  N   1.57960   1.15999   1.40277   1.39246
    6  C   1.11737   0.76335   0.80611   0.80525
    7  O   1.87820   1.36147   1.45502   1.51895
    8  C   1.12344   0.77542   1.12632   1.12426
    9  O   1.88909   1.26924   1.52392   1.52602
   10  H   0.81265
   11  H   0.81464
   12  H   0.82428
   13  H   0.77189
   14  H   0.81628
   15  H   0.62035
   16  H   0.77313
   17  H   0.77451


                    (SZ)    =    0.500000
                    (S**2)  =    0.766414


          ATOMIC ORBITAL SPIN POPULATIONS

    Atom   Total    s     px     py     pz   
         Atomic
    1  C  0.0280  0.004  0.013  0.000  0.011
    2  C -0.0275 -0.007 -0.029  0.002  0.006
    3  N  0.9240  0.028  0.042  0.181  0.672
    4  C -0.0933 -0.019 -0.025 -0.016 -0.033
    5  N  0.0189  0.002  0.014  0.010 -0.006
    6  C -0.0004 -0.001 -0.000  0.000  0.001
    7  O  0.0048  0.000  0.004  0.002 -0.002
    8  C -0.0028 -0.000 -0.002 -0.001 -0.000
    9  O  0.0479  0.000  0.006  0.055 -0.013
   10  H -0.0006 -0.001
   11  H -0.0000 -0.000
   12  H -0.0004 -0.000
   13  H  0.0768  0.077
   14  H  0.0235  0.023
   15  H -0.0008 -0.001
   16  H -0.0007 -0.001
   17  H  0.0027  0.003

 **********************
 *                    *
 * JOB ENDED NORMALLY *
 *                    *
 **********************



 TOTAL JOB TIME:             1.15 SECONDS

 == MOPAC DONE ==
