 *******************************************************************************
 **                                                                           **
 **                              MOPAC v23.2                                  **
 **                                                                           **
 *******************************************************************************
 **          Digital Object Identifier (DOI): 10.5281/zenodo.6511958          **
 **    Visit the DOI location for information on how to cite this program.    **
 *******************************************************************************

                              PM7 CALCULATION RESULTS

 *******************************************************************************
 *  CALCULATION DONE: (MAX THREADS = 40)             Fri Sep 19 21:33:11 2025  *
 *  PM7        - The PM7 Hamiltonian to be used
 *
 *
 *
 *                 CHARGE ON SYSTEM = +1
 *
 *
 *
 *  EPS=37.5   - USE ANDREAS KLAMT'S COSMO IMPLICIT SOLVATION MODEL
 *  1SCF       - DO 1 SCF AND THEN STOP 
 *  T=         - A TIME OF 172800.0 SECONDS REQUESTED
 *  DUMP=N     - RESTART FILE WRITTEN EVERY 7200.0 SECONDS REQUESTED
 *  RELSCF     - DEFAULT SCF CRITERION MULTIPLIED BY 0.0001
 *              (DEFAULT SCF CRITERION = 0.00010)
 *  GRADIENTS  - ALL GRADIENTS TO BE PRINTED
 *  DISP       - PRINT DISPERSION AND HYDROGEN BOND ENERGIES
 *******************************************************************************
PM7 1SCF GRADIENTS EPS=37.5 DISP RELSCF=0.0001 CHARGE=1
 Title: ASE calculation

   ATOM   CHEMICAL          X               Y               Z
  NUMBER   SYMBOL      (ANGSTROMS)     (ANGSTROMS)     (ANGSTROMS)

     1       C          3.50837749  *  -0.50156193  *   0.79511873  *
     2       C          2.07005561  *  -0.98844850  *   0.65188797  *
     3       C          1.14977338  *   0.17249894  *   0.20593836  *
     4       C         -0.22304916  *  -0.27459518  *   0.11531034  *
     5       C         -1.06964597  *  -0.68336494  *  -1.03826900  *
     6       C         -2.29649499  *  -0.92254603  *   0.02312696  *
     7       C         -1.26955505  *  -0.54768611  *   1.14241352  *
     8       C         -3.33094463  *  -0.00169946  *  -0.32936340  *
     9       C         -3.35044092  *   1.38302335  *   0.06027837  *
    10       H          3.59774932  *   0.29973765  *   1.53857271  *
    11       H          4.17074533  *  -1.31685126  *   1.11835923  *
    12       H          3.90693365  *  -0.11937759  *  -0.15240061  *
    13       H          2.01738121  *  -1.81500103  *  -0.08214809  *
    14       H          1.71222071  *  -1.40823158  *   1.61068605  *
    15       H          1.25201452  *   1.01350205  *   0.93191391  *
    16       H          1.51880576  *   0.57837907  *  -0.76284096  *
    17       H         -1.24081586  *   0.06885137  *  -1.81411244  *
    18       H         -0.78305592  *  -1.63195561  *  -1.52334299  *
    19       H         -2.59364734  *  -1.99294420  *   0.04623226  *
    20       H         -1.03125857  *  -1.39441322  *   1.81411244  *
    21       H         -1.54528419  *   0.29384719  *   1.78929643  *
    22       H         -4.15512352  *  -0.37144092  *  -0.97800855  *
    23       H         -3.41517435  *   1.52596132  *   1.17347736  *
    24       H         -4.17074533  *   1.99294420  *  -0.37399628  *
    25       H         -2.39122652  *   1.92258510  *  -0.15936810  *



          CARTESIAN COORDINATES 

    NO.       ATOM           X           Y           Z

     1         C          3.5084     -0.5016      0.7951
     2         C          2.0701     -0.9884      0.6519
     3         C          1.1498      0.1725      0.2059
     4         C         -0.2230     -0.2746      0.1153
     5         C         -1.0696     -0.6834     -1.0383
     6         C         -2.2965     -0.9225      0.0231
     7         C         -1.2696     -0.5477      1.1424
     8         C         -3.3309     -0.0017     -0.3294
     9         C         -3.3504      1.3830      0.0603
    10         H          3.5977      0.2997      1.5386
    11         H          4.1707     -1.3169      1.1184
    12         H          3.9069     -0.1194     -0.1524
    13         H          2.0174     -1.8150     -0.0821
    14         H          1.7122     -1.4082      1.6107
    15         H          1.2520      1.0135      0.9319
    16         H          1.5188      0.5784     -0.7628
    17         H         -1.2408      0.0689     -1.8141
    18         H         -0.7831     -1.6320     -1.5233
    19         H         -2.5936     -1.9929      0.0462
    20         H         -1.0313     -1.3944      1.8141
    21         H         -1.5453      0.2938      1.7893
    22         H         -4.1551     -0.3714     -0.9780
    23         H         -3.4152      1.5260      1.1735
    24         H         -4.1707      1.9929     -0.3740
    25         H         -2.3912      1.9226     -0.1594

 General Reference for PM7:
 "Optimization of Parameters for Semiempirical Methods VI: More Modifications to the 
 NDDO Approximations and Re-optimization of Parameters", J. J. P. Stewart, J. Mol. Mod., 1:32, 19 (2013)
 https://link.springer.com/article/10.1007/s00894-012-1667-x

           Empirical Formula: C9 H16  =    25 atoms



      MOLECULAR POINT GROUP   :   C1  


          UHF CALCULATION, NO. OF ALPHA ELECTRONS =   26
                           NO. OF BETA  ELECTRONS =   25
  SCF CRITERION =    0.1000E-07

 -------------------------------------------------------------------------------
 PM7 1SCF GRADIENTS EPS=37.5 DISP RELSCF=0.0001 CHARGE=1
 Title: ASE calculation



     1SCF WAS SPECIFIED, SO BFGS WAS NOT USED                 
     SCF FIELD WAS ACHIEVED                                   


                              PM7 CALCULATION
                                                       MOPAC v23.2 Linux
                                                       Fri Sep 19 21:33:12 2025




          FINAL HEAT OF FORMATION =        152.01940 KCAL/MOL =     636.04919 KJ/MOL

          TOTAL ENERGY            =     -30312.73417 KCAL/MOL = ELECTRONIC ENERGY + CORE-CORE REPULSION + SOLVATION ENERGY
          ENERGY OF ATOMS         =      30467.18356 KCAL/MOL
                              SUM =        154.44939 KCAL/MOL
          DISPERSION ENERGY       =         -2.42999 KCAL/MOL
                              SUM =        152.01940 KCAL/MOL = FINAL HEAT OF FORMATION

          VAN DER WAALS AREA      =        189.64 SQUARE ANGSTROMS


          TOTAL ENERGY            =      -1314.48456 EV
          ELECTRONIC ENERGY       =      -2130.24848 EV 
          CORE-CORE REPULSION     =        815.76391 EV

          DIELECTRIC ENERGY       =         -2.38510 EV
          COSMO AREA              =        189.64 SQUARE ANGSTROMS
          COSMO VOLUME            =        192.11 CUBIC ANGSTROMS

          GRADIENT NORM           =         22.82240          =       4.56448 PER ATOM
          IONIZATION POTENTIAL    =          8.950853 EV
          ALPHA SOMO LUMO (EV)    =         -8.951 -2.163
          BETA  SOMO LUMO (EV)    =        -11.417 -2.166
          NO. OF ALPHA ELECTRONS  =         26
          NO. OF BETA  ELECTRONS  =         25
          MOLECULAR WEIGHT        =        124.2254         POINT GROUP:  C1  

          MOLECULAR DIMENSIONS (Angstroms)

            Atom       Atom       Distance
            H    24    H    11     9.09738
            H    10    H    19     4.46461
            H    20    H    17     3.61139


          SCF CALCULATIONS        =          2

          WALL-CLOCK TIME         =      1.102 SECONDS
          COMPUTATION TIME        =      0.741 SECONDS

          LARGEST ATOMIC GRADIENTS

          Atom     Label                     Cartesian Gradients           Cartesian Coordinates       |Gradient|
                                           X          Y          Z        X          Y          Z

             6       C                 -15.874      2.225      2.058   -2.29649   -0.92255    0.02313     16.161
             8       C                   7.211     -8.259      0.900   -3.33094   -0.00170   -0.32936     11.001
             5       C                   2.822      2.205     -4.920   -1.06965   -0.68336   -1.03827      6.086
             3       C                  -5.030      0.437     -1.309    1.14977    0.17250    0.20594      5.216
             4       C                   4.114      2.746      0.445   -0.22305   -0.27460    0.11531      4.966
             1       C                  -3.043      1.354     -0.726    3.50838   -0.50156    0.79512      3.409
            24       H                  -1.129      1.930     -0.268   -4.17075    1.99294   -0.37400      2.252
             9       C                  -1.624      1.364      0.435   -3.35044    1.38302    0.06028      2.165
            20       H                   1.082     -1.125      0.946   -1.03126   -1.39441    1.81411      1.825
            19       H                   1.686     -0.448     -0.275   -2.59365   -1.99294    0.04623      1.766



       FINAL  POINT  AND  DERIVATIVES

   PARAMETER     ATOM    TYPE            VALUE        GRADIENT
      1          1  C    CARTESIAN X     3.508377     -3.043084  KCAL/ANGSTROM
      2          1  C    CARTESIAN Y    -0.501562      1.353946  KCAL/ANGSTROM
      3          1  C    CARTESIAN Z     0.795119     -0.726429  KCAL/ANGSTROM
      4          2  C    CARTESIAN X     2.070056     -0.331839  KCAL/ANGSTROM
      5          2  C    CARTESIAN Y    -0.988448     -1.253592  KCAL/ANGSTROM
      6          2  C    CARTESIAN Z     0.651888      0.305999  KCAL/ANGSTROM
      7          3  C    CARTESIAN X     1.149773     -5.030153  KCAL/ANGSTROM
      8          3  C    CARTESIAN Y     0.172499      0.436741  KCAL/ANGSTROM
      9          3  C    CARTESIAN Z     0.205938     -1.308940  KCAL/ANGSTROM
     10          4  C    CARTESIAN X    -0.223049      4.113650  KCAL/ANGSTROM
     11          4  C    CARTESIAN Y    -0.274595      2.745566  KCAL/ANGSTROM
     12          4  C    CARTESIAN Z     0.115310      0.444606  KCAL/ANGSTROM
     13          5  C    CARTESIAN X    -1.069646      2.821922  KCAL/ANGSTROM
     14          5  C    CARTESIAN Y    -0.683365      2.205233  KCAL/ANGSTROM
     15          5  C    CARTESIAN Z    -1.038269     -4.920195  KCAL/ANGSTROM
     16          6  C    CARTESIAN X    -2.296495    -15.873880  KCAL/ANGSTROM
     17          6  C    CARTESIAN Y    -0.922546      2.225141  KCAL/ANGSTROM
     18          6  C    CARTESIAN Z     0.023127      2.058309  KCAL/ANGSTROM
     19          7  C    CARTESIAN X    -1.269555     -1.448148  KCAL/ANGSTROM
     20          7  C    CARTESIAN Y    -0.547686      0.672202  KCAL/ANGSTROM
     21          7  C    CARTESIAN Z     1.142414     -0.275767  KCAL/ANGSTROM
     22          8  C    CARTESIAN X    -3.330945      7.210601  KCAL/ANGSTROM
     23          8  C    CARTESIAN Y    -0.001699     -8.259468  KCAL/ANGSTROM
     24          8  C    CARTESIAN Z    -0.329363      0.899766  KCAL/ANGSTROM
     25          9  C    CARTESIAN X    -3.350441     -1.624238  KCAL/ANGSTROM
     26          9  C    CARTESIAN Y     1.383023      1.364002  KCAL/ANGSTROM
     27          9  C    CARTESIAN Z     0.060278      0.435332  KCAL/ANGSTROM
     28         10  H    CARTESIAN X     3.597749      0.844475  KCAL/ANGSTROM
     29         10  H    CARTESIAN Y     0.299738     -0.271079  KCAL/ANGSTROM
     30         10  H    CARTESIAN Z     1.538573      0.399867  KCAL/ANGSTROM
     31         11  H    CARTESIAN X     4.170745      0.485731  KCAL/ANGSTROM
     32         11  H    CARTESIAN Y    -1.316851     -0.235216  KCAL/ANGSTROM
     33         11  H    CARTESIAN Z     1.118359      0.163273  KCAL/ANGSTROM
     34         12  H    CARTESIAN X     3.906934      0.869528  KCAL/ANGSTROM
     35         12  H    CARTESIAN Y    -0.119378     -0.467976  KCAL/ANGSTROM
     36         12  H    CARTESIAN Z    -0.152401      0.087825  KCAL/ANGSTROM
     37         13  H    CARTESIAN X     2.017381      1.121617  KCAL/ANGSTROM
     38         13  H    CARTESIAN Y    -1.815001     -0.347893  KCAL/ANGSTROM
     39         13  H    CARTESIAN Z    -0.082148     -0.052419  KCAL/ANGSTROM
     40         14  H    CARTESIAN X     1.712221      1.101286  KCAL/ANGSTROM
     41         14  H    CARTESIAN Y    -1.408232     -0.077138  KCAL/ANGSTROM
     42         14  H    CARTESIAN Z     1.610686      0.292027  KCAL/ANGSTROM
     43         15  H    CARTESIAN X     1.252015      1.160344  KCAL/ANGSTROM
     44         15  H    CARTESIAN Y     1.013502      0.254912  KCAL/ANGSTROM
     45         15  H    CARTESIAN Z     0.931914      0.570668  KCAL/ANGSTROM
     46         16  H    CARTESIAN X     1.518806      1.271367  KCAL/ANGSTROM
     47         16  H    CARTESIAN Y     0.578379      0.000749  KCAL/ANGSTROM
     48         16  H    CARTESIAN Z    -0.762841     -0.033459  KCAL/ANGSTROM
     49         17  H    CARTESIAN X    -1.240816      1.152239  KCAL/ANGSTROM
     50         17  H    CARTESIAN Y     0.068851     -0.155324  KCAL/ANGSTROM
     51         17  H    CARTESIAN Z    -1.814112      0.284957  KCAL/ANGSTROM
     52         18  H    CARTESIAN X    -0.783056      0.828570  KCAL/ANGSTROM
     53         18  H    CARTESIAN Y    -1.631956     -1.455392  KCAL/ANGSTROM
     54         18  H    CARTESIAN Z    -1.523343      0.196554  KCAL/ANGSTROM
     55         19  H    CARTESIAN X    -2.593647      1.685811  KCAL/ANGSTROM
     56         19  H    CARTESIAN Y    -1.992944     -0.447964  KCAL/ANGSTROM
     57         19  H    CARTESIAN Z     0.046232     -0.275192  KCAL/ANGSTROM
     58         20  H    CARTESIAN X    -1.031259      1.082086  KCAL/ANGSTROM
     59         20  H    CARTESIAN Y    -1.394413     -1.125372  KCAL/ANGSTROM
     60         20  H    CARTESIAN Z     1.814112      0.946086  KCAL/ANGSTROM
     61         21  H    CARTESIAN X    -1.545284      0.815538  KCAL/ANGSTROM
     62         21  H    CARTESIAN Y     0.293847     -0.867961  KCAL/ANGSTROM
     63         21  H    CARTESIAN Z     1.789296      0.360016  KCAL/ANGSTROM
     64         22  H    CARTESIAN X    -4.155124      0.096558  KCAL/ANGSTROM
     65         22  H    CARTESIAN Y    -0.371441      0.372968  KCAL/ANGSTROM
     66         22  H    CARTESIAN Z    -0.978009      0.376094  KCAL/ANGSTROM
     67         23  H    CARTESIAN X    -3.415174      0.683328  KCAL/ANGSTROM
     68         23  H    CARTESIAN Y     1.525961      0.869148  KCAL/ANGSTROM
     69         23  H    CARTESIAN Z     1.173477      0.434285  KCAL/ANGSTROM
     70         24  H    CARTESIAN X    -4.170745     -1.128877  KCAL/ANGSTROM
     71         24  H    CARTESIAN Y     1.992944      1.929545  KCAL/ANGSTROM
     72         24  H    CARTESIAN Z    -0.373996     -0.268411  KCAL/ANGSTROM
     73         25  H    CARTESIAN X    -2.391227      1.135569  KCAL/ANGSTROM
     74         25  H    CARTESIAN Y     1.922585      0.534218  KCAL/ANGSTROM
     75         25  H    CARTESIAN Z    -0.159368     -0.394854  KCAL/ANGSTROM




   ATOM   CHEMICAL          X               Y               Z
  NUMBER   SYMBOL      (ANGSTROMS)     (ANGSTROMS)     (ANGSTROMS)

     1       C          3.50837749  *  -0.50156193  *   0.79511873  *
     2       C          2.07005561  *  -0.98844850  *   0.65188797  *
     3       C          1.14977338  *   0.17249894  *   0.20593836  *
     4       C         -0.22304916  *  -0.27459518  *   0.11531034  *
     5       C         -1.06964597  *  -0.68336494  *  -1.03826900  *
     6       C         -2.29649499  *  -0.92254603  *   0.02312696  *
     7       C         -1.26955505  *  -0.54768611  *   1.14241352  *
     8       C         -3.33094463  *  -0.00169946  *  -0.32936340  *
     9       C         -3.35044092  *   1.38302335  *   0.06027837  *
    10       H          3.59774932  *   0.29973765  *   1.53857271  *
    11       H          4.17074533  *  -1.31685126  *   1.11835923  *
    12       H          3.90693365  *  -0.11937759  *  -0.15240061  *
    13       H          2.01738121  *  -1.81500103  *  -0.08214809  *
    14       H          1.71222071  *  -1.40823158  *   1.61068605  *
    15       H          1.25201452  *   1.01350205  *   0.93191391  *
    16       H          1.51880576  *   0.57837907  *  -0.76284096  *
    17       H         -1.24081586  *   0.06885137  *  -1.81411244  *
    18       H         -0.78305592  *  -1.63195561  *  -1.52334299  *
    19       H         -2.59364734  *  -1.99294420  *   0.04623226  *
    20       H         -1.03125857  *  -1.39441322  *   1.81411244  *
    21       H         -1.54528419  *   0.29384719  *   1.78929643  *
    22       H         -4.15512352  *  -0.37144092  *  -0.97800855  *
    23       H         -3.41517435  *   1.52596132  *   1.17347736  *
    24       H         -4.17074533  *   1.99294420  *  -0.37399628  *
    25       H         -2.39122652  *   1.92258510  *  -0.15936810  *

                             CARTESIAN COORDINATES

   1    C        3.508377492    -0.501561934     0.795118726
   2    C        2.070055605    -0.988448500     0.651887971
   3    C        1.149773380     0.172498941     0.205938362
   4    C       -0.223049161    -0.274595178     0.115310341
   5    C       -1.069645971    -0.683364938    -1.038269004
   6    C       -2.296494994    -0.922546029     0.023126963
   7    C       -1.269555046    -0.547686109     1.142413521
   8    C       -3.330944626    -0.001699460    -0.329363403
   9    C       -3.350440916     1.383023348     0.060278372
  10    H        3.597749322     0.299737654     1.538572710
  11    H        4.170745326    -1.316851256     1.118359229
  12    H        3.906933654    -0.119377591    -0.152400615
  13    H        2.017381209    -1.815001029    -0.082148094
  14    H        1.712220712    -1.408231582     1.610686050
  15    H        1.252014516     1.013502049     0.931913911
  16    H        1.518805760     0.578379071    -0.762840960
  17    H       -1.240815855     0.068851369    -1.814112444
  18    H       -0.783055916    -1.631955609    -1.523342990
  19    H       -2.593647343    -1.992944201     0.046232264
  20    H       -1.031258571    -1.394413224     1.814112444
  21    H       -1.545284189     0.293847194     1.789296430
  22    H       -4.155123522    -0.371440924    -0.978008545
  23    H       -3.415174347     1.525961323     1.173477365
  24    H       -4.170745326     1.992944201    -0.373996277
  25    H       -2.391226517     1.922585103    -0.159368101


           Empirical Formula: C9 H16  =    25 atoms



      MOLECULAR POINT GROUP   :   C1  


          ALPHA EIGENVALUES  
 -31.91712 -29.01293 -27.92491 -25.05840 -24.08483 -23.41411 -20.69382 -19.60854
 -18.20097 -18.12465 -16.58021 -16.44458 -15.78973 -15.15546 -14.83838 -14.36352
 -14.09971 -13.84363 -13.55659 -13.16313 -12.90658 -12.37482 -12.18779 -12.00990
 -11.44722  -8.95085  -2.16328   1.82890   2.39369   2.86722   2.98286   3.29703
   3.82455   4.00438   4.26580   4.34975   4.47210   4.76318   4.80929   4.91668
   5.09534   5.26548   5.35290   5.57820   5.66909   5.72766   5.77858   5.95566
   6.02833   6.37422   6.47757   6.88989


           BETA EIGENVALUES 
 -31.84542 -28.94589 -27.88840 -24.98941 -24.02094 -23.37653 -20.61421 -19.56291
 -18.08191 -17.99458 -16.51350 -16.38348 -15.70856 -15.07091 -14.72528 -14.25733
 -14.03922 -13.73931 -13.41516 -13.11710 -12.88908 -12.29223 -12.11655 -11.91465
 -11.41721  -2.16561   0.33098   1.83358   2.41258   2.89036   2.98644   3.54842
   3.93877   4.02646   4.35137   4.38640   4.71840   4.80540   4.94552   5.01691
   5.14059   5.28682   5.41701   5.61409   5.69816   5.73618   5.79115   5.97412
   6.05821   6.41356   6.48862   6.89138


              NET ATOMIC CHARGES AND DIPOLE CONTRIBUTIONS

  ATOM NO.   TYPE          CHARGE      No. of ELECS.   s-Pop       p-Pop       
    1          C          -0.447061        4.4471     1.05279     3.39427
    2          C          -0.241200        4.2412     1.05693     3.18427
    3          C          -0.286163        4.2862     1.04840     3.23776
    4          C          -0.084607        4.0846     1.09260     2.99200
    5          C          -0.200481        4.2005     1.08463     3.11585
    6          C          -0.291082        4.2911     1.08801     3.20308
    7          C          -0.262338        4.2623     1.06588     3.19646
    8          C           0.433923        3.5661     1.18885     2.37722
    9          C          -0.569826        4.5698     1.06105     3.50878
   10          H           0.149714        0.8503     0.85029
   11          H           0.152684        0.8473     0.84732
   12          H           0.150147        0.8499     0.84985
   13          H           0.141603        0.8584     0.85840
   14          H           0.140245        0.8598     0.85976
   15          H           0.165630        0.8344     0.83437
   16          H           0.162895        0.8371     0.83711
   17          H           0.175471        0.8245     0.82453
   18          H           0.190309        0.8097     0.80969
   19          H           0.222605        0.7774     0.77739
   20          H           0.183415        0.8166     0.81658
   21          H           0.174403        0.8256     0.82560
   22          H           0.202986        0.7970     0.79701
   23          H           0.264067        0.7359     0.73593
   24          H           0.220255        0.7797     0.77975
   25          H           0.252407        0.7476     0.74759
 DIPOLE           X         Y         Z       TOTAL
 POINT-CHG.   -10.254     1.841    -1.873    10.585
 HYBRID        -0.424     0.056     0.011     0.428
 SUM          -10.678     1.897    -1.862    11.004


          ATOMIC ORBITAL ELECTRON POPULATIONS

     Atom    s        px        py        pz   
    1  C   1.05279   1.04578   1.16775   1.18075
    2  C   1.05693   0.98534   1.04620   1.15273
    3  C   1.04840   0.98548   1.07756   1.17472
    4  C   1.09260   0.97080   1.06403   0.95717
    5  C   1.08463   0.91985   1.17381   1.02220
    6  C   1.08801   1.00060   1.12809   1.07439
    7  C   1.06588   0.99786   1.17310   1.02550
    8  C   1.18885   0.83615   0.94890   0.59218
    9  C   1.06105   1.24407   1.04617   1.21854
   10  H   0.85029
   11  H   0.84732
   12  H   0.84985
   13  H   0.85840
   14  H   0.85976
   15  H   0.83437
   16  H   0.83711
   17  H   0.82453
   18  H   0.80969
   19  H   0.77739
   20  H   0.81658
   21  H   0.82560
   22  H   0.79701
   23  H   0.73593
   24  H   0.77975
   25  H   0.74759


                    (SZ)    =    0.500000
                    (S**2)  =    0.754280


          ATOMIC ORBITAL SPIN POPULATIONS

    Atom   Total    s     px     py     pz   
         Atomic
    1  C -0.0003 -0.000  0.000 -0.000 -0.000
    2  C  0.0487  0.009  0.016  0.020  0.005
    3  C -0.0497 -0.006 -0.027 -0.011 -0.005
    4  C  0.9780  0.028  0.116  0.792  0.043
    5  C -0.0464 -0.007 -0.016 -0.007 -0.017
    6  C  0.0060  0.001  0.002  0.001  0.002
    7  C -0.0454 -0.006 -0.019 -0.006 -0.014
    8  C  0.0014 -0.000 -0.000  0.000  0.002
    9  C -0.0001 -0.000 -0.000 -0.000 -0.000
   10  H  0.0001  0.000
   11  H  0.0009  0.001
   12  H  0.0001  0.000
   13  H -0.0016 -0.002
   14  H -0.0014 -0.001
   15  H  0.0167  0.017
   16  H  0.0050  0.005
   17  H  0.0197  0.020
   18  H  0.0233  0.023
   19  H -0.0003 -0.000
   20  H  0.0249  0.025
   21  H  0.0203  0.020
   22  H -0.0000 -0.000
   23  H  0.0001  0.000
   24  H  0.0000  0.000
   25  H  0.0001  0.000

 **********************
 *                    *
 * JOB ENDED NORMALLY *
 *                    *
 **********************



 TOTAL JOB TIME:             1.46 SECONDS

 == MOPAC DONE ==
