 *******************************************************************************
 **                                                                           **
 **                              MOPAC v23.2                                  **
 **                                                                           **
 *******************************************************************************
 **          Digital Object Identifier (DOI): 10.5281/zenodo.6511958          **
 **    Visit the DOI location for information on how to cite this program.    **
 *******************************************************************************

                              PM7 CALCULATION RESULTS

 *******************************************************************************
 *  CALCULATION DONE: (MAX THREADS = 40)             Fri Sep 19 21:31:33 2025  *
 *  PM7        - The PM7 Hamiltonian to be used
 *
 *
 *
 *                 CHARGE ON SYSTEM = +1
 *
 *
 *
 *  EPS=37.5   - USE ANDREAS KLAMT'S COSMO IMPLICIT SOLVATION MODEL
 *  1SCF       - DO 1 SCF AND THEN STOP 
 *  T=         - A TIME OF 172800.0 SECONDS REQUESTED
 *  DUMP=N     - RESTART FILE WRITTEN EVERY 7200.0 SECONDS REQUESTED
 *  RELSCF     - DEFAULT SCF CRITERION MULTIPLIED BY 0.0001
 *              (DEFAULT SCF CRITERION = 0.00010)
 *  GRADIENTS  - ALL GRADIENTS TO BE PRINTED
 *  DISP       - PRINT DISPERSION AND HYDROGEN BOND ENERGIES
 *******************************************************************************
PM7 1SCF GRADIENTS EPS=37.5 DISP RELSCF=0.0001 CHARGE=1
 Title: ASE calculation

   ATOM   CHEMICAL          X               Y               Z
  NUMBER   SYMBOL      (ANGSTROMS)     (ANGSTROMS)     (ANGSTROMS)

     1       C          2.72079767  *  -0.48783819  *   1.17576891  *
     2       C          1.21988363  *  -0.76618458  *   1.18517131  *
     3       C          0.52963110  *  -0.03142121  *   0.02575725  *
     4       C         -0.99819997  *  -0.20493303  *   0.05647655  *
     5       C         -1.41524713  *  -1.66546488  *  -0.05863831  *
     6       C         -1.66540582  *   0.50950500  *   1.28097751  *
     7       C         -2.54544408  *   1.50310594  *   0.67560783  *
     8       O         -2.46029114  *   1.47019864  *  -0.70281166  *
     9       C         -1.61390582  *   0.54916493  *  -1.08357705  *
    10       H          3.19337410  *  -0.80280908  *   0.23693107  *
    11       H          2.94884426  *   0.57474593  *   1.32140591  *
    12       H          3.22725848  *  -1.03690668  *   1.98436791  *
    13       H          0.79120735  *  -0.46102805  *   2.15853269  *
    14       H          1.04982676  *  -1.85957540  *   1.10670982  *
    15       H          0.94084865  *  -0.41605361  *  -0.93265708  *
    16       H          0.80503433  *   1.04286609  *   0.06079976  *
    17       H         -1.10058775  *  -2.24003324  *   0.83091718  *
    18       H         -2.50129396  *  -1.80558314  *  -0.14373954  *
    19       H         -0.94319907  *  -2.17132104  *  -0.91615734  *
    20       H         -0.90509116  *   0.96411553  *   1.96405867  *
    21       H         -2.20445465  *  -0.20833000  *   1.94551224  *
    22       H         -3.22725848  *   2.24003324  *   1.05247796  *
    23       H         -1.48031461  *   0.44456859  *  -2.15853269  *



          CARTESIAN COORDINATES 

    NO.       ATOM           X           Y           Z

     1         C          2.7208     -0.4878      1.1758
     2         C          1.2199     -0.7662      1.1852
     3         C          0.5296     -0.0314      0.0258
     4         C         -0.9982     -0.2049      0.0565
     5         C         -1.4152     -1.6655     -0.0586
     6         C         -1.6654      0.5095      1.2810
     7         C         -2.5454      1.5031      0.6756
     8         O         -2.4603      1.4702     -0.7028
     9         C         -1.6139      0.5492     -1.0836
    10         H          3.1934     -0.8028      0.2369
    11         H          2.9488      0.5747      1.3214
    12         H          3.2273     -1.0369      1.9844
    13         H          0.7912     -0.4610      2.1585
    14         H          1.0498     -1.8596      1.1067
    15         H          0.9408     -0.4161     -0.9327
    16         H          0.8050      1.0429      0.0608
    17         H         -1.1006     -2.2400      0.8309
    18         H         -2.5013     -1.8056     -0.1437
    19         H         -0.9432     -2.1713     -0.9162
    20         H         -0.9051      0.9641      1.9641
    21         H         -2.2045     -0.2083      1.9455
    22         H         -3.2273      2.2400      1.0525
    23         H         -1.4803      0.4446     -2.1585

 General Reference for PM7:
 "Optimization of Parameters for Semiempirical Methods VI: More Modifications to the 
 NDDO Approximations and Re-optimization of Parameters", J. J. P. Stewart, J. Mol. Mod., 1:32, 19 (2013)
 https://link.springer.com/article/10.1007/s00894-012-1667-x

           Empirical Formula: C8 H14 O  =    23 atoms



      MOLECULAR POINT GROUP   :   C1  


          UHF CALCULATION, NO. OF ALPHA ELECTRONS =   26
                           NO. OF BETA  ELECTRONS =   25
  SCF CRITERION =    0.1000E-07

 -------------------------------------------------------------------------------
 PM7 1SCF GRADIENTS EPS=37.5 DISP RELSCF=0.0001 CHARGE=1
 Title: ASE calculation



     1SCF WAS SPECIFIED, SO BFGS WAS NOT USED                 
     SCF FIELD WAS ACHIEVED                                   


                              PM7 CALCULATION
                                                       MOPAC v23.2 Linux
                                                       Fri Sep 19 21:31:36 2025




          FINAL HEAT OF FORMATION =         96.74332 KCAL/MOL =     404.77403 KJ/MOL

          TOTAL ENERGY            =     -33683.11038 KCAL/MOL = ELECTRONIC ENERGY + CORE-CORE REPULSION + SOLVATION ENERGY
          ENERGY OF ATOMS         =      33782.22825 KCAL/MOL
                              SUM =         99.11787 KCAL/MOL
          DISPERSION ENERGY       =         -2.37455 KCAL/MOL
                              SUM =         96.74332 KCAL/MOL = FINAL HEAT OF FORMATION

          VAN DER WAALS AREA      =        175.48 SQUARE ANGSTROMS


          TOTAL ENERGY            =      -1460.63791 EV
          ELECTRONIC ENERGY       =      -2370.72486 EV 
          CORE-CORE REPULSION     =        910.08695 EV

          DIELECTRIC ENERGY       =         -2.28148 EV
          COSMO AREA              =        175.48 SQUARE ANGSTROMS
          COSMO VOLUME            =        179.28 CUBIC ANGSTROMS

          GRADIENT NORM           =         14.93926          =       3.11505 PER ATOM
          IONIZATION POTENTIAL    =          9.844295 EV
          ALPHA SOMO LUMO (EV)    =         -9.844 -1.964
          BETA  SOMO LUMO (EV)    =        -11.670 -1.936
          NO. OF ALPHA ELECTRONS  =         26
          NO. OF BETA  ELECTRONS  =         25
          MOLECULAR WEIGHT        =        126.1980         POINT GROUP:  C1  

          MOLECULAR DIMENSIONS (Angstroms)

            Atom       Atom       Distance
            H    22    H    12     7.29846
            H    18    H    11     4.69114
            H    23    H    21     4.21439


          SCF CALCULATIONS        =          2

          WALL-CLOCK TIME         =      2.352 SECONDS
          COMPUTATION TIME        =      1.262 SECONDS

          LARGEST ATOMIC GRADIENTS

          Atom     Label                     Cartesian Gradients           Cartesian Coordinates       |Gradient|
                                           X          Y          Z        X          Y          Z

             8       O                  -3.879      3.791      5.855   -2.46029    1.47020   -0.70281      7.982
             9       C                   3.298     -3.613     -2.940   -1.61391    0.54916   -1.08358      5.707
             1       C                  -3.803      1.468     -1.999    2.72080   -0.48784    1.17577      4.540
             5       C                  -2.537      2.759     -1.779   -1.41525   -1.66546   -0.05864      4.148
             7       C                   1.144     -1.138     -3.610   -2.54544    1.50311    0.67561      3.955
             6       C                  -2.826      2.163     -1.572   -1.66541    0.50950    1.28098      3.890
             3       C                  -0.672      2.592     -2.529    0.52963   -0.03142    0.02576      3.683
            23       H                   0.120     -0.492      2.468   -1.48031    0.44457   -2.15853      2.520
            19       H                   0.973     -1.652      0.462   -0.94320   -2.17132   -0.91616      1.972
            15       H                   1.481     -0.968      0.720    0.94085   -0.41605   -0.93266      1.911



       FINAL  POINT  AND  DERIVATIVES

   PARAMETER     ATOM    TYPE            VALUE        GRADIENT
      1          1  C    CARTESIAN X     2.720798     -3.802903  KCAL/ANGSTROM
      2          1  C    CARTESIAN Y    -0.487838      1.468000  KCAL/ANGSTROM
      3          1  C    CARTESIAN Z     1.175769     -1.999447  KCAL/ANGSTROM
      4          2  C    CARTESIAN X     1.219884     -1.454315  KCAL/ANGSTROM
      5          2  C    CARTESIAN Y    -0.766185     -0.089205  KCAL/ANGSTROM
      6          2  C    CARTESIAN Z     1.185171      0.701818  KCAL/ANGSTROM
      7          3  C    CARTESIAN X     0.529631     -0.672062  KCAL/ANGSTROM
      8          3  C    CARTESIAN Y    -0.031421      2.591923  KCAL/ANGSTROM
      9          3  C    CARTESIAN Z     0.025757     -2.528703  KCAL/ANGSTROM
     10          4  C    CARTESIAN X    -0.998200     -0.815218  KCAL/ANGSTROM
     11          4  C    CARTESIAN Y    -0.204933     -0.014544  KCAL/ANGSTROM
     12          4  C    CARTESIAN Z     0.056477     -1.675221  KCAL/ANGSTROM
     13          5  C    CARTESIAN X    -1.415247     -2.536548  KCAL/ANGSTROM
     14          5  C    CARTESIAN Y    -1.665465      2.758590  KCAL/ANGSTROM
     15          5  C    CARTESIAN Z    -0.058638     -1.779316  KCAL/ANGSTROM
     16          6  C    CARTESIAN X    -1.665406     -2.825858  KCAL/ANGSTROM
     17          6  C    CARTESIAN Y     0.509505      2.162851  KCAL/ANGSTROM
     18          6  C    CARTESIAN Z     1.280978     -1.571682  KCAL/ANGSTROM
     19          7  C    CARTESIAN X    -2.545444      1.144204  KCAL/ANGSTROM
     20          7  C    CARTESIAN Y     1.503106     -1.138054  KCAL/ANGSTROM
     21          7  C    CARTESIAN Z     0.675608     -3.610468  KCAL/ANGSTROM
     22          8  O    CARTESIAN X    -2.460291     -3.878971  KCAL/ANGSTROM
     23          8  O    CARTESIAN Y     1.470199      3.791342  KCAL/ANGSTROM
     24          8  O    CARTESIAN Z    -0.702812      5.855283  KCAL/ANGSTROM
     25          9  C    CARTESIAN X    -1.613906      3.298060  KCAL/ANGSTROM
     26          9  C    CARTESIAN Y     0.549165     -3.613382  KCAL/ANGSTROM
     27          9  C    CARTESIAN Z    -1.083577     -2.939657  KCAL/ANGSTROM
     28         10  H    CARTESIAN X     3.193374      1.324326  KCAL/ANGSTROM
     29         10  H    CARTESIAN Y    -0.802809     -0.772646  KCAL/ANGSTROM
     30         10  H    CARTESIAN Z     0.236931      0.451231  KCAL/ANGSTROM
     31         11  H    CARTESIAN X     2.948844      1.328825  KCAL/ANGSTROM
     32         11  H    CARTESIAN Y     0.574746     -0.162783  KCAL/ANGSTROM
     33         11  H    CARTESIAN Z     1.321406      0.841987  KCAL/ANGSTROM
     34         12  H    CARTESIAN X     3.227258      0.879613  KCAL/ANGSTROM
     35         12  H    CARTESIAN Y    -1.036907     -0.654040  KCAL/ANGSTROM
     36         12  H    CARTESIAN Z     1.984368      0.626948  KCAL/ANGSTROM
     37         13  H    CARTESIAN X     0.791207      1.391841  KCAL/ANGSTROM
     38         13  H    CARTESIAN Y    -0.461028     -0.148295  KCAL/ANGSTROM
     39         13  H    CARTESIAN Z     2.158533      0.288756  KCAL/ANGSTROM
     40         14  H    CARTESIAN X     1.049827      1.295917  KCAL/ANGSTROM
     41         14  H    CARTESIAN Y    -1.859575     -0.668923  KCAL/ANGSTROM
     42         14  H    CARTESIAN Z     1.106710      0.045273  KCAL/ANGSTROM
     43         15  H    CARTESIAN X     0.940849      1.481474  KCAL/ANGSTROM
     44         15  H    CARTESIAN Y    -0.416054     -0.968319  KCAL/ANGSTROM
     45         15  H    CARTESIAN Z    -0.932657      0.720310  KCAL/ANGSTROM
     46         16  H    CARTESIAN X     0.805034      1.468830  KCAL/ANGSTROM
     47         16  H    CARTESIAN Y     1.042866     -0.401852  KCAL/ANGSTROM
     48         16  H    CARTESIAN Z     0.060800      0.716305  KCAL/ANGSTROM
     49         17  H    CARTESIAN X    -1.100588      0.868991  KCAL/ANGSTROM
     50         17  H    CARTESIAN Y    -2.240033     -1.229639  KCAL/ANGSTROM
     51         17  H    CARTESIAN Z     0.830917      0.213219  KCAL/ANGSTROM
     52         18  H    CARTESIAN X    -2.501294      0.278870  KCAL/ANGSTROM
     53         18  H    CARTESIAN Y    -1.805583     -1.399147  KCAL/ANGSTROM
     54         18  H    CARTESIAN Z    -0.143740      0.557383  KCAL/ANGSTROM
     55         19  H    CARTESIAN X    -0.943199      0.972725  KCAL/ANGSTROM
     56         19  H    CARTESIAN Y    -2.171321     -1.651556  KCAL/ANGSTROM
     57         19  H    CARTESIAN Z    -0.916157      0.462197  KCAL/ANGSTROM
     58         20  H    CARTESIAN X    -0.905091      1.180067  KCAL/ANGSTROM
     59         20  H    CARTESIAN Y     0.964116     -0.018681  KCAL/ANGSTROM
     60         20  H    CARTESIAN Z     1.964059      0.871232  KCAL/ANGSTROM
     61         21  H    CARTESIAN X    -2.204455      0.060763  KCAL/ANGSTROM
     62         21  H    CARTESIAN Y    -0.208330     -0.624549  KCAL/ANGSTROM
     63         21  H    CARTESIAN Z     1.945512      0.978399  KCAL/ANGSTROM
     64         22  H    CARTESIAN X    -3.227258     -1.108393  KCAL/ANGSTROM
     65         22  H    CARTESIAN Y     2.240033      1.275263  KCAL/ANGSTROM
     66         22  H    CARTESIAN Z     1.052478      0.305724  KCAL/ANGSTROM
     67         23  H    CARTESIAN X    -1.480315      0.119761  KCAL/ANGSTROM
     68         23  H    CARTESIAN Y     0.444569     -0.492359  KCAL/ANGSTROM
     69         23  H    CARTESIAN Z    -2.158533      2.468423  KCAL/ANGSTROM




   ATOM   CHEMICAL          X               Y               Z
  NUMBER   SYMBOL      (ANGSTROMS)     (ANGSTROMS)     (ANGSTROMS)

     1       C          2.72079767  *  -0.48783819  *   1.17576891  *
     2       C          1.21988363  *  -0.76618458  *   1.18517131  *
     3       C          0.52963110  *  -0.03142121  *   0.02575725  *
     4       C         -0.99819997  *  -0.20493303  *   0.05647655  *
     5       C         -1.41524713  *  -1.66546488  *  -0.05863831  *
     6       C         -1.66540582  *   0.50950500  *   1.28097751  *
     7       C         -2.54544408  *   1.50310594  *   0.67560783  *
     8       O         -2.46029114  *   1.47019864  *  -0.70281166  *
     9       C         -1.61390582  *   0.54916493  *  -1.08357705  *
    10       H          3.19337410  *  -0.80280908  *   0.23693107  *
    11       H          2.94884426  *   0.57474593  *   1.32140591  *
    12       H          3.22725848  *  -1.03690668  *   1.98436791  *
    13       H          0.79120735  *  -0.46102805  *   2.15853269  *
    14       H          1.04982676  *  -1.85957540  *   1.10670982  *
    15       H          0.94084865  *  -0.41605361  *  -0.93265708  *
    16       H          0.80503433  *   1.04286609  *   0.06079976  *
    17       H         -1.10058775  *  -2.24003324  *   0.83091718  *
    18       H         -2.50129396  *  -1.80558314  *  -0.14373954  *
    19       H         -0.94319907  *  -2.17132104  *  -0.91615734  *
    20       H         -0.90509116  *   0.96411553  *   1.96405867  *
    21       H         -2.20445465  *  -0.20833000  *   1.94551224  *
    22       H         -3.22725848  *   2.24003324  *   1.05247796  *
    23       H         -1.48031461  *   0.44456859  *  -2.15853269  *

                             CARTESIAN COORDINATES

   1    C        2.720797665    -0.487838188     1.175768909
   2    C        1.219883634    -0.766184577     1.185171312
   3    C        0.529631097    -0.031421211     0.025757251
   4    C       -0.998199968    -0.204933029     0.056476552
   5    C       -1.415247127    -1.665464876    -0.058638312
   6    C       -1.665405821     0.509504996     1.280977512
   7    C       -2.545444083     1.503105945     0.675607832
   8    O       -2.460291137     1.470198635    -0.702811659
   9    C       -1.613905824     0.549164932    -1.083577045
  10    H        3.193374096    -0.802809076     0.236931071
  11    H        2.948844262     0.574745935     1.321405908
  12    H        3.227258481    -1.036906684     1.984367913
  13    H        0.791207349    -0.461028051     2.158532692
  14    H        1.049826761    -1.859575396     1.106709819
  15    H        0.940848650    -0.416053611    -0.932657081
  16    H        0.805034333     1.042866086     0.060799765
  17    H       -1.100587747    -2.240033235     0.830917178
  18    H       -2.501293956    -1.805583142    -0.143739541
  19    H       -0.943199074    -2.171321044    -0.916157338
  20    H       -0.905091157     0.964115526     1.964058675
  21    H       -2.204454652    -0.208329996     1.945512240
  22    H       -3.227258481     2.240033235     1.052477963
  23    H       -1.480314606     0.444568592    -2.158532692


           Empirical Formula: C8 H14 O  =    23 atoms



      MOLECULAR POINT GROUP   :   C1  


          ALPHA EIGENVALUES  
 -34.76815 -30.81515 -27.96446 -27.01935 -24.95319 -24.05237 -22.40186 -20.76309
 -20.00974 -18.44524 -17.43484 -16.69108 -16.31748 -15.48551 -15.39791 -14.76738
 -14.64389 -14.57368 -13.68316 -13.46156 -13.21717 -12.82496 -12.46900 -12.13483
 -11.67265  -9.84429  -1.96390   0.14178   1.61261   2.04599   2.87673   2.96708
   3.08802   3.43457   3.91861   4.15242   4.31227   4.66193   4.95247   5.04178
   5.20798   5.28174   5.46373   5.57458   5.66531   5.89016   6.03141   6.30304
   6.48826   6.84836


           BETA EIGENVALUES 
 -35.08098 -30.88006 -27.96606 -26.85132 -24.94121 -24.03736 -22.30457 -20.66825
 -19.97742 -18.43457 -17.21665 -16.64554 -16.25029 -15.49470 -15.37636 -14.76593
 -14.56748 -14.45122 -13.53965 -13.40950 -13.20748 -12.80730 -12.42955 -12.11843
 -11.66982  -1.93599  -0.30891   0.20574   1.67994   2.11832   2.90218   3.09803
   3.32955   3.45331   3.92564   4.19598   4.31754   4.75958   5.04297   5.11429
   5.21148   5.28394   5.47432   5.61593   5.67002   5.89114   6.03294   6.30506
   6.48901   6.84845


              NET ATOMIC CHARGES AND DIPOLE CONTRIBUTIONS

  ATOM NO.   TYPE          CHARGE      No. of ELECS.   s-Pop       p-Pop       
    1          C          -0.448170        4.4482     1.05278     3.39539
    2          C          -0.250301        4.2503     1.05575     3.19455
    3          C          -0.294633        4.2946     1.06758     3.22705
    4          C           0.001323        3.9987     1.07504     2.92364
    5          C          -0.466786        4.4668     1.05716     3.40962
    6          C          -0.353813        4.3538     1.07179     3.28202
    7          C           0.008573        3.9914     1.17258     2.81885
    8          O          -0.028948        6.0289     1.85475     4.17420
    9          C           0.295393        3.7046     1.23529     2.46931
   10          H           0.151744        0.8483     0.84826
   11          H           0.151085        0.8489     0.84891
   12          H           0.154606        0.8454     0.84539
   13          H           0.143942        0.8561     0.85606
   14          H           0.147923        0.8521     0.85208
   15          H           0.170866        0.8291     0.82913
   16          H           0.166194        0.8338     0.83381
   17          H           0.186073        0.8139     0.81393
   18          H           0.175800        0.8242     0.82420
   19          H           0.179645        0.8204     0.82036
   20          H           0.220009        0.7800     0.77999
   21          H           0.221611        0.7784     0.77839
   22          H           0.223768        0.7762     0.77623
   23          H           0.244098        0.7559     0.75590
 DIPOLE           X         Y         Z       TOTAL
 POINT-CHG.    -3.776     1.354    -2.092     4.524
 HYBRID        -0.371     0.349    -0.314     0.598
 SUM           -4.147     1.703    -2.406     5.088


          ATOMIC ORBITAL ELECTRON POPULATIONS

     Atom    s        px        py        pz   
    1  C   1.05278   1.03125   1.17963   1.18451
    2  C   1.05575   1.00660   1.12378   1.06416
    3  C   1.06758   0.94048   1.16115   1.12542
    4  C   1.07504   1.01430   0.99406   0.91528
    5  C   1.05716   1.19076   0.99773   1.22114
    6  C   1.07179   1.11411   1.08873   1.07918
    7  C   1.17258   1.03183   1.03642   0.75060
    8  O   1.85475   1.43455   1.41685   1.32280
    9  C   1.23529   0.68463   0.70886   1.07582
   10  H   0.84826
   11  H   0.84891
   12  H   0.84539
   13  H   0.85606
   14  H   0.85208
   15  H   0.82913
   16  H   0.83381
   17  H   0.81393
   18  H   0.82420
   19  H   0.82036
   20  H   0.77999
   21  H   0.77839
   22  H   0.77623
   23  H   0.75590


                    (SZ)    =    0.500000
                    (S**2)  =    0.767440


          ATOMIC ORBITAL SPIN POPULATIONS

    Atom   Total    s     px     py     pz   
         Atomic
    1  C  0.0002  0.000  0.000  0.000  0.000
    2  C -0.0001 -0.000 -0.000 -0.000  0.000
    3  C  0.0102  0.002  0.008  0.000  0.000
    4  C -0.0116 -0.001 -0.003 -0.003 -0.005
    5  C  0.0112  0.002  0.001  0.008  0.000
    6  C -0.0283 -0.005 -0.006 -0.009 -0.008
    7  C  0.8677  0.023  0.446  0.370  0.029
    8  O -0.1348 -0.004 -0.057 -0.049 -0.025
    9  C  0.2630  0.007  0.135  0.112  0.009
   10  H  0.0000  0.000
   11  H -0.0000 -0.000
   12  H  0.0000  0.000
   13  H -0.0000 -0.000
   14  H  0.0000  0.000
   15  H -0.0003 -0.000
   16  H -0.0004 -0.000
   17  H -0.0001 -0.000
   18  H -0.0004 -0.000
   19  H -0.0003 -0.000
   20  H  0.0276  0.028
   21  H  0.0261  0.026
   22  H -0.0224 -0.022
   23  H -0.0075 -0.007

 **********************
 *                    *
 * JOB ENDED NORMALLY *
 *                    *
 **********************



 TOTAL JOB TIME:             2.76 SECONDS

 == MOPAC DONE ==
