 *******************************************************************************
 **                                                                           **
 **                              MOPAC v23.2                                  **
 **                                                                           **
 *******************************************************************************
 **          Digital Object Identifier (DOI): 10.5281/zenodo.6511958          **
 **    Visit the DOI location for information on how to cite this program.    **
 *******************************************************************************

                              PM7 CALCULATION RESULTS

 *******************************************************************************
 *  CALCULATION DONE: (MAX THREADS = 40)             Fri Sep 19 21:40:27 2025  *
 *  PM7        - The PM7 Hamiltonian to be used
 *  1SCF       - DO 1 SCF AND THEN STOP 
 *  T=         - A TIME OF 172800.0 SECONDS REQUESTED
 *  DUMP=N     - RESTART FILE WRITTEN EVERY 7200.0 SECONDS REQUESTED
 *  RELSCF     - DEFAULT SCF CRITERION MULTIPLIED BY 0.0001
 *              (DEFAULT SCF CRITERION = 0.00010)
 *  GRADIENTS  - ALL GRADIENTS TO BE PRINTED
 *  DISP       - PRINT DISPERSION AND HYDROGEN BOND ENERGIES
 *******************************************************************************
PM7 1SCF GRADIENTS DISP RELSCF=0.0001
 Title: ASE calculation

   ATOM   CHEMICAL          X               Y               Z
  NUMBER   SYMBOL      (ANGSTROMS)     (ANGSTROMS)     (ANGSTROMS)

     1       C          1.90733368  *   2.32271358  *   0.99693658  *
     2       C          1.43022928  *   1.44586047  *   0.31194179  *
     3       C          0.88416351  *   0.41451197  *  -0.50200311  *
     4       C          1.37436780  *  -1.02334868  *  -0.11215557  *
     5       N          0.64878386  *  -1.96742357  *  -0.98578261  *
     6       C         -0.06985555  *  -1.44819494  *   0.20629512  *
     7       C         -0.56018858  *  -0.04180112  *  -0.13104086  *
     8       C         -1.69429522  *   0.72391201  *   0.41077641  *
     9       O         -1.67293922  *   0.23376438  *  -0.94324087  *
    10       H          2.31673853  *   3.06833293  *   1.57470023  *
    11       H          0.98705846  *   0.62342844  *  -1.59326403  *
    12       H          2.31395645  *  -1.20478544  *   0.36468477  *
    13       H          0.93630646  *  -2.93828859  *  -0.93227483  *
    14       H         -0.50524656  *  -2.06237553  *   0.96757538  *
    15       H         -2.43213743  *   0.25807816  *   1.05907286  *
    16       H         -1.64294703  *   1.80584277  *   0.51410989  *



          CARTESIAN COORDINATES 

    NO.       ATOM           X           Y           Z

     1         C          1.9073      2.3227      0.9969
     2         C          1.4302      1.4459      0.3119
     3         C          0.8842      0.4145     -0.5020
     4         C          1.3744     -1.0233     -0.1122
     5         N          0.6488     -1.9674     -0.9858
     6         C         -0.0699     -1.4482      0.2063
     7         C         -0.5602     -0.0418     -0.1310
     8         C         -1.6943      0.7239      0.4108
     9         O         -1.6729      0.2338     -0.9432
    10         H          2.3167      3.0683      1.5747
    11         H          0.9871      0.6234     -1.5933
    12         H          2.3140     -1.2048      0.3647
    13         H          0.9363     -2.9383     -0.9323
    14         H         -0.5052     -2.0624      0.9676
    15         H         -2.4321      0.2581      1.0591
    16         H         -1.6429      1.8058      0.5141

 General Reference for PM7:
 "Optimization of Parameters for Semiempirical Methods VI: More Modifications to the 
 NDDO Approximations and Re-optimization of Parameters", J. J. P. Stewart, J. Mol. Mod., 1:32, 19 (2013)
 https://link.springer.com/article/10.1007/s00894-012-1667-x

           Empirical Formula: C7 H7 N O  =    16 atoms



      MOLECULAR POINT GROUP   :   C1  


      RHF CALCULATION, NO. OF DOUBLY OCCUPIED LEVELS = 23

  SCF CRITERION =    0.1000E-07

 -------------------------------------------------------------------------------
 PM7 1SCF GRADIENTS DISP RELSCF=0.0001
 Title: ASE calculation



     1SCF WAS SPECIFIED, SO BFGS WAS NOT USED                 
     SCF FIELD WAS ACHIEVED                                   


                              PM7 CALCULATION
                                                       MOPAC v23.2 Linux
                                                       Fri Sep 19 21:40:28 2025




          FINAL HEAT OF FORMATION =        119.74001 KCAL/MOL =     500.99222 KJ/MOL

          TOTAL ENERGY            =     -32985.12127 KCAL/MOL = ELECTRONIC ENERGY + CORE-CORE REPULSION
          ENERGY OF ATOMS         =      33094.39424 KCAL/MOL
                              SUM =        109.27297 KCAL/MOL
          DISPERSION ENERGY       =         -1.53293 KCAL/MOL
                              SUM =        107.74004 KCAL/MOL = FINAL HEAT OF FORMATION

     *    WARNING - An energy term is incorrect or missing!

     *    FINAL HEAT OF FORMATION     =    119.74001 KCAL/MOL
     *    SUM OF CONTRIBUTIONS TO HoF =    107.74004 KCAL/MOL
     *                     DIFFERENCE =     11.99997 KCAL/MOL



          TOTAL ENERGY            =      -1430.37024 EV
          ELECTRONIC ENERGY       =      -6555.03120 EV 
          CORE-CORE REPULSION     =       5124.66096 EV
          COSMO AREA              =        158.19 SQUARE ANGSTROMS
          COSMO VOLUME            =        155.23 CUBIC ANGSTROMS

          GRADIENT NORM           =          0.87915          =       0.21979 PER ATOM
          IONIZATION POTENTIAL    =          9.959014 EV
          HOMO LUMO ENERGIES (EV) =         -9.959  1.055
          NO. OF FILLED LEVELS    =         23
          MOLECULAR WEIGHT        =        121.1384         POINT GROUP:  C1  

          MOLECULAR DIMENSIONS (Angstroms)

            Atom       Atom       Distance
            H    13    H    10     6.65357
            H    15    H    12     4.97900
            H    14    H    11     3.37946


          SCF CALCULATIONS        =          1

          WALL-CLOCK TIME         =      0.781 SECONDS
          COMPUTATION TIME        =      0.622 SECONDS

          LARGEST ATOMIC GRADIENTS

          Atom     Label                     Cartesian Gradients           Cartesian Coordinates       |Gradient|
                                           X          Y          Z        X          Y          Z

            10       H                   0.327      0.048     -0.125    2.31674    3.06833    1.57470      0.353
             8       C                  -0.188      0.045     -0.264   -1.69430    0.72391    0.41078      0.327
             1       C                   0.018      0.016      0.326    1.90733    2.32271    0.99694      0.327
            11       H                   0.153      0.116      0.202    0.98706    0.62343   -1.59326      0.279
             7       C                  -0.218     -0.112      0.093   -0.56019   -0.04180   -0.13104      0.262
            12       H                   0.079      0.100     -0.167    2.31396   -1.20479    0.36468      0.210
            16       H                  -0.178      0.009      0.102   -1.64295    1.80584    0.51411      0.206
             4       C                   0.067      0.015     -0.181    1.37437   -1.02335   -0.11216      0.194
             2       C                  -0.016     -0.010     -0.177    1.43023    1.44586    0.31194      0.178
             9       O                  -0.078     -0.076     -0.121   -1.67294    0.23376   -0.94324      0.163



       FINAL  POINT  AND  DERIVATIVES

   PARAMETER     ATOM    TYPE            VALUE        GRADIENT
      1          1  C    CARTESIAN X     1.907334      0.017525  KCAL/ANGSTROM
      2          1  C    CARTESIAN Y     2.322714      0.016348  KCAL/ANGSTROM
      3          1  C    CARTESIAN Z     0.996937      0.325903  KCAL/ANGSTROM
      4          2  C    CARTESIAN X     1.430229     -0.016256  KCAL/ANGSTROM
      5          2  C    CARTESIAN Y     1.445860     -0.009568  KCAL/ANGSTROM
      6          2  C    CARTESIAN Z     0.311942     -0.176745  KCAL/ANGSTROM
      7          3  C    CARTESIAN X     0.884164     -0.045711  KCAL/ANGSTROM
      8          3  C    CARTESIAN Y     0.414512     -0.027088  KCAL/ANGSTROM
      9          3  C    CARTESIAN Z    -0.502003      0.103460  KCAL/ANGSTROM
     10          4  C    CARTESIAN X     1.374368      0.066549  KCAL/ANGSTROM
     11          4  C    CARTESIAN Y    -1.023349      0.014904  KCAL/ANGSTROM
     12          4  C    CARTESIAN Z    -0.112156     -0.181099  KCAL/ANGSTROM
     13          5  N    CARTESIAN X     0.648784     -0.129177  KCAL/ANGSTROM
     14          5  N    CARTESIAN Y    -1.967424     -0.067101  KCAL/ANGSTROM
     15          5  N    CARTESIAN Z    -0.985783      0.059671  KCAL/ANGSTROM
     16          6  C    CARTESIAN X    -0.069856      0.025668  KCAL/ANGSTROM
     17          6  C    CARTESIAN Y    -1.448195     -0.021958  KCAL/ANGSTROM
     18          6  C    CARTESIAN Z     0.206295      0.136993  KCAL/ANGSTROM
     19          7  C    CARTESIAN X    -0.560189     -0.217628  KCAL/ANGSTROM
     20          7  C    CARTESIAN Y    -0.041801     -0.112495  KCAL/ANGSTROM
     21          7  C    CARTESIAN Z    -0.131041      0.092959  KCAL/ANGSTROM
     22          8  C    CARTESIAN X    -1.694295     -0.188122  KCAL/ANGSTROM
     23          8  C    CARTESIAN Y     0.723912      0.045128  KCAL/ANGSTROM
     24          8  C    CARTESIAN Z     0.410776     -0.263749  KCAL/ANGSTROM
     25          9  O    CARTESIAN X    -1.672939     -0.078318  KCAL/ANGSTROM
     26          9  O    CARTESIAN Y     0.233764     -0.075786  KCAL/ANGSTROM
     27          9  O    CARTESIAN Z    -0.943241     -0.121089  KCAL/ANGSTROM
     28         10  H    CARTESIAN X     2.316739      0.327094  KCAL/ANGSTROM
     29         10  H    CARTESIAN Y     3.068333      0.047516  KCAL/ANGSTROM
     30         10  H    CARTESIAN Z     1.574700     -0.124564  KCAL/ANGSTROM
     31         11  H    CARTESIAN X     0.987058      0.152842  KCAL/ANGSTROM
     32         11  H    CARTESIAN Y     0.623428      0.116173  KCAL/ANGSTROM
     33         11  H    CARTESIAN Z    -1.593264      0.202191  KCAL/ANGSTROM
     34         12  H    CARTESIAN X     2.313956      0.079306  KCAL/ANGSTROM
     35         12  H    CARTESIAN Y    -1.204785      0.099706  KCAL/ANGSTROM
     36         12  H    CARTESIAN Z     0.364685     -0.166674  KCAL/ANGSTROM
     37         13  H    CARTESIAN X     0.936306      0.040457  KCAL/ANGSTROM
     38         13  H    CARTESIAN Y    -2.938289     -0.011834  KCAL/ANGSTROM
     39         13  H    CARTESIAN Z    -0.932275      0.093987  KCAL/ANGSTROM
     40         14  H    CARTESIAN X    -0.505247      0.082714  KCAL/ANGSTROM
     41         14  H    CARTESIAN Y    -2.062376     -0.118573  KCAL/ANGSTROM
     42         14  H    CARTESIAN Z     0.967575     -0.038140  KCAL/ANGSTROM
     43         15  H    CARTESIAN X    -2.432137      0.061102  KCAL/ANGSTROM
     44         15  H    CARTESIAN Y     0.258078      0.095859  KCAL/ANGSTROM
     45         15  H    CARTESIAN Z     1.059073     -0.045416  KCAL/ANGSTROM
     46         16  H    CARTESIAN X    -1.642947     -0.178047  KCAL/ANGSTROM
     47         16  H    CARTESIAN Y     1.805843      0.008768  KCAL/ANGSTROM
     48         16  H    CARTESIAN Z     0.514110      0.102309  KCAL/ANGSTROM




   ATOM   CHEMICAL          X               Y               Z
  NUMBER   SYMBOL      (ANGSTROMS)     (ANGSTROMS)     (ANGSTROMS)

     1       C          1.90733368  *   2.32271358  *   0.99693658  *
     2       C          1.43022928  *   1.44586047  *   0.31194179  *
     3       C          0.88416351  *   0.41451197  *  -0.50200311  *
     4       C          1.37436780  *  -1.02334868  *  -0.11215557  *
     5       N          0.64878386  *  -1.96742357  *  -0.98578261  *
     6       C         -0.06985555  *  -1.44819494  *   0.20629512  *
     7       C         -0.56018858  *  -0.04180112  *  -0.13104086  *
     8       C         -1.69429522  *   0.72391201  *   0.41077641  *
     9       O         -1.67293922  *   0.23376438  *  -0.94324087  *
    10       H          2.31673853  *   3.06833293  *   1.57470023  *
    11       H          0.98705846  *   0.62342844  *  -1.59326403  *
    12       H          2.31395645  *  -1.20478544  *   0.36468477  *
    13       H          0.93630646  *  -2.93828859  *  -0.93227483  *
    14       H         -0.50524656  *  -2.06237553  *   0.96757538  *
    15       H         -2.43213743  *   0.25807816  *   1.05907286  *
    16       H         -1.64294703  *   1.80584277  *   0.51410989  *

                             CARTESIAN COORDINATES

   1    C        1.907333683     2.322713584     0.996936579
   2    C        1.430229276     1.445860468     0.311941791
   3    C        0.884163508     0.414511973    -0.502003110
   4    C        1.374367797    -1.023348684    -0.112155574
   5    N        0.648783864    -1.967423573    -0.985782606
   6    C       -0.069855549    -1.448194944     0.206295115
   7    C       -0.560188577    -0.041801116    -0.131040856
   8    C       -1.694295223     0.723912009     0.410776409
   9    O       -1.672939223     0.233764382    -0.943240873
  10    H        2.316738531     3.068332930     1.574700228
  11    H        0.987058460     0.623428437    -1.593264029
  12    H        2.313956445    -1.204785442     0.364684768
  13    H        0.936306463    -2.938288589    -0.932274832
  14    H       -0.505246556    -2.062375532     0.967575384
  15    H       -2.432137431     0.258078156     1.059072857
  16    H       -1.642947034     1.805842766     0.514109891


           Empirical Formula: C7 H7 N O  =    16 atoms



      MOLECULAR POINT GROUP   :   C1  


                  EIGENVALUES  
 -37.20777 -32.09132 -28.75183 -26.26311 -23.94748 -23.14647 -21.39967 -19.78372
 -18.46442 -17.58691 -16.88570 -16.35482 -15.43504 -14.65926 -14.23951 -13.52932
 -13.05044 -12.54046 -11.82517 -11.27317 -11.15132 -10.41867  -9.95901   1.05483
   1.24596   1.49604   2.01753   2.25628   2.78390   2.82628   2.99090   3.14755
   3.90661   4.25342   4.32164   5.18608   5.27652   5.33753   5.56856   5.58969
   5.98288   6.09166   6.72179


              NET ATOMIC CHARGES AND DIPOLE CONTRIBUTIONS

  ATOM NO.   TYPE          CHARGE      No. of ELECS.   s-Pop       p-Pop       
    1          C          -0.193523        4.1935     1.13621     3.05731
    2          C          -0.083227        4.0832     1.09998     2.98325
    3          C          -0.096665        4.0967     1.05737     3.03929
    4          C          -0.075321        4.0753     1.08270     2.99262
    5          N          -0.450422        5.4504     1.72625     3.72417
    6          C          -0.116862        4.1169     1.08153     3.03533
    7          C           0.157988        3.8420     1.07596     2.76606
    8          C          -0.163116        4.1631     1.08811     3.07501
    9          O          -0.287957        6.2880     1.92168     4.36628
   10          H           0.187271        0.8127     0.81273
   11          H           0.199166        0.8008     0.80083
   12          H           0.169924        0.8301     0.83008
   13          H           0.265282        0.7347     0.73472
   14          H           0.169637        0.8304     0.83036
   15          H           0.157064        0.8429     0.84294
   16          H           0.160761        0.8392     0.83924
 DIPOLE           X         Y         Z       TOTAL
 POINT-CHG.     1.194     0.126     3.109     3.333
 HYBRID         0.065    -0.812     0.046     0.816
 SUM            1.259    -0.686     3.155     3.466


          ATOMIC ORBITAL ELECTRON POPULATIONS

     Atom    s        px        py        pz   
    1  C   1.13621   1.00703   1.02336   1.02692
    2  C   1.09998   1.00400   0.98880   0.99045
    3  C   1.05737   0.98540   0.94652   1.10737
    4  C   1.08270   1.00166   0.95153   1.03944
    5  N   1.72625   1.19833   1.20064   1.32520
    6  C   1.08153   0.98409   1.03909   1.01215
    7  C   1.07596   0.85898   0.94613   0.96095
    8  C   1.08811   1.06276   1.10635   0.90590
    9  O   1.92168   1.40073   1.77128   1.19427
   10  H   0.81273
   11  H   0.80083
   12  H   0.83008
   13  H   0.73472
   14  H   0.83036
   15  H   0.84294
   16  H   0.83924

 **********************
 *                    *
 * JOB ENDED NORMALLY *
 *                    *
 **********************



 TOTAL JOB TIME:             1.25 SECONDS

 == MOPAC DONE ==
