 *******************************************************************************
 **                                                                           **
 **                              MOPAC v23.2                                  **
 **                                                                           **
 *******************************************************************************
 **          Digital Object Identifier (DOI): 10.5281/zenodo.6511958          **
 **    Visit the DOI location for information on how to cite this program.    **
 *******************************************************************************

                              PM7 CALCULATION RESULTS

 *******************************************************************************
 *  CALCULATION DONE: (MAX THREADS = 40)             Fri Sep 19 21:41:26 2025  *
 *  PM7        - The PM7 Hamiltonian to be used
 *  1SCF       - DO 1 SCF AND THEN STOP 
 *  T=         - A TIME OF 172800.0 SECONDS REQUESTED
 *  DUMP=N     - RESTART FILE WRITTEN EVERY 7200.0 SECONDS REQUESTED
 *  RELSCF     - DEFAULT SCF CRITERION MULTIPLIED BY 0.0001
 *              (DEFAULT SCF CRITERION = 0.00010)
 *  GRADIENTS  - ALL GRADIENTS TO BE PRINTED
 *  DISP       - PRINT DISPERSION AND HYDROGEN BOND ENERGIES
 *******************************************************************************
PM7 1SCF GRADIENTS DISP RELSCF=0.0001
 Title: ASE calculation

   ATOM   CHEMICAL          X               Y               Z
  NUMBER   SYMBOL      (ANGSTROMS)     (ANGSTROMS)     (ANGSTROMS)

     1       C         -2.16163051  *  -0.14582702  *   0.36674077  *
     2       N         -1.78633888  *  -1.36148341  *   1.11236661  *
     3       C         -1.04080491  *  -1.04519183  *  -0.13020654  *
     4       C          0.33414813  *  -0.57646813  *  -0.04824805  *
     5       C          1.32125126  *   0.16793128  *  -0.94825098  *
     6       C          1.47353229  *   1.24072685  *   0.15860960  *
     7       N          0.93899200  *   0.21501698  *   1.17500757  *
     8       C          2.08335622  *  -0.81451373  *   1.18487893  *
     9       C          1.72424632  *  -1.17421610  *  -0.27798471  *
    10       H         -3.14216076  *  -0.17686691  *  -0.11247317  *
    11       H         -1.92968640  *   0.84485820  *   0.75812245  *
    12       H         -1.27449759  *  -1.20761711  *   1.97707970  *
    13       H         -1.23348368  *  -1.74189936  *  -0.96501906  *
    14       H          1.32457435  *   0.35508060  *  -1.99569618  *
    15       H          2.48053694  *   1.61404195  *   0.36114404  *
    16       H          0.77866131  *   2.08611484  *   0.06836836  *
    17       H          1.86811247  *  -1.61216983  *   1.90915712  *
    18       H          3.07700792  *  -0.40337297  *   1.37714054  *
    19       H          2.04557161  *  -2.04646833  *  -0.79634537  *



          CARTESIAN COORDINATES 

    NO.       ATOM           X           Y           Z

     1         C         -2.1616     -0.1458      0.3667
     2         N         -1.7863     -1.3615      1.1124
     3         C         -1.0408     -1.0452     -0.1302
     4         C          0.3341     -0.5765     -0.0482
     5         C          1.3213      0.1679     -0.9483
     6         C          1.4735      1.2407      0.1586
     7         N          0.9390      0.2150      1.1750
     8         C          2.0834     -0.8145      1.1849
     9         C          1.7242     -1.1742     -0.2780
    10         H         -3.1422     -0.1769     -0.1125
    11         H         -1.9297      0.8449      0.7581
    12         H         -1.2745     -1.2076      1.9771
    13         H         -1.2335     -1.7419     -0.9650
    14         H          1.3246      0.3551     -1.9957
    15         H          2.4805      1.6140      0.3611
    16         H          0.7787      2.0861      0.0684
    17         H          1.8681     -1.6122      1.9092
    18         H          3.0770     -0.4034      1.3771
    19         H          2.0456     -2.0465     -0.7963

 General Reference for PM7:
 "Optimization of Parameters for Semiempirical Methods VI: More Modifications to the 
 NDDO Approximations and Re-optimization of Parameters", J. J. P. Stewart, J. Mol. Mod., 1:32, 19 (2013)
 https://link.springer.com/article/10.1007/s00894-012-1667-x

           Empirical Formula: C7 H10 N2  =    19 atoms



      MOLECULAR POINT GROUP   :   C1  


      RHF CALCULATION, NO. OF DOUBLY OCCUPIED LEVELS = 24

  SCF CRITERION =    0.1000E-07

 -------------------------------------------------------------------------------
 PM7 1SCF GRADIENTS DISP RELSCF=0.0001
 Title: ASE calculation



     1SCF WAS SPECIFIED, SO BFGS WAS NOT USED                 
     SCF FIELD WAS ACHIEVED                                   


                              PM7 CALCULATION
                                                       MOPAC v23.2 Linux
                                                       Fri Sep 19 21:41:26 2025




          FINAL HEAT OF FORMATION =        137.38392 KCAL/MOL =     574.81434 KJ/MOL

          TOTAL ENERGY            =     -31411.26764 KCAL/MOL = ELECTRONIC ENERGY + CORE-CORE REPULSION
          ENERGY OF ATOMS         =      31550.59433 KCAL/MOL
                              SUM =        139.32669 KCAL/MOL
          DISPERSION ENERGY       =         -1.86836 KCAL/MOL
          H-BOND ENERGY           =         -0.07441 KCAL/MOL
                              SUM =        137.38392 KCAL/MOL = FINAL HEAT OF FORMATION



          TOTAL ENERGY            =      -1362.12148 EV
          ELECTRONIC ENERGY       =      -7039.70069 EV 
          CORE-CORE REPULSION     =       5677.57921 EV
          COSMO AREA              =        158.75 SQUARE ANGSTROMS
          COSMO VOLUME            =        159.96 CUBIC ANGSTROMS

          GRADIENT NORM           =          1.14429          =       0.26252 PER ATOM
          IONIZATION POTENTIAL    =          9.853016 EV
          HOMO LUMO ENERGIES (EV) =         -9.853  1.304
          NO. OF FILLED LEVELS    =         24
          MOLECULAR WEIGHT        =        122.1694         POINT GROUP:  C1  

          MOLECULAR DIMENSIONS (Angstroms)

            Atom       Atom       Distance
            H    18    H    10     6.39909
            H    14    H    12     4.75294
            H    19    H    16     4.23572


          SCF CALCULATIONS        =          1

          WALL-CLOCK TIME         =      0.492 SECONDS
          COMPUTATION TIME        =      0.158 SECONDS

          LARGEST ATOMIC GRADIENTS

          Atom     Label                     Cartesian Gradients           Cartesian Coordinates       |Gradient|
                                           X          Y          Z        X          Y          Z

            10       H                   0.120     -0.181      0.396   -3.14216   -0.17687   -0.11247      0.452
             7       N                   0.028      0.233      0.327    0.93899    0.21502    1.17501      0.403
            13       H                  -0.172     -0.225     -0.221   -1.23348   -1.74190   -0.96502      0.359
            15       H                  -0.023     -0.159     -0.310    2.48054    1.61404    0.36114      0.349
            12       H                  -0.166      0.132     -0.249   -1.27450   -1.20762    1.97708      0.327
             3       C                   0.149     -0.094     -0.224   -1.04080   -1.04519   -0.13021      0.285
            18       H                  -0.179     -0.204      0.032    3.07701   -0.40337    1.37714      0.273
             4       C                   0.103     -0.053     -0.242    0.33415   -0.57647   -0.04825      0.268
             5       C                  -0.014      0.248      0.086    1.32125    0.16793   -0.94825      0.262
             6       C                   0.034      0.079      0.204    1.47353    1.24073    0.15861      0.222



       FINAL  POINT  AND  DERIVATIVES

   PARAMETER     ATOM    TYPE            VALUE        GRADIENT
      1          1  C    CARTESIAN X    -2.161631      0.111267  KCAL/ANGSTROM
      2          1  C    CARTESIAN Y    -0.145827     -0.022615  KCAL/ANGSTROM
      3          1  C    CARTESIAN Z     0.366741      0.176153  KCAL/ANGSTROM
      4          2  N    CARTESIAN X    -1.786339      0.076604  KCAL/ANGSTROM
      5          2  N    CARTESIAN Y    -1.361483     -0.028349  KCAL/ANGSTROM
      6          2  N    CARTESIAN Z     1.112367     -0.101731  KCAL/ANGSTROM
      7          3  C    CARTESIAN X    -1.040805      0.148772  KCAL/ANGSTROM
      8          3  C    CARTESIAN Y    -1.045192     -0.094102  KCAL/ANGSTROM
      9          3  C    CARTESIAN Z    -0.130207     -0.224398  KCAL/ANGSTROM
     10          4  C    CARTESIAN X     0.334148      0.102739  KCAL/ANGSTROM
     11          4  C    CARTESIAN Y    -0.576468     -0.052930  KCAL/ANGSTROM
     12          4  C    CARTESIAN Z    -0.048248     -0.241668  KCAL/ANGSTROM
     13          5  C    CARTESIAN X     1.321251     -0.014133  KCAL/ANGSTROM
     14          5  C    CARTESIAN Y     0.167931      0.247555  KCAL/ANGSTROM
     15          5  C    CARTESIAN Z    -0.948251      0.086121  KCAL/ANGSTROM
     16          6  C    CARTESIAN X     1.473532      0.033736  KCAL/ANGSTROM
     17          6  C    CARTESIAN Y     1.240727      0.078904  KCAL/ANGSTROM
     18          6  C    CARTESIAN Z     0.158610      0.204238  KCAL/ANGSTROM
     19          7  N    CARTESIAN X     0.938992      0.027532  KCAL/ANGSTROM
     20          7  N    CARTESIAN Y     0.215017      0.233407  KCAL/ANGSTROM
     21          7  N    CARTESIAN Z     1.175008      0.326921  KCAL/ANGSTROM
     22          8  C    CARTESIAN X     2.083356     -0.053444  KCAL/ANGSTROM
     23          8  C    CARTESIAN Y    -0.814514      0.136844  KCAL/ANGSTROM
     24          8  C    CARTESIAN Z     1.184879      0.034138  KCAL/ANGSTROM
     25          9  C    CARTESIAN X     1.724246      0.008165  KCAL/ANGSTROM
     26          9  C    CARTESIAN Y    -1.174216     -0.084758  KCAL/ANGSTROM
     27          9  C    CARTESIAN Z    -0.277985      0.120939  KCAL/ANGSTROM
     28         10  H    CARTESIAN X    -3.142161      0.119676  KCAL/ANGSTROM
     29         10  H    CARTESIAN Y    -0.176867     -0.181376  KCAL/ANGSTROM
     30         10  H    CARTESIAN Z    -0.112473      0.396205  KCAL/ANGSTROM
     31         11  H    CARTESIAN X    -1.929686      0.130260  KCAL/ANGSTROM
     32         11  H    CARTESIAN Y     0.844858     -0.002949  KCAL/ANGSTROM
     33         11  H    CARTESIAN Z     0.758122     -0.035475  KCAL/ANGSTROM
     34         12  H    CARTESIAN X    -1.274498     -0.166088  KCAL/ANGSTROM
     35         12  H    CARTESIAN Y    -1.207617      0.132242  KCAL/ANGSTROM
     36         12  H    CARTESIAN Z     1.977080     -0.248616  KCAL/ANGSTROM
     37         13  H    CARTESIAN X    -1.233484     -0.172494  KCAL/ANGSTROM
     38         13  H    CARTESIAN Y    -1.741899     -0.224541  KCAL/ANGSTROM
     39         13  H    CARTESIAN Z    -0.965019     -0.221162  KCAL/ANGSTROM
     40         14  H    CARTESIAN X     1.324574     -0.105450  KCAL/ANGSTROM
     41         14  H    CARTESIAN Y     0.355081     -0.038995  KCAL/ANGSTROM
     42         14  H    CARTESIAN Z    -1.995696      0.096443  KCAL/ANGSTROM
     43         15  H    CARTESIAN X     2.480537     -0.022793  KCAL/ANGSTROM
     44         15  H    CARTESIAN Y     1.614042     -0.158532  KCAL/ANGSTROM
     45         15  H    CARTESIAN Z     0.361144     -0.309810  KCAL/ANGSTROM
     46         16  H    CARTESIAN X     0.778661      0.109065  KCAL/ANGSTROM
     47         16  H    CARTESIAN Y     2.086115      0.179740  KCAL/ANGSTROM
     48         16  H    CARTESIAN Z     0.068368     -0.061117  KCAL/ANGSTROM
     49         17  H    CARTESIAN X     1.868112     -0.162338  KCAL/ANGSTROM
     50         17  H    CARTESIAN Y    -1.612170      0.128097  KCAL/ANGSTROM
     51         17  H    CARTESIAN Z     1.909157     -0.036466  KCAL/ANGSTROM
     52         18  H    CARTESIAN X     3.077008     -0.178840  KCAL/ANGSTROM
     53         18  H    CARTESIAN Y    -0.403373     -0.203957  KCAL/ANGSTROM
     54         18  H    CARTESIAN Z     1.377141      0.032093  KCAL/ANGSTROM
     55         19  H    CARTESIAN X     2.045572      0.007767  KCAL/ANGSTROM
     56         19  H    CARTESIAN Y    -2.046468     -0.043688  KCAL/ANGSTROM
     57         19  H    CARTESIAN Z    -0.796345      0.007182  KCAL/ANGSTROM




   ATOM   CHEMICAL          X               Y               Z
  NUMBER   SYMBOL      (ANGSTROMS)     (ANGSTROMS)     (ANGSTROMS)

     1       C         -2.16163051  *  -0.14582702  *   0.36674077  *
     2       N         -1.78633888  *  -1.36148341  *   1.11236661  *
     3       C         -1.04080491  *  -1.04519183  *  -0.13020654  *
     4       C          0.33414813  *  -0.57646813  *  -0.04824805  *
     5       C          1.32125126  *   0.16793128  *  -0.94825098  *
     6       C          1.47353229  *   1.24072685  *   0.15860960  *
     7       N          0.93899200  *   0.21501698  *   1.17500757  *
     8       C          2.08335622  *  -0.81451373  *   1.18487893  *
     9       C          1.72424632  *  -1.17421610  *  -0.27798471  *
    10       H         -3.14216076  *  -0.17686691  *  -0.11247317  *
    11       H         -1.92968640  *   0.84485820  *   0.75812245  *
    12       H         -1.27449759  *  -1.20761711  *   1.97707970  *
    13       H         -1.23348368  *  -1.74189936  *  -0.96501906  *
    14       H          1.32457435  *   0.35508060  *  -1.99569618  *
    15       H          2.48053694  *   1.61404195  *   0.36114404  *
    16       H          0.77866131  *   2.08611484  *   0.06836836  *
    17       H          1.86811247  *  -1.61216983  *   1.90915712  *
    18       H          3.07700792  *  -0.40337297  *   1.37714054  *
    19       H          2.04557161  *  -2.04646833  *  -0.79634537  *

                             CARTESIAN COORDINATES

   1    C       -2.161630513    -0.145827016     0.366740773
   2    N       -1.786338880    -1.361483408     1.112366614
   3    C       -1.040804915    -1.045191825    -0.130206535
   4    C        0.334148127    -0.576468125    -0.048248048
   5    C        1.321251257     0.167931282    -0.948250983
   6    C        1.473532287     1.240726848     0.158609602
   7    N        0.938992001     0.215016979     1.175007572
   8    C        2.083356218    -0.814513731     1.184878926
   9    C        1.724246320    -1.174216096    -0.277984715
  10    H       -3.142160757    -0.176866911    -0.112473171
  11    H       -1.929686395     0.844858204     0.758122446
  12    H       -1.274497588    -1.207617109     1.977079698
  13    H       -1.233483682    -1.741899355    -0.965019056
  14    H        1.324574350     0.355080596    -1.995696178
  15    H        2.480536942     1.614041949     0.361144037
  16    H        0.778661307     2.086114844     0.068368359
  17    H        1.868112471    -1.612169833     1.909157122
  18    H        3.077007924    -0.403372967     1.377140541
  19    H        2.045571613    -2.046468335    -0.796345368


           Empirical Formula: C7 H10 N2  =    19 atoms



      MOLECULAR POINT GROUP   :   C1  


                  EIGENVALUES  
 -37.26238 -36.25568 -27.49141 -25.45562 -24.62940 -23.05053 -21.55639 -19.22583
 -19.08014 -17.74705 -16.75808 -16.21332 -16.00326 -15.19665 -13.83420 -13.52769
 -13.24661 -12.73771 -12.59913 -12.37432 -11.69307 -10.92855 -10.25191  -9.85302
   1.30423   1.76014   2.48753   2.55477   2.88586   2.96221   3.18651   3.24248
   3.72021   4.03118   4.30636   4.37486   5.23864   5.28915   5.45467   5.65738
   5.70417   5.70591   5.73340   5.84648   5.93412   6.62130


              NET ATOMIC CHARGES AND DIPOLE CONTRIBUTIONS

  ATOM NO.   TYPE          CHARGE      No. of ELECS.   s-Pop       p-Pop       
    1          C          -0.202298        4.2023     1.07134     3.13096
    2          N          -0.442254        5.4423     1.72995     3.71230
    3          C          -0.065333        4.0653     1.04868     3.01665
    4          C           0.023805        3.9762     1.07174     2.90445
    5          C          -0.210695        4.2107     1.08505     3.12564
    6          C          -0.135590        4.1356     1.08804     3.04755
    7          N          -0.362385        5.3624     1.80203     3.56035
    8          C          -0.136629        4.1366     1.08821     3.04841
    9          C          -0.211850        4.2119     1.08529     3.12656
   10          H           0.170750        0.8292     0.82925
   11          H           0.157588        0.8424     0.84241
   12          H           0.268290        0.7317     0.73171
   13          H           0.184681        0.8153     0.81532
   14          H           0.173409        0.8266     0.82659
   15          H           0.148799        0.8512     0.85120
   16          H           0.157096        0.8429     0.84290
   17          H           0.159227        0.8408     0.84077
   18          H           0.149049        0.8510     0.85095
   19          H           0.174341        0.8257     0.82566
 DIPOLE           X         Y         Z       TOTAL
 POINT-CHG.     1.241     0.854    -1.768     2.322
 HYBRID         0.991     0.341    -0.055     1.049
 SUM            2.232     1.195    -1.823     3.119


          ATOMIC ORBITAL ELECTRON POPULATIONS

     Atom    s        px        py        pz   
    1  C   1.07134   1.07376   0.98397   1.07323
    2  N   1.72995   1.30611   1.30522   1.10097
    3  C   1.04868   0.91492   1.08301   1.01872
    4  C   1.07174   0.94212   1.04108   0.92126
    5  C   1.08505   1.09555   0.96033   1.06975
    6  C   1.08804   1.13200   1.00223   0.91332
    7  N   1.80203   1.18882   1.10843   1.26311
    8  C   1.08821   1.02500   1.02079   1.00263
    9  C   1.08529   1.03910   1.05839   1.02906
   10  H   0.82925
   11  H   0.84241
   12  H   0.73171
   13  H   0.81532
   14  H   0.82659
   15  H   0.85120
   16  H   0.84290
   17  H   0.84077
   18  H   0.85095
   19  H   0.82566

 **********************
 *                    *
 * JOB ENDED NORMALLY *
 *                    *
 **********************



 TOTAL JOB TIME:             0.94 SECONDS

 == MOPAC DONE ==
