 *******************************************************************************
 **                                                                           **
 **                              MOPAC v23.2                                  **
 **                                                                           **
 *******************************************************************************
 **          Digital Object Identifier (DOI): 10.5281/zenodo.6511958          **
 **    Visit the DOI location for information on how to cite this program.    **
 *******************************************************************************

                              PM7 CALCULATION RESULTS

 *******************************************************************************
 *  CALCULATION DONE: (MAX THREADS = 40)             Fri Sep 19 21:33:08 2025  *
 *  PM7        - The PM7 Hamiltonian to be used
 *
 *
 *
 *                 CHARGE ON SYSTEM = +1
 *
 *
 *
 *  EPS=37.5   - USE ANDREAS KLAMT'S COSMO IMPLICIT SOLVATION MODEL
 *  1SCF       - DO 1 SCF AND THEN STOP 
 *  T=         - A TIME OF 172800.0 SECONDS REQUESTED
 *  DUMP=N     - RESTART FILE WRITTEN EVERY 7200.0 SECONDS REQUESTED
 *  RELSCF     - DEFAULT SCF CRITERION MULTIPLIED BY 0.0001
 *              (DEFAULT SCF CRITERION = 0.00010)
 *  GRADIENTS  - ALL GRADIENTS TO BE PRINTED
 *  DISP       - PRINT DISPERSION AND HYDROGEN BOND ENERGIES
 *******************************************************************************
PM7 1SCF GRADIENTS EPS=37.5 DISP RELSCF=0.0001 CHARGE=1
 Title: ASE calculation

   ATOM   CHEMICAL          X               Y               Z
  NUMBER   SYMBOL      (ANGSTROMS)     (ANGSTROMS)     (ANGSTROMS)

     1       C         -1.99365337  *  -1.39099446  *   0.00968111  *
     2       C         -0.69065580  *  -0.86958359  *  -0.33996502  *
     3       C         -0.46894953  *   0.33189569  *  -1.15776763  *
     4       C          0.81244884  *   1.13646963  *  -0.66434813  *
     5       O          0.38209605  *   2.23975023  *   0.04930546  *
     6       C          1.73869663  *   0.20107129  *   0.15070678  *
     7       C          1.72186294  *  -1.17919928  *  -0.61005985  *
     8       N          0.45327937  *  -1.50972753  *   0.19801443  *
     9       C          0.92549748  *  -0.50343710  *   1.19565313  *
    10       H         -2.54124757  *  -1.78842051  *  -0.88486219  *
    11       H         -2.69966623  *  -0.63164712  *   0.42060279  *
    12       H         -1.97520043  *  -2.23975023  *   0.73586315  *
    13       H         -0.35611707  *   0.10981060  *  -2.24837001  *
    14       H         -1.34085240  *   1.03789118  *  -1.15903848  *
    15       H          1.33736331  *   1.59032935  *  -1.54252206  *
    16       H          0.19843881  *   2.05620993  *   0.99831698  *
    17       H          2.69966623  *   0.65802844  *   0.42543487  *
    18       H          2.52664100  *  -1.88680364  *  -0.32628146  *
    19       H          1.63237595  *  -1.17289439  *  -1.69967559  *
    20       H          0.87612623  *  -0.59436669  *   2.24837001  *



          CARTESIAN COORDINATES 

    NO.       ATOM           X           Y           Z

     1         C         -1.9937     -1.3910      0.0097
     2         C         -0.6907     -0.8696     -0.3400
     3         C         -0.4689      0.3319     -1.1578
     4         C          0.8124      1.1365     -0.6643
     5         O          0.3821      2.2398      0.0493
     6         C          1.7387      0.2011      0.1507
     7         C          1.7219     -1.1792     -0.6101
     8         N          0.4533     -1.5097      0.1980
     9         C          0.9255     -0.5034      1.1957
    10         H         -2.5412     -1.7884     -0.8849
    11         H         -2.6997     -0.6316      0.4206
    12         H         -1.9752     -2.2398      0.7359
    13         H         -0.3561      0.1098     -2.2484
    14         H         -1.3409      1.0379     -1.1590
    15         H          1.3374      1.5903     -1.5425
    16         H          0.1984      2.0562      0.9983
    17         H          2.6997      0.6580      0.4254
    18         H          2.5266     -1.8868     -0.3263
    19         H          1.6324     -1.1729     -1.6997
    20         H          0.8761     -0.5944      2.2484

 General Reference for PM7:
 "Optimization of Parameters for Semiempirical Methods VI: More Modifications to the 
 NDDO Approximations and Re-optimization of Parameters", J. J. P. Stewart, J. Mol. Mod., 1:32, 19 (2013)
 https://link.springer.com/article/10.1007/s00894-012-1667-x

           Empirical Formula: C7 H11 N O  =    20 atoms



      MOLECULAR POINT GROUP   :   C1  


          UHF CALCULATION, NO. OF ALPHA ELECTRONS =   25
                           NO. OF BETA  ELECTRONS =   24
  SCF CRITERION =    0.1000E-07

 -------------------------------------------------------------------------------
 PM7 1SCF GRADIENTS EPS=37.5 DISP RELSCF=0.0001 CHARGE=1
 Title: ASE calculation



     1SCF WAS SPECIFIED, SO BFGS WAS NOT USED                 
     SCF FIELD WAS ACHIEVED                                   


                              PM7 CALCULATION
                                                       MOPAC v23.2 Linux
                                                       Fri Sep 19 21:33:09 2025




          FINAL HEAT OF FORMATION =        150.62246 KCAL/MOL =     630.20436 KJ/MOL

          TOTAL ENERGY            =     -34171.28878 KCAL/MOL = ELECTRONIC ENERGY + CORE-CORE REPULSION + SOLVATION ENERGY
          ENERGY OF ATOMS         =      34323.93363 KCAL/MOL
                              SUM =        152.64485 KCAL/MOL
          DISPERSION ENERGY       =         -2.02240 KCAL/MOL
                              SUM =        150.62246 KCAL/MOL = FINAL HEAT OF FORMATION

          VAN DER WAALS AREA      =        158.31 SQUARE ANGSTROMS


          TOTAL ENERGY            =      -1481.80733 EV
          ELECTRONIC ENERGY       =      -2424.52872 EV 
          CORE-CORE REPULSION     =        942.72139 EV

          DIELECTRIC ENERGY       =         -2.55312 EV
          COSMO AREA              =        158.31 SQUARE ANGSTROMS
          COSMO VOLUME            =        160.35 CUBIC ANGSTROMS

          GRADIENT NORM           =         28.17803          =       6.30080 PER ATOM
          IONIZATION POTENTIAL    =         10.295986 EV
          ALPHA SOMO LUMO (EV)    =        -10.296 -2.341
          BETA  SOMO LUMO (EV)    =        -11.444 -2.361
          NO. OF ALPHA ELECTRONS  =         25
          NO. OF BETA  ELECTRONS  =         24
          MOLECULAR WEIGHT        =        125.1700         POINT GROUP:  C1  

          MOLECULAR DIMENSIONS (Angstroms)

            Atom       Atom       Distance
            H    17    H    10     5.93036
            H    16    H    18     4.76480
            H    13    H    20     4.36003


          SCF CALCULATIONS        =          2

          WALL-CLOCK TIME         =      1.578 SECONDS
          COMPUTATION TIME        =      1.087 SECONDS

          LARGEST ATOMIC GRADIENTS

          Atom     Label                     Cartesian Gradients           Cartesian Coordinates       |Gradient|
                                           X          Y          Z        X          Y          Z

             2       C                  12.886     -2.726      6.274   -0.69066   -0.86958   -0.33997     14.589
             3       C                  -6.628     -5.660    -10.583   -0.46895    0.33190   -1.15777     13.710
             4       C                   1.930      8.158      8.588    0.81245    1.13647   -0.66435     12.002
             1       C                  -7.763      2.511     -1.935   -1.99365   -1.39099    0.00968      8.386
             8       N                  -3.730      4.722     -5.766    0.45328   -1.50973    0.19801      8.334
             5       O                  -0.934     -4.669     -3.567    0.38210    2.23975    0.04931      5.950
             9       C                  -2.011      0.565      2.374    0.92550   -0.50344    1.19565      3.162
            13       H                   1.049      2.120      1.968   -0.35612    0.10981   -2.24837      3.077
            16       H                   1.942      1.170     -1.952    0.19844    2.05621    0.99832      2.991
            12       H                   0.732     -2.410      1.492   -1.97520   -2.23975    0.73586      2.927



       FINAL  POINT  AND  DERIVATIVES

   PARAMETER     ATOM    TYPE            VALUE        GRADIENT
      1          1  C    CARTESIAN X    -1.993653     -7.763352  KCAL/ANGSTROM
      2          1  C    CARTESIAN Y    -1.390994      2.510924  KCAL/ANGSTROM
      3          1  C    CARTESIAN Z     0.009681     -1.934709  KCAL/ANGSTROM
      4          2  C    CARTESIAN X    -0.690656     12.885936  KCAL/ANGSTROM
      5          2  C    CARTESIAN Y    -0.869584     -2.725676  KCAL/ANGSTROM
      6          2  C    CARTESIAN Z    -0.339965      6.274214  KCAL/ANGSTROM
      7          3  C    CARTESIAN X    -0.468950     -6.627998  KCAL/ANGSTROM
      8          3  C    CARTESIAN Y     0.331896     -5.659955  KCAL/ANGSTROM
      9          3  C    CARTESIAN Z    -1.157768    -10.583462  KCAL/ANGSTROM
     10          4  C    CARTESIAN X     0.812449      1.929549  KCAL/ANGSTROM
     11          4  C    CARTESIAN Y     1.136470      8.158363  KCAL/ANGSTROM
     12          4  C    CARTESIAN Z    -0.664348      8.588196  KCAL/ANGSTROM
     13          5  O    CARTESIAN X     0.382096     -0.934496  KCAL/ANGSTROM
     14          5  O    CARTESIAN Y     2.239750     -4.669181  KCAL/ANGSTROM
     15          5  O    CARTESIAN Z     0.049305     -3.567468  KCAL/ANGSTROM
     16          6  C    CARTESIAN X     1.738697     -0.427474  KCAL/ANGSTROM
     17          6  C    CARTESIAN Y     0.201071     -2.581888  KCAL/ANGSTROM
     18          6  C    CARTESIAN Z     0.150707     -0.684370  KCAL/ANGSTROM
     19          7  C    CARTESIAN X     1.721863     -1.308267  KCAL/ANGSTROM
     20          7  C    CARTESIAN Y    -1.179199     -0.531808  KCAL/ANGSTROM
     21          7  C    CARTESIAN Z    -0.610060     -1.630670  KCAL/ANGSTROM
     22          8  N    CARTESIAN X     0.453279     -3.730048  KCAL/ANGSTROM
     23          8  N    CARTESIAN Y    -1.509728      4.722195  KCAL/ANGSTROM
     24          8  N    CARTESIAN Z     0.198014     -5.766013  KCAL/ANGSTROM
     25          9  C    CARTESIAN X     0.925497     -2.010657  KCAL/ANGSTROM
     26          9  C    CARTESIAN Y    -0.503437      0.565445  KCAL/ANGSTROM
     27          9  C    CARTESIAN Z     1.195653      2.374183  KCAL/ANGSTROM
     28         10  H    CARTESIAN X    -2.541248      0.270244  KCAL/ANGSTROM
     29         10  H    CARTESIAN Y    -1.788421     -0.833147  KCAL/ANGSTROM
     30         10  H    CARTESIAN Z    -0.884862      1.319082  KCAL/ANGSTROM
     31         11  H    CARTESIAN X    -2.699666     -0.192325  KCAL/ANGSTROM
     32         11  H    CARTESIAN Y    -0.631647     -0.962159  KCAL/ANGSTROM
     33         11  H    CARTESIAN Z     0.420603      0.921635  KCAL/ANGSTROM
     34         12  H    CARTESIAN X    -1.975200      0.732373  KCAL/ANGSTROM
     35         12  H    CARTESIAN Y    -2.239750     -2.409662  KCAL/ANGSTROM
     36         12  H    CARTESIAN Z     0.735863      1.491570  KCAL/ANGSTROM
     37         13  H    CARTESIAN X    -0.356117      1.049435  KCAL/ANGSTROM
     38         13  H    CARTESIAN Y     0.109811      2.119601  KCAL/ANGSTROM
     39         13  H    CARTESIAN Z    -2.248370      1.968070  KCAL/ANGSTROM
     40         14  H    CARTESIAN X    -1.340852      1.009061  KCAL/ANGSTROM
     41         14  H    CARTESIAN Y     1.037891      2.171463  KCAL/ANGSTROM
     42         14  H    CARTESIAN Z    -1.159038      0.991664  KCAL/ANGSTROM
     43         15  H    CARTESIAN X     1.337363     -0.337149  KCAL/ANGSTROM
     44         15  H    CARTESIAN Y     1.590329      1.640844  KCAL/ANGSTROM
     45         15  H    CARTESIAN Z    -1.542522     -0.410036  KCAL/ANGSTROM
     46         16  H    CARTESIAN X     0.198439      1.941525  KCAL/ANGSTROM
     47         16  H    CARTESIAN Y     2.056210      1.170052  KCAL/ANGSTROM
     48         16  H    CARTESIAN Z     0.998317     -1.951523  KCAL/ANGSTROM
     49         17  H    CARTESIAN X     2.699666      0.581012  KCAL/ANGSTROM
     50         17  H    CARTESIAN Y     0.658028      0.765982  KCAL/ANGSTROM
     51         17  H    CARTESIAN Z     0.425435      0.387037  KCAL/ANGSTROM
     52         18  H    CARTESIAN X     2.526641      0.823126  KCAL/ANGSTROM
     53         18  H    CARTESIAN Y    -1.886804     -1.926570  KCAL/ANGSTROM
     54         18  H    CARTESIAN Z    -0.326281      0.774007  KCAL/ANGSTROM
     55         19  H    CARTESIAN X     1.632376      1.034825  KCAL/ANGSTROM
     56         19  H    CARTESIAN Y    -1.172894     -0.289087  KCAL/ANGSTROM
     57         19  H    CARTESIAN Z    -1.699676      0.907869  KCAL/ANGSTROM
     58         20  H    CARTESIAN X     0.876126      1.074675  KCAL/ANGSTROM
     59         20  H    CARTESIAN Y    -0.594367     -1.235739  KCAL/ANGSTROM
     60         20  H    CARTESIAN Z     2.248370      0.530718  KCAL/ANGSTROM




   ATOM   CHEMICAL          X               Y               Z
  NUMBER   SYMBOL      (ANGSTROMS)     (ANGSTROMS)     (ANGSTROMS)

     1       C         -1.99365337  *  -1.39099446  *   0.00968111  *
     2       C         -0.69065580  *  -0.86958359  *  -0.33996502  *
     3       C         -0.46894953  *   0.33189569  *  -1.15776763  *
     4       C          0.81244884  *   1.13646963  *  -0.66434813  *
     5       O          0.38209605  *   2.23975023  *   0.04930546  *
     6       C          1.73869663  *   0.20107129  *   0.15070678  *
     7       C          1.72186294  *  -1.17919928  *  -0.61005985  *
     8       N          0.45327937  *  -1.50972753  *   0.19801443  *
     9       C          0.92549748  *  -0.50343710  *   1.19565313  *
    10       H         -2.54124757  *  -1.78842051  *  -0.88486219  *
    11       H         -2.69966623  *  -0.63164712  *   0.42060279  *
    12       H         -1.97520043  *  -2.23975023  *   0.73586315  *
    13       H         -0.35611707  *   0.10981060  *  -2.24837001  *
    14       H         -1.34085240  *   1.03789118  *  -1.15903848  *
    15       H          1.33736331  *   1.59032935  *  -1.54252206  *
    16       H          0.19843881  *   2.05620993  *   0.99831698  *
    17       H          2.69966623  *   0.65802844  *   0.42543487  *
    18       H          2.52664100  *  -1.88680364  *  -0.32628146  *
    19       H          1.63237595  *  -1.17289439  *  -1.69967559  *
    20       H          0.87612623  *  -0.59436669  *   2.24837001  *

                             CARTESIAN COORDINATES

   1    C       -1.993653375    -1.390994460     0.009681112
   2    C       -0.690655798    -0.869583586    -0.339965022
   3    C       -0.468949527     0.331895693    -1.157767628
   4    C        0.812448841     1.136469626    -0.664348131
   5    O        0.382096049     2.239750229     0.049305462
   6    C        1.738696630     0.201071285     0.150706784
   7    C        1.721862944    -1.179199284    -0.610059853
   8    N        0.453279369    -1.509727532     0.198014430
   9    C        0.925497485    -0.503437102     1.195653131
  10    H       -2.541247566    -1.788420515    -0.884862194
  11    H       -2.699666229    -0.631647117     0.420602791
  12    H       -1.975200429    -2.239750229     0.735863153
  13    H       -0.356117070     0.109810604    -2.248370015
  14    H       -1.340852398     1.037891181    -1.159038479
  15    H        1.337363313     1.590329347    -1.542522059
  16    H        0.198438814     2.056209928     0.998316975
  17    H        2.699666229     0.658028440     0.425434874
  18    H        2.526641004    -1.886803641    -0.326281455
  19    H        1.632375949    -1.172894386    -1.699675586
  20    H        0.876126230    -0.594366688     2.248370015


           Empirical Formula: C7 H11 N O  =    20 atoms



      MOLECULAR POINT GROUP   :   C1  


          ALPHA EIGENVALUES  
 -38.66889 -30.80786 -29.49922 -28.06497 -25.58054 -23.87506 -23.03684 -21.62654
 -19.12411 -18.29409 -18.10401 -16.94304 -16.57921 -16.57216 -15.77657 -15.02962
 -14.76509 -14.47056 -14.05450 -13.70562 -13.32820 -12.94500 -11.90259 -11.62259
 -10.29599  -2.34133   0.65642   1.48874   1.68604   1.96963   2.21656   2.39580
   2.53997   2.60513   2.76947   3.42727   4.21353   4.39851   4.60354   4.72529
   4.79530   5.14945   5.19036   5.24195   5.33071   5.54159   5.71928


           BETA EIGENVALUES 
 -38.60338 -30.79588 -29.46258 -28.04256 -25.53010 -23.70661 -22.93935 -21.54919
 -19.01986 -18.14149 -18.05657 -16.88394 -16.52812 -16.49198 -15.74291 -14.93548
 -14.72029 -14.46051 -13.99030 -13.61161 -13.23698 -12.86450 -11.77626 -11.44372
  -2.36084  -0.86433   0.77221   1.51805   1.76589   1.99510   2.38404   2.50146
   2.59885   2.77293   2.83132   3.57636   4.21638   4.39742   4.60631   4.73562
   4.80151   5.15574   5.25073   5.32914   5.38411   5.54719   5.71953


              NET ATOMIC CHARGES AND DIPOLE CONTRIBUTIONS

  ATOM NO.   TYPE          CHARGE      No. of ELECS.   s-Pop       p-Pop       
    1          C          -0.557820        4.5578     1.06225     3.49557
    2          C           0.635186        3.3648     1.16925     2.19556
    3          C          -0.507493        4.5075     1.09241     3.41509
    4          C           0.207503        3.7925     1.10038     2.69212
    5          O          -0.590037        6.5900     1.83406     4.75597
    6          C          -0.238780        4.2388     1.09764     3.14114
    7          C          -0.119305        4.1193     1.10582     3.01348
    8          N          -0.447852        5.4479     1.73533     3.71253
    9          C          -0.021331        4.0213     1.16408     2.85726
   10          H           0.268646        0.7314     0.73135
   11          H           0.254557        0.7454     0.74544
   12          H           0.232007        0.7680     0.76799
   13          H           0.265530        0.7345     0.73447
   14          H           0.248555        0.7514     0.75145
   15          H           0.189083        0.8109     0.81092
   16          H           0.370415        0.6296     0.62959
   17          H           0.213091        0.7869     0.78691
   18          H           0.199265        0.8007     0.80073
   19          H           0.185260        0.8147     0.81474
   20          H           0.213518        0.7865     0.78648
 DIPOLE           X         Y         Z       TOTAL
 POINT-CHG.    -3.117    -2.490    -1.548     4.279
 HYBRID        -0.302     0.008     0.125     0.327
 SUM           -3.419    -2.482    -1.423     4.458


          ATOMIC ORBITAL ELECTRON POPULATIONS

     Atom    s        px        py        pz   
    1  C   1.06225   1.04055   1.22203   1.23299
    2  C   1.16925   0.90722   0.71188   0.57646
    3  C   1.09241   1.18837   1.06420   1.16252
    4  C   1.10038   0.89093   0.83636   0.96483
    5  O   1.83406   1.89194   1.44913   1.41490
    6  C   1.09764   1.11018   1.01952   1.01143
    7  C   1.10582   0.92405   1.00027   1.08917
    8  N   1.73533   1.11294   1.39388   1.20570
    9  C   1.16408   0.97933   0.87536   1.00257
   10  H   0.73135
   11  H   0.74544
   12  H   0.76799
   13  H   0.73447
   14  H   0.75145
   15  H   0.81092
   16  H   0.62959
   17  H   0.78691
   18  H   0.80073
   19  H   0.81474
   20  H   0.78648


                    (SZ)    =    0.500000
                    (S**2)  =    0.754888


          ATOMIC ORBITAL SPIN POPULATIONS

    Atom   Total    s     px     py     pz   
         Atomic
    1  C -0.0006 -0.000  0.000  0.000 -0.001
    2  C  0.0197  0.007  0.015  0.011 -0.012
    3  C  0.0003 -0.000 -0.001  0.002 -0.001
    4  C  0.0330  0.006  0.008  0.010  0.010
    5  O  0.0000  0.000  0.001 -0.001 -0.000
    6  C -0.0463 -0.006 -0.008 -0.008 -0.024
    7  C  0.0210  0.005  0.000  0.009  0.007
    8  N  0.0065  0.005 -0.005  0.022 -0.016
    9  C  0.9813  0.031  0.567  0.352  0.031
   10  H -0.0011 -0.001
   11  H  0.0004  0.000
   12  H  0.0002  0.000
   13  H -0.0009 -0.001
   14  H  0.0024  0.002
   15  H -0.0000 -0.000
   16  H  0.0005  0.000
   17  H  0.0059  0.006
   18  H -0.0009 -0.001
   19  H  0.0014  0.001
   20  H -0.0227 -0.023

 **********************
 *                    *
 * JOB ENDED NORMALLY *
 *                    *
 **********************



 TOTAL JOB TIME:             2.07 SECONDS

 == MOPAC DONE ==
