 *******************************************************************************
 **                                                                           **
 **                              MOPAC v23.2                                  **
 **                                                                           **
 *******************************************************************************
 **          Digital Object Identifier (DOI): 10.5281/zenodo.6511958          **
 **    Visit the DOI location for information on how to cite this program.    **
 *******************************************************************************

                              PM7 CALCULATION RESULTS

 *******************************************************************************
 *  CALCULATION DONE: (MAX THREADS = 40)             Fri Sep 19 21:30:09 2025  *
 *  PM7        - The PM7 Hamiltonian to be used
 *  1SCF       - DO 1 SCF AND THEN STOP 
 *  T=         - A TIME OF 172800.0 SECONDS REQUESTED
 *  DUMP=N     - RESTART FILE WRITTEN EVERY 7200.0 SECONDS REQUESTED
 *  RELSCF     - DEFAULT SCF CRITERION MULTIPLIED BY 0.0001
 *              (DEFAULT SCF CRITERION = 0.00010)
 *  GRADIENTS  - ALL GRADIENTS TO BE PRINTED
 *  DISP       - PRINT DISPERSION AND HYDROGEN BOND ENERGIES
 *******************************************************************************
PM7 1SCF GRADIENTS DISP RELSCF=0.0001
 Title: ASE calculation

   ATOM   CHEMICAL          X               Y               Z
  NUMBER   SYMBOL      (ANGSTROMS)     (ANGSTROMS)     (ANGSTROMS)

     1       C         -1.71609304  *  -1.71164664  *  -1.26138099  *
     2       C         -1.26926492  *  -0.68674537  *  -0.79924630  *
     3       C         -0.71911328  *   0.53451235  *  -0.27067994  *
     4       C         -1.73509745  *   1.66682679  *  -0.22951900  *
     5       C          0.00670004  *   0.30257115  *   1.10083996  *
     6       N          1.39426187  *   0.63697983  *   0.77951349  *
     7       C          1.55116145  *   0.98875408  *  -0.55114274  *
     8       O          2.56564000  *   1.29520573  *  -1.11683685  *
     9       O          0.32609692  *   0.96069184  *  -1.17990787  *
    10       H         -2.09810848  *  -2.58397772  *  -1.65378595  *
    11       H         -1.28048769  *   2.59979570  *   0.13115510  *
    12       H         -2.58921722  *   1.42498834  *   0.41249318  *
    13       H         -2.12369331  *   1.87694752  *  -1.23815596  *
    14       H         -0.39047607  *   0.96699488  *   1.89552342  *
    15       H         -0.09350157  *  -0.74530484  *   1.45015573  *
    16       H          2.14083121  *   0.51134312  *   1.42890264  *



          CARTESIAN COORDINATES 

    NO.       ATOM           X           Y           Z

     1         C         -1.7161     -1.7116     -1.2614
     2         C         -1.2693     -0.6867     -0.7992
     3         C         -0.7191      0.5345     -0.2707
     4         C         -1.7351      1.6668     -0.2295
     5         C          0.0067      0.3026      1.1008
     6         N          1.3943      0.6370      0.7795
     7         C          1.5512      0.9888     -0.5511
     8         O          2.5656      1.2952     -1.1168
     9         O          0.3261      0.9607     -1.1799
    10         H         -2.0981     -2.5840     -1.6538
    11         H         -1.2805      2.5998      0.1312
    12         H         -2.5892      1.4250      0.4125
    13         H         -2.1237      1.8769     -1.2382
    14         H         -0.3905      0.9670      1.8955
    15         H         -0.0935     -0.7453      1.4502
    16         H          2.1408      0.5113      1.4289

 General Reference for PM7:
 "Optimization of Parameters for Semiempirical Methods VI: More Modifications to the 
 NDDO Approximations and Re-optimization of Parameters", J. J. P. Stewart, J. Mol. Mod., 1:32, 19 (2013)
 https://link.springer.com/article/10.1007/s00894-012-1667-x

           Empirical Formula: C6 H7 N O2  =    16 atoms



      MOLECULAR POINT GROUP   :   C1  


      RHF CALCULATION, NO. OF DOUBLY OCCUPIED LEVELS = 24

  SCF CRITERION =    0.1000E-07

 -------------------------------------------------------------------------------
 PM7 1SCF GRADIENTS DISP RELSCF=0.0001
 Title: ASE calculation



     1SCF WAS SPECIFIED, SO BFGS WAS NOT USED                 
     SCF FIELD WAS ACHIEVED                                   


                              PM7 CALCULATION
                                                       MOPAC v23.2 Linux
                                                       Fri Sep 19 21:30:09 2025




          FINAL HEAT OF FORMATION =        -27.43043 KCAL/MOL =    -114.76891 KJ/MOL

          TOTAL ENERGY            =     -37062.04129 KCAL/MOL = ELECTRONIC ENERGY + CORE-CORE REPULSION
          ENERGY OF ATOMS         =      37024.20862 KCAL/MOL
                              SUM =        -37.83267 KCAL/MOL
          DISPERSION ENERGY       =         -1.63421 KCAL/MOL
          MM CORR. FOR -CO-NH-    =          0.03645 KCAL/MOL
                              SUM =        -39.43043 KCAL/MOL = FINAL HEAT OF FORMATION

     *    WARNING - An energy term is incorrect or missing!

     *    FINAL HEAT OF FORMATION     =    -27.43043 KCAL/MOL
     *    SUM OF CONTRIBUTIONS TO HoF =    -39.43043 KCAL/MOL
     *                     DIFFERENCE =     12.00000 KCAL/MOL



          TOTAL ENERGY            =      -1607.16222 EV
          ELECTRONIC ENERGY       =      -7174.19964 EV 
          CORE-CORE REPULSION     =       5567.03742 EV
          COSMO AREA              =        158.74 SQUARE ANGSTROMS
          COSMO VOLUME            =        152.77 CUBIC ANGSTROMS

          GRADIENT NORM           =          1.05238          =       0.26309 PER ATOM
          IONIZATION POTENTIAL    =         10.095282 EV
          HOMO LUMO ENERGIES (EV) =        -10.095  0.421
          NO. OF FILLED LEVELS    =         24
          MOLECULAR WEIGHT        =        125.1268         POINT GROUP:  C1  

          MOLECULAR DIMENSIONS (Angstroms)

            Atom       Atom       Distance
            H    10    O     8     6.08990
            H    13    H    16     4.49905
            H    14    O     8     3.59283


          SCF CALCULATIONS        =          1

          WALL-CLOCK TIME         =      0.375 SECONDS
          COMPUTATION TIME        =      0.938 SECONDS

          LARGEST ATOMIC GRADIENTS

          Atom     Label                     Cartesian Gradients           Cartesian Coordinates       |Gradient|
                                           X          Y          Z        X          Y          Z

             2       C                  -0.091     -0.280     -0.336   -1.26926   -0.68675   -0.79925      0.446
             9       O                  -0.030     -0.438      0.035    0.32610    0.96069   -1.17991      0.440
             8       O                   0.122      0.318      0.110    2.56564    1.29521   -1.11684      0.358
             3       C                  -0.300      0.023     -0.050   -0.71911    0.53451   -0.27068      0.305
             7       C                   0.045     -0.267     -0.025    1.55116    0.98875   -0.55114      0.272
             1       C                   0.207      0.067      0.159   -1.71609   -1.71165   -1.26138      0.270
            14       H                  -0.105      0.095      0.221   -0.39048    0.96699    1.89552      0.263
            16       H                   0.100     -0.075     -0.223    2.14083    0.51134    1.42890      0.255
            10       H                   0.140      0.174      0.059   -2.09811   -2.58398   -1.65379      0.231
             5       C                  -0.156      0.155     -0.041    0.00670    0.30257    1.10084      0.223



       FINAL  POINT  AND  DERIVATIVES

   PARAMETER     ATOM    TYPE            VALUE        GRADIENT
      1          1  C    CARTESIAN X    -1.716093      0.207197  KCAL/ANGSTROM
      2          1  C    CARTESIAN Y    -1.711647      0.067423  KCAL/ANGSTROM
      3          1  C    CARTESIAN Z    -1.261381      0.158930  KCAL/ANGSTROM
      4          2  C    CARTESIAN X    -1.269265     -0.090932  KCAL/ANGSTROM
      5          2  C    CARTESIAN Y    -0.686745     -0.279515  KCAL/ANGSTROM
      6          2  C    CARTESIAN Z    -0.799246     -0.335622  KCAL/ANGSTROM
      7          3  C    CARTESIAN X    -0.719113     -0.299758  KCAL/ANGSTROM
      8          3  C    CARTESIAN Y     0.534512      0.023092  KCAL/ANGSTROM
      9          3  C    CARTESIAN Z    -0.270680     -0.050474  KCAL/ANGSTROM
     10          4  C    CARTESIAN X    -1.735097     -0.097555  KCAL/ANGSTROM
     11          4  C    CARTESIAN Y     1.666827      0.166044  KCAL/ANGSTROM
     12          4  C    CARTESIAN Z    -0.229519      0.013382  KCAL/ANGSTROM
     13          5  C    CARTESIAN X     0.006700     -0.155587  KCAL/ANGSTROM
     14          5  C    CARTESIAN Y     0.302571      0.155097  KCAL/ANGSTROM
     15          5  C    CARTESIAN Z     1.100840     -0.040542  KCAL/ANGSTROM
     16          6  N    CARTESIAN X     1.394262      0.117667  KCAL/ANGSTROM
     17          6  N    CARTESIAN Y     0.636980     -0.001326  KCAL/ANGSTROM
     18          6  N    CARTESIAN Z     0.779513     -0.035329  KCAL/ANGSTROM
     19          7  C    CARTESIAN X     1.551161      0.044830  KCAL/ANGSTROM
     20          7  C    CARTESIAN Y     0.988754     -0.267234  KCAL/ANGSTROM
     21          7  C    CARTESIAN Z    -0.551143     -0.025153  KCAL/ANGSTROM
     22          8  O    CARTESIAN X     2.565640      0.121668  KCAL/ANGSTROM
     23          8  O    CARTESIAN Y     1.295206      0.318482  KCAL/ANGSTROM
     24          8  O    CARTESIAN Z    -1.116837      0.110331  KCAL/ANGSTROM
     25          9  O    CARTESIAN X     0.326097     -0.029557  KCAL/ANGSTROM
     26          9  O    CARTESIAN Y     0.960692     -0.437630  KCAL/ANGSTROM
     27          9  O    CARTESIAN Z    -1.179908      0.035049  KCAL/ANGSTROM
     28         10  H    CARTESIAN X    -2.098108      0.140488  KCAL/ANGSTROM
     29         10  H    CARTESIAN Y    -2.583978      0.173802  KCAL/ANGSTROM
     30         10  H    CARTESIAN Z    -1.653786      0.058866  KCAL/ANGSTROM
     31         11  H    CARTESIAN X    -1.280488      0.050712  KCAL/ANGSTROM
     32         11  H    CARTESIAN Y     2.599796      0.073206  KCAL/ANGSTROM
     33         11  H    CARTESIAN Z     0.131155      0.046590  KCAL/ANGSTROM
     34         12  H    CARTESIAN X    -2.589217      0.046363  KCAL/ANGSTROM
     35         12  H    CARTESIAN Y     1.424988      0.013914  KCAL/ANGSTROM
     36         12  H    CARTESIAN Z     0.412493      0.091173  KCAL/ANGSTROM
     37         13  H    CARTESIAN X    -2.123693      0.079962  KCAL/ANGSTROM
     38         13  H    CARTESIAN Y     1.876948     -0.040736  KCAL/ANGSTROM
     39         13  H    CARTESIAN Z    -1.238156      0.059671  KCAL/ANGSTROM
     40         14  H    CARTESIAN X    -0.390476     -0.105371  KCAL/ANGSTROM
     41         14  H    CARTESIAN Y     0.966995      0.094515  KCAL/ANGSTROM
     42         14  H    CARTESIAN Z     1.895523      0.221390  KCAL/ANGSTROM
     43         15  H    CARTESIAN X    -0.093502     -0.130071  KCAL/ANGSTROM
     44         15  H    CARTESIAN Y    -0.745305      0.015611  KCAL/ANGSTROM
     45         15  H    CARTESIAN Z     1.450156     -0.085736  KCAL/ANGSTROM
     46         16  H    CARTESIAN X     2.140831      0.099942  KCAL/ANGSTROM
     47         16  H    CARTESIAN Y     0.511343     -0.074749  KCAL/ANGSTROM
     48         16  H    CARTESIAN Z     1.428903     -0.222531  KCAL/ANGSTROM




   ATOM   CHEMICAL          X               Y               Z
  NUMBER   SYMBOL      (ANGSTROMS)     (ANGSTROMS)     (ANGSTROMS)

     1       C         -1.71609304  *  -1.71164664  *  -1.26138099  *
     2       C         -1.26926492  *  -0.68674537  *  -0.79924630  *
     3       C         -0.71911328  *   0.53451235  *  -0.27067994  *
     4       C         -1.73509745  *   1.66682679  *  -0.22951900  *
     5       C          0.00670004  *   0.30257115  *   1.10083996  *
     6       N          1.39426187  *   0.63697983  *   0.77951349  *
     7       C          1.55116145  *   0.98875408  *  -0.55114274  *
     8       O          2.56564000  *   1.29520573  *  -1.11683685  *
     9       O          0.32609692  *   0.96069184  *  -1.17990787  *
    10       H         -2.09810848  *  -2.58397772  *  -1.65378595  *
    11       H         -1.28048769  *   2.59979570  *   0.13115510  *
    12       H         -2.58921722  *   1.42498834  *   0.41249318  *
    13       H         -2.12369331  *   1.87694752  *  -1.23815596  *
    14       H         -0.39047607  *   0.96699488  *   1.89552342  *
    15       H         -0.09350157  *  -0.74530484  *   1.45015573  *
    16       H          2.14083121  *   0.51134312  *   1.42890264  *

                             CARTESIAN COORDINATES

   1    C       -1.716093041    -1.711646640    -1.261380987
   2    C       -1.269264921    -0.686745367    -0.799246299
   3    C       -0.719113284     0.534512350    -0.270679937
   4    C       -1.735097449     1.666826791    -0.229518997
   5    C        0.006700036     0.302571147     1.100839961
   6    N        1.394261875     0.636979827     0.779513493
   7    C        1.551161449     0.988754083    -0.551142740
   8    O        2.565639996     1.295205733    -1.116836849
   9    O        0.326096919     0.960691841    -1.179907873
  10    H       -2.098108481    -2.583977724    -1.653785955
  11    H       -1.280487688     2.599795699     0.131155096
  12    H       -2.589217224     1.424988343     0.412493180
  13    H       -2.123693309     1.876947516    -1.238155961
  14    H       -0.390476066     0.966994875     1.895523424
  15    H       -0.093501574    -0.745304837     1.450155726
  16    H        2.140831207     0.511343123     1.428902635


           Empirical Formula: C6 H7 N O2  =    16 atoms



      MOLECULAR POINT GROUP   :   C1  


                  EIGENVALUES  
 -37.44625 -31.02964 -30.38839 -28.36365 -26.34877 -24.46772 -22.28383 -22.07219
 -19.29863 -17.61356 -17.01861 -16.66476 -15.58021 -15.26685 -14.71034 -14.42283
 -14.14780 -13.57356 -13.03480 -11.74981 -11.59332 -11.27081 -11.08359 -10.09528
   0.42105   0.93196   1.42092   1.47788   2.06177   2.71491   3.09443   3.38560
   3.79654   4.67788   4.76177   4.97651   5.18327   5.19036   5.22268   5.57638
   6.33731   6.35377   6.45667


              NET ATOMIC CHARGES AND DIPOLE CONTRIBUTIONS

  ATOM NO.   TYPE          CHARGE      No. of ELECS.   s-Pop       p-Pop       
    1          C          -0.132406        4.1324     1.14230     2.99011
    2          C          -0.146075        4.1461     1.11050     3.03557
    3          C           0.301443        3.6986     1.06734     2.63122
    4          C          -0.474095        4.4741     1.05978     3.41432
    5          C          -0.114976        4.1150     1.08151     3.03347
    6          N          -0.640301        5.6403     1.55797     4.08233
    7          C           0.706290        3.2937     1.06457     2.22914
    8          O          -0.466786        6.4668     1.87946     4.58732
    9          O          -0.376043        6.3760     1.88498     4.49106
   10          H           0.189990        0.8100     0.81001
   11          H           0.169923        0.8301     0.83008
   12          H           0.160488        0.8395     0.83951
   13          H           0.177042        0.8230     0.82296
   14          H           0.153480        0.8465     0.84652
   15          H           0.152010        0.8480     0.84799
   16          H           0.340014        0.6600     0.65999
 DIPOLE           X         Y         Z       TOTAL
 POINT-CHG.    -4.100    -1.400     3.907     5.834
 HYBRID         0.486    -0.138    -0.001     0.505
 SUM           -3.615    -1.538     3.905     5.539


          ATOMIC ORBITAL ELECTRON POPULATIONS

     Atom    s        px        py        pz   
    1  C   1.14230   0.99051   1.02375   0.97585
    2  C   1.11050   1.01584   0.99349   1.02624
    3  C   1.06734   0.85327   0.91513   0.86282
    4  C   1.05978   1.11202   1.09796   1.20434
    5  C   1.08151   0.84185   1.14399   1.04763
    6  N   1.55797   1.14556   1.73244   1.20433
    7  C   1.06457   0.77041   0.72110   0.73763
    8  O   1.87946   1.35194   1.56514   1.67024
    9  O   1.88498   1.26111   1.82063   1.40932
   10  H   0.81001
   11  H   0.83008
   12  H   0.83951
   13  H   0.82296
   14  H   0.84652
   15  H   0.84799
   16  H   0.65999

 **********************
 *                    *
 * JOB ENDED NORMALLY *
 *                    *
 **********************



 TOTAL JOB TIME:             0.68 SECONDS

 == MOPAC DONE ==
