 *******************************************************************************
 **                                                                           **
 **                              MOPAC v23.2                                  **
 **                                                                           **
 *******************************************************************************
 **          Digital Object Identifier (DOI): 10.5281/zenodo.6511958          **
 **    Visit the DOI location for information on how to cite this program.    **
 *******************************************************************************

                              PM7 CALCULATION RESULTS

 *******************************************************************************
 *  CALCULATION DONE: (MAX THREADS = 40)             Fri Sep 19 21:36:47 2025  *
 *  PM7        - The PM7 Hamiltonian to be used
 *
 *
 *
 *                 CHARGE ON SYSTEM = +1
 *
 *
 *
 *  1SCF       - DO 1 SCF AND THEN STOP 
 *  T=         - A TIME OF 172800.0 SECONDS REQUESTED
 *  DUMP=N     - RESTART FILE WRITTEN EVERY 7200.0 SECONDS REQUESTED
 *  RELSCF     - DEFAULT SCF CRITERION MULTIPLIED BY 0.0001
 *              (DEFAULT SCF CRITERION = 0.00010)
 *  GRADIENTS  - ALL GRADIENTS TO BE PRINTED
 *  DISP       - PRINT DISPERSION AND HYDROGEN BOND ENERGIES
 *******************************************************************************
PM7 1SCF GRADIENTS DISP RELSCF=0.0001 CHARGE=1
 Title: ASE calculation

   ATOM   CHEMICAL          X               Y               Z
  NUMBER   SYMBOL      (ANGSTROMS)     (ANGSTROMS)     (ANGSTROMS)

     1       C          2.82300015  *   0.48049173  *  -0.67196685  *
     2       C          1.34771237  *   0.33935117  *  -0.71853127  *
     3       O          0.78885627  *   0.39791270  *  -1.82348636  *
     4       C          0.57345021  *   0.12418624  *   0.50456089  *
     5       C         -0.70619728  *   0.93578626  *   0.79475787  *
     6       C         -1.49954527  *   1.28938167  *  -0.46675900  *
     7       C         -1.59340044  *  -0.24348631  *  -0.81878876  *
     8       C         -2.99073924  *  -0.81038099  *  -0.82279689  *
     9       C         -0.79932544  *  -0.55431657  *   0.47386950  *
    10       H          3.31502810  *  -0.51248272  *  -0.53694091  *
    11       H          3.26394146  *   0.92373049  *  -1.58875711  *
    12       H          3.16065754  *   1.10688060  *   0.18335986  *
    13       H          1.21301110  *  -0.09630454  *   1.38494818  *
    14       H         -0.81615915  *   1.48349296  *   1.71929510  *
    15       H         -1.01587063  *   1.93309138  *  -1.20333188  *
    16       H         -2.47770346  *   1.74974192  *  -0.24735315  *
    17       H         -1.06487429  *  -0.52546844  *  -1.75376280  *
    18       H         -3.56290739  *  -0.53265512  *   0.07490823  *
    19       H         -2.98841246  *  -1.91040371  *  -0.87141181  *
    20       H         -3.57018841  *  -0.45572965  *  -1.69057959  *
    21       H         -1.01988569  *  -1.41603836  *   1.08482089  *



          CARTESIAN COORDINATES 

    NO.       ATOM           X           Y           Z

     1         C          2.8230      0.4805     -0.6720
     2         C          1.3477      0.3394     -0.7185
     3         O          0.7889      0.3979     -1.8235
     4         C          0.5735      0.1242      0.5046
     5         C         -0.7062      0.9358      0.7948
     6         C         -1.4995      1.2894     -0.4668
     7         C         -1.5934     -0.2435     -0.8188
     8         C         -2.9907     -0.8104     -0.8228
     9         C         -0.7993     -0.5543      0.4739
    10         H          3.3150     -0.5125     -0.5369
    11         H          3.2639      0.9237     -1.5888
    12         H          3.1607      1.1069      0.1834
    13         H          1.2130     -0.0963      1.3849
    14         H         -0.8162      1.4835      1.7193
    15         H         -1.0159      1.9331     -1.2033
    16         H         -2.4777      1.7497     -0.2474
    17         H         -1.0649     -0.5255     -1.7538
    18         H         -3.5629     -0.5327      0.0749
    19         H         -2.9884     -1.9104     -0.8714
    20         H         -3.5702     -0.4557     -1.6906
    21         H         -1.0199     -1.4160      1.0848

 General Reference for PM7:
 "Optimization of Parameters for Semiempirical Methods VI: More Modifications to the 
 NDDO Approximations and Re-optimization of Parameters", J. J. P. Stewart, J. Mol. Mod., 1:32, 19 (2013)
 https://link.springer.com/article/10.1007/s00894-012-1667-x

           Empirical Formula: C8 H12 O  =    21 atoms



      MOLECULAR POINT GROUP   :   C1  


          UHF CALCULATION, NO. OF ALPHA ELECTRONS =   25
                           NO. OF BETA  ELECTRONS =   24
  SCF CRITERION =    0.1000E-07

 -------------------------------------------------------------------------------
 PM7 1SCF GRADIENTS DISP RELSCF=0.0001 CHARGE=1
 Title: ASE calculation



     1SCF WAS SPECIFIED, SO BFGS WAS NOT USED                 
     SCF FIELD WAS ACHIEVED                                   


                              PM7 CALCULATION
                                                       MOPAC v23.2 Linux
                                                       Fri Sep 19 21:36:52 2025




          FINAL HEAT OF FORMATION =        202.38919 KCAL/MOL =     846.79638 KJ/MOL

          TOTAL ENERGY            =     -32963.11569 KCAL/MOL = ELECTRONIC ENERGY + CORE-CORE REPULSION
          ENERGY OF ATOMS         =      33167.45855 KCAL/MOL
                              SUM =        204.34286 KCAL/MOL
          DISPERSION ENERGY       =         -1.95367 KCAL/MOL
                              SUM =        202.38919 KCAL/MOL = FINAL HEAT OF FORMATION



          TOTAL ENERGY            =      -1429.41599 EV
          ELECTRONIC ENERGY       =      -7377.96730 EV 
          CORE-CORE REPULSION     =       5948.55131 EV
          COSMO AREA              =        167.91 SQUARE ANGSTROMS
          COSMO VOLUME            =        166.64 CUBIC ANGSTROMS

          GRADIENT NORM           =          0.97547          =       0.21287 PER ATOM
          IONIZATION POTENTIAL    =         15.087848 EV
          ALPHA SOMO LUMO (EV)    =        -15.088 -6.064
          BETA  SOMO LUMO (EV)    =        -15.111 -8.375
          NO. OF ALPHA ELECTRONS  =         25
          NO. OF BETA  ELECTRONS  =         24
          MOLECULAR WEIGHT        =        124.1822         POINT GROUP:  C1  

          MOLECULAR DIMENSIONS (Angstroms)

            Atom       Atom       Distance
            H    18    H    11     7.17598
            H    14    H    19     4.27856
            H    21    H    15     3.81320


          SCF CALCULATIONS        =          1

          WALL-CLOCK TIME         =      4.781 SECONDS
          COMPUTATION TIME        =      0.637 SECONDS

          LARGEST ATOMIC GRADIENTS

          Atom     Label                     Cartesian Gradients           Cartesian Coordinates       |Gradient|
                                           X          Y          Z        X          Y          Z

            13       H                   0.355      0.018     -0.187    1.21301   -0.09630    1.38495      0.402
             2       C                  -0.321      0.060     -0.064    1.34771    0.33935   -0.71853      0.333
             3       O                   0.053     -0.224      0.240    0.78886    0.39791   -1.82349      0.332
            14       H                  -0.299      0.031     -0.038   -0.81616    1.48349    1.71930      0.303
            10       H                  -0.007     -0.248     -0.159    3.31503   -0.51248   -0.53694      0.295
            12       H                   0.154     -0.057      0.225    3.16066    1.10688    0.18336      0.279
            19       H                  -0.062     -0.121      0.220   -2.98841   -1.91040   -0.87141      0.259
             1       C                   0.029      0.168      0.094    2.82300    0.48049   -0.67197      0.195
            21       H                  -0.087     -0.066     -0.152   -1.01989   -1.41604    1.08482      0.187
            11       H                  -0.114      0.126     -0.059    3.26394    0.92373   -1.58876      0.180



       FINAL  POINT  AND  DERIVATIVES

   PARAMETER     ATOM    TYPE            VALUE        GRADIENT
      1          1  C    CARTESIAN X     2.823000      0.028972  KCAL/ANGSTROM
      2          1  C    CARTESIAN Y     0.480492      0.168039  KCAL/ANGSTROM
      3          1  C    CARTESIAN Z    -0.671967      0.093778  KCAL/ANGSTROM
      4          2  C    CARTESIAN X     1.347712     -0.320745  KCAL/ANGSTROM
      5          2  C    CARTESIAN Y     0.339351      0.059794  KCAL/ANGSTROM
      6          2  C    CARTESIAN Z    -0.718531     -0.064265  KCAL/ANGSTROM
      7          3  O    CARTESIAN X     0.788856      0.052525  KCAL/ANGSTROM
      8          3  O    CARTESIAN Y     0.397913     -0.223748  KCAL/ANGSTROM
      9          3  O    CARTESIAN Z    -1.823486      0.240248  KCAL/ANGSTROM
     10          4  C    CARTESIAN X     0.573450      0.125693  KCAL/ANGSTROM
     11          4  C    CARTESIAN Y     0.124186     -0.059027  KCAL/ANGSTROM
     12          4  C    CARTESIAN Z     0.504561     -0.029209  KCAL/ANGSTROM
     13          5  C    CARTESIAN X    -0.706197     -0.062792  KCAL/ANGSTROM
     14          5  C    CARTESIAN Y     0.935786      0.007101  KCAL/ANGSTROM
     15          5  C    CARTESIAN Z     0.794758     -0.050240  KCAL/ANGSTROM
     16          6  C    CARTESIAN X    -1.499545     -0.043746  KCAL/ANGSTROM
     17          6  C    CARTESIAN Y     1.289382      0.141970  KCAL/ANGSTROM
     18          6  C    CARTESIAN Z    -0.466759      0.015736  KCAL/ANGSTROM
     19          7  C    CARTESIAN X    -1.593400      0.040813  KCAL/ANGSTROM
     20          7  C    CARTESIAN Y    -0.243486      0.029992  KCAL/ANGSTROM
     21          7  C    CARTESIAN Z    -0.818789      0.107679  KCAL/ANGSTROM
     22          8  C    CARTESIAN X    -2.990739      0.009276  KCAL/ANGSTROM
     23          8  C    CARTESIAN Y    -0.810381     -0.058749  KCAL/ANGSTROM
     24          8  C    CARTESIAN Z    -0.822797      0.015363  KCAL/ANGSTROM
     25          9  C    CARTESIAN X    -0.799325      0.039662  KCAL/ANGSTROM
     26          9  C    CARTESIAN Y    -0.554317      0.045877  KCAL/ANGSTROM
     27          9  C    CARTESIAN Z     0.473870     -0.007769  KCAL/ANGSTROM
     28         10  H    CARTESIAN X     3.315028     -0.007212  KCAL/ANGSTROM
     29         10  H    CARTESIAN Y    -0.512483     -0.248101  KCAL/ANGSTROM
     30         10  H    CARTESIAN Z    -0.536941     -0.158529  KCAL/ANGSTROM
     31         11  H    CARTESIAN X     3.263941     -0.114306  KCAL/ANGSTROM
     32         11  H    CARTESIAN Y     0.923730      0.126341  KCAL/ANGSTROM
     33         11  H    CARTESIAN Z    -1.588757     -0.059194  KCAL/ANGSTROM
     34         12  H    CARTESIAN X     3.160658      0.154414  KCAL/ANGSTROM
     35         12  H    CARTESIAN Y     1.106881     -0.057207  KCAL/ANGSTROM
     36         12  H    CARTESIAN Z     0.183360      0.225283  KCAL/ANGSTROM
     37         13  H    CARTESIAN X     1.213011      0.354832  KCAL/ANGSTROM
     38         13  H    CARTESIAN Y    -0.096305      0.018041  KCAL/ANGSTROM
     39         13  H    CARTESIAN Z     1.384948     -0.187425  KCAL/ANGSTROM
     40         14  H    CARTESIAN X    -0.816159     -0.299167  KCAL/ANGSTROM
     41         14  H    CARTESIAN Y     1.483493      0.030794  KCAL/ANGSTROM
     42         14  H    CARTESIAN Z     1.719295     -0.038238  KCAL/ANGSTROM
     43         15  H    CARTESIAN X    -1.015871      0.074733  KCAL/ANGSTROM
     44         15  H    CARTESIAN Y     1.933091      0.068884  KCAL/ANGSTROM
     45         15  H    CARTESIAN Z    -1.203332     -0.073003  KCAL/ANGSTROM
     46         16  H    CARTESIAN X    -2.477703      0.031510  KCAL/ANGSTROM
     47         16  H    CARTESIAN Y     1.749742      0.120840  KCAL/ANGSTROM
     48         16  H    CARTESIAN Z    -0.247353      0.050118  KCAL/ANGSTROM
     49         17  H    CARTESIAN X    -1.064874      0.108364  KCAL/ANGSTROM
     50         17  H    CARTESIAN Y    -0.525468      0.056342  KCAL/ANGSTROM
     51         17  H    CARTESIAN Z    -1.753763      0.024249  KCAL/ANGSTROM
     52         18  H    CARTESIAN X    -3.562907      0.008210  KCAL/ANGSTROM
     53         18  H    CARTESIAN Y    -0.532655     -0.002781  KCAL/ANGSTROM
     54         18  H    CARTESIAN Z     0.074908     -0.048005  KCAL/ANGSTROM
     55         19  H    CARTESIAN X    -2.988412     -0.061740  KCAL/ANGSTROM
     56         19  H    CARTESIAN Y    -1.910404     -0.120970  KCAL/ANGSTROM
     57         19  H    CARTESIAN Z    -0.871412      0.220007  KCAL/ANGSTROM
     58         20  H    CARTESIAN X    -3.570188     -0.032511  KCAL/ANGSTROM
     59         20  H    CARTESIAN Y    -0.455730     -0.037236  KCAL/ANGSTROM
     60         20  H    CARTESIAN Z    -1.690580     -0.124257  KCAL/ANGSTROM
     61         21  H    CARTESIAN X    -1.019886     -0.086781  KCAL/ANGSTROM
     62         21  H    CARTESIAN Y    -1.416038     -0.066196  KCAL/ANGSTROM
     63         21  H    CARTESIAN Z     1.084821     -0.152331  KCAL/ANGSTROM




   ATOM   CHEMICAL          X               Y               Z
  NUMBER   SYMBOL      (ANGSTROMS)     (ANGSTROMS)     (ANGSTROMS)

     1       C          2.82300015  *   0.48049173  *  -0.67196685  *
     2       C          1.34771237  *   0.33935117  *  -0.71853127  *
     3       O          0.78885627  *   0.39791270  *  -1.82348636  *
     4       C          0.57345021  *   0.12418624  *   0.50456089  *
     5       C         -0.70619728  *   0.93578626  *   0.79475787  *
     6       C         -1.49954527  *   1.28938167  *  -0.46675900  *
     7       C         -1.59340044  *  -0.24348631  *  -0.81878876  *
     8       C         -2.99073924  *  -0.81038099  *  -0.82279689  *
     9       C         -0.79932544  *  -0.55431657  *   0.47386950  *
    10       H          3.31502810  *  -0.51248272  *  -0.53694091  *
    11       H          3.26394146  *   0.92373049  *  -1.58875711  *
    12       H          3.16065754  *   1.10688060  *   0.18335986  *
    13       H          1.21301110  *  -0.09630454  *   1.38494818  *
    14       H         -0.81615915  *   1.48349296  *   1.71929510  *
    15       H         -1.01587063  *   1.93309138  *  -1.20333188  *
    16       H         -2.47770346  *   1.74974192  *  -0.24735315  *
    17       H         -1.06487429  *  -0.52546844  *  -1.75376280  *
    18       H         -3.56290739  *  -0.53265512  *   0.07490823  *
    19       H         -2.98841246  *  -1.91040371  *  -0.87141181  *
    20       H         -3.57018841  *  -0.45572965  *  -1.69057959  *
    21       H         -1.01988569  *  -1.41603836  *   1.08482089  *

                             CARTESIAN COORDINATES

   1    C        2.823000154     0.480491728    -0.671966855
   2    C        1.347712366     0.339351168    -0.718531272
   3    O        0.788856265     0.397912704    -1.823486365
   4    C        0.573450210     0.124186236     0.504560892
   5    C       -0.706197281     0.935786261     0.794757871
   6    C       -1.499545272     1.289381670    -0.466758995
   7    C       -1.593400439    -0.243486310    -0.818788759
   8    C       -2.990739240    -0.810380993    -0.822796891
   9    C       -0.799325437    -0.554316568     0.473869503
  10    H        3.315028099    -0.512482720    -0.536940907
  11    H        3.263941457     0.923730487    -1.588757106
  12    H        3.160657541     1.106880602     0.183359856
  13    H        1.213011104    -0.096304544     1.384948176
  14    H       -0.816159147     1.483492959     1.719295101
  15    H       -1.015870629     1.933091376    -1.203331881
  16    H       -2.477703457     1.749741921    -0.247353152
  17    H       -1.064874288    -0.525468442    -1.753762802
  18    H       -3.562907385    -0.532655117     0.074908233
  19    H       -2.988412457    -1.910403711    -0.871411806
  20    H       -3.570188408    -0.455729652    -1.690579594
  21    H       -1.019885694    -1.416038364     1.084820888


           Empirical Formula: C8 H12 O  =    21 atoms



      MOLECULAR POINT GROUP   :   C1  


          ALPHA EIGENVALUES  
 -40.30027 -37.05267 -33.22539 -30.84577 -28.44759 -27.49242 -25.71743 -24.84657
 -22.82161 -22.14432 -21.61598 -21.47778 -21.05953 -19.87657 -18.93304 -18.88761
 -18.72752 -18.17707 -17.60999 -17.43123 -16.97511 -16.19746 -15.91916 -15.67210
 -15.08785  -6.06411  -2.99400  -2.86647  -2.50164  -2.16700  -1.27515  -1.21660
  -1.02718  -1.02487   0.01841   0.12703   0.36015   0.51135   0.68577   1.20500
   1.42466   1.51336   1.64523   1.75576   2.32043   2.39637   2.40505   3.52403


           BETA EIGENVALUES 
 -37.97839 -36.37990 -32.71261 -30.78975 -28.39355 -27.17832 -25.64475 -24.13400
 -22.66966 -21.76270 -21.19426 -21.09092 -20.61240 -19.73327 -18.85054 -18.58855
 -18.24491 -17.56545 -17.45844 -16.93864 -16.26008 -15.86868 -15.66252 -15.11109
  -8.37495  -5.88640  -2.86743  -2.59267  -2.13849  -1.92740  -1.27024  -1.17360
  -1.02208  -1.00194   0.03281   0.14596   0.37139   0.52106   0.70054   1.20757
   1.43378   1.52311   1.64849   1.76081   2.32108   2.40182   2.40592   3.52532


              NET ATOMIC CHARGES AND DIPOLE CONTRIBUTIONS

  ATOM NO.   TYPE          CHARGE      No. of ELECS.   s-Pop       p-Pop       
    1          C          -0.480243        4.4802     1.06660     3.41365
    2          C           0.377310        3.6227     1.16225     2.46044
    3          O           0.116123        5.8839     1.91047     3.97341
    4          C          -0.317366        4.3174     1.07288     3.24449
    5          C          -0.078186        4.0782     1.08385     2.99434
    6          C          -0.309745        4.3097     1.07808     3.23166
    7          C          -0.072210        4.0722     1.07610     2.99611
    8          C          -0.448786        4.4488     1.05167     3.39712
    9          C          -0.123766        4.1238     1.09087     3.03290
   10          H           0.237296        0.7627     0.76270
   11          H           0.220573        0.7794     0.77943
   12          H           0.230131        0.7699     0.76987
   13          H           0.225664        0.7743     0.77434
   14          H           0.199217        0.8008     0.80078
   15          H           0.158031        0.8420     0.84197
   16          H           0.197413        0.8026     0.80259
   17          H           0.144555        0.8554     0.85544
   18          H           0.171796        0.8282     0.82820
   19          H           0.172438        0.8276     0.82756
   20          H           0.177928        0.8221     0.82207
   21          H           0.201828        0.7982     0.79817
 DIPOLE           X         Y         Z       TOTAL
 POINT-CHG.     4.467     0.302     0.333     4.489
 HYBRID         0.355     0.053    -0.322     0.482
 SUM            4.822     0.354     0.011     4.835


          ATOMIC ORBITAL ELECTRON POPULATIONS

     Atom    s        px        py        pz   
    1  C   1.06660   0.92064   1.23635   1.25666
    2  C   1.16225   0.95552   0.61722   0.88770
    3  O   1.91047   1.20030   1.54355   1.22955
    4  C   1.07288   0.98702   1.23448   1.02299
    5  C   1.08385   0.89116   1.00290   1.10027
    6  C   1.07808   1.15111   1.04703   1.03352
    7  C   1.07610   1.03292   0.97132   0.99188
    8  C   1.05167   1.01671   1.17295   1.20746
    9  C   1.09087   0.89743   1.03608   1.09939
   10  H   0.76270
   11  H   0.77943
   12  H   0.76987
   13  H   0.77434
   14  H   0.80078
   15  H   0.84197
   16  H   0.80259
   17  H   0.85544
   18  H   0.82820
   19  H   0.82756
   20  H   0.82207
   21  H   0.79817


                    (SZ)    =    0.500000
                    (S**2)  =    0.766044


          ATOMIC ORBITAL SPIN POPULATIONS

    Atom   Total    s     px     py     pz   
         Atomic
    1  C  0.1044  0.012  0.087  0.001  0.005
    2  C -0.1203 -0.017 -0.012 -0.062 -0.028
    3  O  0.8867  0.017  0.615  0.096  0.159
    4  C  0.0929  0.004  0.027  0.004  0.058
    5  C  0.0072 -0.000 -0.000  0.007  0.001
    6  C  0.0013 -0.000 -0.000  0.000  0.001
    7  C  0.0242  0.001  0.003  0.001  0.019
    8  C  0.0030  0.000  0.002  0.000  0.001
    9  C  0.0057 -0.001 -0.004  0.002  0.008
   10  H -0.0045 -0.005
   11  H -0.0039 -0.004
   12  H -0.0029 -0.003
   13  H -0.0006 -0.001
   14  H -0.0004 -0.000
   15  H  0.0005  0.000
   16  H -0.0000 -0.000
   17  H  0.0047  0.005
   18  H  0.0016  0.002
   19  H -0.0000 -0.000
   20  H  0.0001  0.000
   21  H  0.0002  0.000

 **********************
 *                    *
 * JOB ENDED NORMALLY *
 *                    *
 **********************



 TOTAL JOB TIME:             5.52 SECONDS

 == MOPAC DONE ==
