 *******************************************************************************
 **                                                                           **
 **                              MOPAC v23.2                                  **
 **                                                                           **
 *******************************************************************************
 **          Digital Object Identifier (DOI): 10.5281/zenodo.6511958          **
 **    Visit the DOI location for information on how to cite this program.    **
 *******************************************************************************

                              PM7 CALCULATION RESULTS

 *******************************************************************************
 *  CALCULATION DONE: (MAX THREADS = 40)             Fri Sep 19 21:39:43 2025  *
 *  PM7        - The PM7 Hamiltonian to be used
 *
 *
 *
 *                 CHARGE ON SYSTEM = +1
 *
 *
 *
 *  1SCF       - DO 1 SCF AND THEN STOP 
 *  T=         - A TIME OF 172800.0 SECONDS REQUESTED
 *  DUMP=N     - RESTART FILE WRITTEN EVERY 7200.0 SECONDS REQUESTED
 *  RELSCF     - DEFAULT SCF CRITERION MULTIPLIED BY 0.0001
 *              (DEFAULT SCF CRITERION = 0.00010)
 *  GRADIENTS  - ALL GRADIENTS TO BE PRINTED
 *  DISP       - PRINT DISPERSION AND HYDROGEN BOND ENERGIES
 *******************************************************************************
PM7 1SCF GRADIENTS DISP RELSCF=0.0001 CHARGE=1
 Title: ASE calculation

   ATOM   CHEMICAL          X               Y               Z
  NUMBER   SYMBOL      (ANGSTROMS)     (ANGSTROMS)     (ANGSTROMS)

     1       C         -2.51697126  *   1.18142996  *   0.37126467  *
     2       N         -1.39810668  *   0.47600985  *  -0.11914464  *
     3       C         -1.18951105  *  -0.97057396  *   0.18732867  *
     4       O         -2.04393117  *  -1.48039380  *   0.84301418  *
     5       C          0.05421151  *  -1.54510741  *  -0.38728476  *
     6       C          1.31374654  *  -0.87777493  *   0.18558586  *
     7       O          1.15241372  *   0.50041197  *  -0.10842453  *
     8       C          2.34182375  *   1.26658679  *   0.01207624  *
     9       H         -3.21250022  *   0.56467103  *   0.99371983  *
    10       H         -2.21404165  *   2.07642147  *   0.98428889  *
    11       H         -3.13032386  *   1.63139247  *  -0.46037399  *
    12       H         -0.66388627  *   0.97545494  *  -0.64235543  *
    13       H          0.05781854  *  -1.47299418  *  -1.50333107  *
    14       H          0.09113451  *  -2.64889591  *  -0.18123852  *
    15       H          2.22911690  *  -1.27600231  *  -0.29774175  *
    16       H          1.39535850  *  -0.99334230  *   1.28442637  *
    17       H          2.74477782  *   1.19788626  *   1.02906612  *
    18       H          2.00698414  *   2.29041916  *  -0.20070183  *
    19       H          3.07950873  *   0.94398287  *  -0.73227396  *



          CARTESIAN COORDINATES 

    NO.       ATOM           X           Y           Z

     1         C         -2.5170      1.1814      0.3713
     2         N         -1.3981      0.4760     -0.1191
     3         C         -1.1895     -0.9706      0.1873
     4         O         -2.0439     -1.4804      0.8430
     5         C          0.0542     -1.5451     -0.3873
     6         C          1.3137     -0.8778      0.1856
     7         O          1.1524      0.5004     -0.1084
     8         C          2.3418      1.2666      0.0121
     9         H         -3.2125      0.5647      0.9937
    10         H         -2.2140      2.0764      0.9843
    11         H         -3.1303      1.6314     -0.4604
    12         H         -0.6639      0.9755     -0.6424
    13         H          0.0578     -1.4730     -1.5033
    14         H          0.0911     -2.6489     -0.1812
    15         H          2.2291     -1.2760     -0.2977
    16         H          1.3954     -0.9933      1.2844
    17         H          2.7448      1.1979      1.0291
    18         H          2.0070      2.2904     -0.2007
    19         H          3.0795      0.9440     -0.7323

 General Reference for PM7:
 "Optimization of Parameters for Semiempirical Methods VI: More Modifications to the 
 NDDO Approximations and Re-optimization of Parameters", J. J. P. Stewart, J. Mol. Mod., 1:32, 19 (2013)
 https://link.springer.com/article/10.1007/s00894-012-1667-x

           Empirical Formula: C5 H11 N O2  =    19 atoms



      MOLECULAR POINT GROUP   :   C1  


          UHF CALCULATION, NO. OF ALPHA ELECTRONS =   24
                           NO. OF BETA  ELECTRONS =   23
  SCF CRITERION =    0.1000E-07

 -------------------------------------------------------------------------------
 PM7 1SCF GRADIENTS DISP RELSCF=0.0001 CHARGE=1
 Title: ASE calculation



     1SCF WAS SPECIFIED, SO BFGS WAS NOT USED                 
     SCF FIELD WAS ACHIEVED                                   


                              PM7 CALCULATION
                                                       MOPAC v23.2 Linux
                                                       Fri Sep 19 21:39:44 2025




          FINAL HEAT OF FORMATION =         98.21479 KCAL/MOL =     410.93070 KJ/MOL

          TOTAL ENERGY            =     -35314.44745 KCAL/MOL = ELECTRONIC ENERGY + CORE-CORE REPULSION
          ENERGY OF ATOMS         =      35414.96735 KCAL/MOL
                              SUM =        100.51989 KCAL/MOL
          DISPERSION ENERGY       =         -1.87048 KCAL/MOL
          H-BOND ENERGY           =         -0.44613 KCAL/MOL
          MM CORR. FOR -CO-NH-    =          0.01151 KCAL/MOL
                              SUM =         98.21479 KCAL/MOL = FINAL HEAT OF FORMATION



          TOTAL ENERGY            =      -1531.37938 EV
          ELECTRONIC ENERGY       =      -6965.09392 EV 
          CORE-CORE REPULSION     =       5433.71454 EV
          COSMO AREA              =        162.33 SQUARE ANGSTROMS
          COSMO VOLUME            =        153.98 CUBIC ANGSTROMS

          GRADIENT NORM           =          1.26380          =       0.28994 PER ATOM
          IONIZATION POTENTIAL    =         14.505258 EV
          ALPHA SOMO LUMO (EV)    =        -14.508 -4.591
          BETA  SOMO LUMO (EV)    =        -14.505 -7.335
          NO. OF ALPHA ELECTRONS  =         24
          NO. OF BETA  ELECTRONS  =         23
          MOLECULAR WEIGHT        =        117.1474         POINT GROUP:  C1  

          MOLECULAR DIMENSIONS (Angstroms)

            Atom       Atom       Distance
            H    19    H     9     6.53547
            H    14    H    10     4.89137
            H    16    H    11     3.16318


          SCF CALCULATIONS        =          1

          WALL-CLOCK TIME         =      0.977 SECONDS
          COMPUTATION TIME        =      0.778 SECONDS

          LARGEST ATOMIC GRADIENTS

          Atom     Label                     Cartesian Gradients           Cartesian Coordinates       |Gradient|
                                           X          Y          Z        X          Y          Z

            11       H                  -0.248      0.146      0.358   -3.13032    1.63139   -0.46037      0.459
            16       H                  -0.182      0.205      0.359    1.39536   -0.99334    1.28443      0.451
            12       H                  -0.082     -0.119     -0.349   -0.66389    0.97545   -0.64236      0.378
            19       H                  -0.133      0.293      0.161    3.07951    0.94398   -0.73227      0.360
             2       N                   0.233     -0.188     -0.163   -1.39811    0.47601   -0.11914      0.341
             1       C                   0.313     -0.117      0.030   -2.51697    1.18143    0.37126      0.335
             7       O                   0.185     -0.141     -0.195    1.15241    0.50041   -0.10842      0.303
            18       H                   0.263     -0.014      0.059    2.00698    2.29042   -0.20070      0.270
             4       O                  -0.116     -0.225     -0.075   -2.04393   -1.48039    0.84301      0.264
            13       H                  -0.172     -0.156      0.104    0.05782   -1.47299   -1.50333      0.254



       FINAL  POINT  AND  DERIVATIVES

   PARAMETER     ATOM    TYPE            VALUE        GRADIENT
      1          1  C    CARTESIAN X    -2.516971      0.312690  KCAL/ANGSTROM
      2          1  C    CARTESIAN Y     1.181430     -0.117468  KCAL/ANGSTROM
      3          1  C    CARTESIAN Z     0.371265      0.030468  KCAL/ANGSTROM
      4          2  N    CARTESIAN X    -1.398107      0.233328  KCAL/ANGSTROM
      5          2  N    CARTESIAN Y     0.476010     -0.188306  KCAL/ANGSTROM
      6          2  N    CARTESIAN Z    -0.119145     -0.162817  KCAL/ANGSTROM
      7          3  C    CARTESIAN X    -1.189511      0.230996  KCAL/ANGSTROM
      8          3  C    CARTESIAN Y    -0.970574     -0.103629  KCAL/ANGSTROM
      9          3  C    CARTESIAN Z     0.187329     -0.017075  KCAL/ANGSTROM
     10          4  O    CARTESIAN X    -2.043931     -0.116218  KCAL/ANGSTROM
     11          4  O    CARTESIAN Y    -1.480394     -0.224684  KCAL/ANGSTROM
     12          4  O    CARTESIAN Z     0.843014     -0.075199  KCAL/ANGSTROM
     13          5  C    CARTESIAN X     0.054212     -0.079880  KCAL/ANGSTROM
     14          5  C    CARTESIAN Y    -1.545107     -0.140576  KCAL/ANGSTROM
     15          5  C    CARTESIAN Z    -0.387285      0.022712  KCAL/ANGSTROM
     16          6  C    CARTESIAN X     1.313747     -0.019111  KCAL/ANGSTROM
     17          6  C    CARTESIAN Y    -0.877775      0.024011  KCAL/ANGSTROM
     18          6  C    CARTESIAN Z     0.185586      0.148817  KCAL/ANGSTROM
     19          7  O    CARTESIAN X     1.152414      0.184701  KCAL/ANGSTROM
     20          7  O    CARTESIAN Y     0.500412     -0.140578  KCAL/ANGSTROM
     21          7  O    CARTESIAN Z    -0.108425     -0.195331  KCAL/ANGSTROM
     22          8  C    CARTESIAN X     2.341824     -0.091966  KCAL/ANGSTROM
     23          8  C    CARTESIAN Y     1.266587      0.150110  KCAL/ANGSTROM
     24          8  C    CARTESIAN Z     0.012076      0.163726  KCAL/ANGSTROM
     25          9  H    CARTESIAN X    -3.212500     -0.065694  KCAL/ANGSTROM
     26          9  H    CARTESIAN Y     0.564671      0.198672  KCAL/ANGSTROM
     27          9  H    CARTESIAN Z     0.993720      0.029333  KCAL/ANGSTROM
     28         10  H    CARTESIAN X    -2.214042      0.079380  KCAL/ANGSTROM
     29         10  H    CARTESIAN Y     2.076421      0.135277  KCAL/ANGSTROM
     30         10  H    CARTESIAN Z     0.984289     -0.115980  KCAL/ANGSTROM
     31         11  H    CARTESIAN X    -3.130324     -0.247844  KCAL/ANGSTROM
     32         11  H    CARTESIAN Y     1.631392      0.145860  KCAL/ANGSTROM
     33         11  H    CARTESIAN Z    -0.460374      0.357525  KCAL/ANGSTROM
     34         12  H    CARTESIAN X    -0.663886     -0.082406  KCAL/ANGSTROM
     35         12  H    CARTESIAN Y     0.975455     -0.118704  KCAL/ANGSTROM
     36         12  H    CARTESIAN Z    -0.642355     -0.348785  KCAL/ANGSTROM
     37         13  H    CARTESIAN X     0.057819     -0.172042  KCAL/ANGSTROM
     38         13  H    CARTESIAN Y    -1.472994     -0.155530  KCAL/ANGSTROM
     39         13  H    CARTESIAN Z    -1.503331      0.103634  KCAL/ANGSTROM
     40         14  H    CARTESIAN X     0.091135     -0.122782  KCAL/ANGSTROM
     41         14  H    CARTESIAN Y    -2.648896     -0.047025  KCAL/ANGSTROM
     42         14  H    CARTESIAN Z    -0.181239     -0.209534  KCAL/ANGSTROM
     43         15  H    CARTESIAN X     2.229117      0.016278  KCAL/ANGSTROM
     44         15  H    CARTESIAN Y    -1.276002      0.000757  KCAL/ANGSTROM
     45         15  H    CARTESIAN Z    -0.297742     -0.220252  KCAL/ANGSTROM
     46         16  H    CARTESIAN X     1.395359     -0.181678  KCAL/ANGSTROM
     47         16  H    CARTESIAN Y    -0.993342      0.205201  KCAL/ANGSTROM
     48         16  H    CARTESIAN Z     1.284426      0.358652  KCAL/ANGSTROM
     49         17  H    CARTESIAN X     2.744778     -0.007545  KCAL/ANGSTROM
     50         17  H    CARTESIAN Y     1.197886      0.097859  KCAL/ANGSTROM
     51         17  H    CARTESIAN Z     1.029066     -0.090627  KCAL/ANGSTROM
     52         18  H    CARTESIAN X     2.006984      0.263300  KCAL/ANGSTROM
     53         18  H    CARTESIAN Y     2.290419     -0.014361  KCAL/ANGSTROM
     54         18  H    CARTESIAN Z    -0.200702      0.059318  KCAL/ANGSTROM
     55         19  H    CARTESIAN X     3.079509     -0.133467  KCAL/ANGSTROM
     56         19  H    CARTESIAN Y     0.943983      0.293094  KCAL/ANGSTROM
     57         19  H    CARTESIAN Z    -0.732274      0.161441  KCAL/ANGSTROM




   ATOM   CHEMICAL          X               Y               Z
  NUMBER   SYMBOL      (ANGSTROMS)     (ANGSTROMS)     (ANGSTROMS)

     1       C         -2.51697126  *   1.18142996  *   0.37126467  *
     2       N         -1.39810668  *   0.47600985  *  -0.11914464  *
     3       C         -1.18951105  *  -0.97057396  *   0.18732867  *
     4       O         -2.04393117  *  -1.48039380  *   0.84301418  *
     5       C          0.05421151  *  -1.54510741  *  -0.38728476  *
     6       C          1.31374654  *  -0.87777493  *   0.18558586  *
     7       O          1.15241372  *   0.50041197  *  -0.10842453  *
     8       C          2.34182375  *   1.26658679  *   0.01207624  *
     9       H         -3.21250022  *   0.56467103  *   0.99371983  *
    10       H         -2.21404165  *   2.07642147  *   0.98428889  *
    11       H         -3.13032386  *   1.63139247  *  -0.46037399  *
    12       H         -0.66388627  *   0.97545494  *  -0.64235543  *
    13       H          0.05781854  *  -1.47299418  *  -1.50333107  *
    14       H          0.09113451  *  -2.64889591  *  -0.18123852  *
    15       H          2.22911690  *  -1.27600231  *  -0.29774175  *
    16       H          1.39535850  *  -0.99334230  *   1.28442637  *
    17       H          2.74477782  *   1.19788626  *   1.02906612  *
    18       H          2.00698414  *   2.29041916  *  -0.20070183  *
    19       H          3.07950873  *   0.94398287  *  -0.73227396  *

                             CARTESIAN COORDINATES

   1    C       -2.516971260     1.181429962     0.371264669
   2    N       -1.398106675     0.476009854    -0.119144636
   3    C       -1.189511054    -0.970573956     0.187328672
   4    O       -2.043931173    -1.480393802     0.843014182
   5    C        0.054211514    -1.545107408    -0.387284761
   6    C        1.313746541    -0.877774927     0.185585855
   7    O        1.152413719     0.500411971    -0.108424532
   8    C        2.341823751     1.266586792     0.012076238
   9    H       -3.212500217     0.564671026     0.993719831
  10    H       -2.214041646     2.076421471     0.984288893
  11    H       -3.130323860     1.631392474    -0.460373993
  12    H       -0.663886269     0.975454941    -0.642355434
  13    H        0.057818540    -1.472994182    -1.503331071
  14    H        0.091134506    -2.648895907    -0.181238523
  15    H        2.229116902    -1.276002308    -0.297741749
  16    H        1.395358502    -0.993342301     1.284426371
  17    H        2.744777822     1.197886261     1.029066121
  18    H        2.006984142     2.290419162    -0.200701826
  19    H        3.079508733     0.943982873    -0.732273957


           Empirical Formula: C5 H11 N O2  =    19 atoms



      MOLECULAR POINT GROUP   :   C1  


          ALPHA EIGENVALUES  
 -42.62030 -37.11856 -34.12294 -32.37267 -29.74016 -28.00387 -27.03086 -25.82480
 -23.16185 -22.42921 -21.92280 -20.95696 -20.63032 -20.02969 -19.44732 -18.98394
 -18.75407 -18.09686 -17.20649 -17.10578 -16.98085 -16.28342 -16.25409 -14.50772
  -4.59103  -4.21628  -2.31254  -1.73796  -1.55989  -1.08513  -0.66383  -0.38586
  -0.15050   0.30071   0.41436   0.61165   0.84251   1.24435   1.39542   1.60006
   1.99855   2.04395   2.59540


           BETA EIGENVALUES 
 -40.85821 -36.70879 -34.10377 -32.31623 -29.42830 -27.96718 -26.87044 -25.55570
 -22.88955 -22.18748 -21.02749 -20.86672 -20.30520 -19.66154 -19.35451 -18.76820
 -18.67713 -18.03346 -17.14542 -17.01833 -16.26473 -16.10242 -14.50526  -7.33460
  -4.09642  -3.69639  -2.25554  -1.60804  -1.24463  -1.06539  -0.59455  -0.17491
  -0.04313   0.36256   0.57403   0.63233   0.94663   1.24980   1.39607   1.60012
   1.99856   2.04401   2.59539


              NET ATOMIC CHARGES AND DIPOLE CONTRIBUTIONS

  ATOM NO.   TYPE          CHARGE      No. of ELECS.   s-Pop       p-Pop       
    1          C          -0.349898        4.3499     1.06907     3.28083
    2          N          -0.109870        5.1099     1.58536     3.52451
    3          C           0.508034        3.4920     1.13644     2.35553
    4          O          -0.249601        6.2496     1.88144     4.36816
    5          C          -0.391936        4.3919     1.07537     3.31657
    6          C           0.009983        3.9900     1.09096     2.89906
    7          O          -0.518173        6.5182     1.86599     4.65219
    8          C          -0.146207        4.1462     1.08771     3.05850
    9          H           0.229066        0.7709     0.77093
   10          H           0.237569        0.7624     0.76243
   11          H           0.242179        0.7578     0.75782
   12          H           0.348029        0.6520     0.65197
   13          H           0.212171        0.7878     0.78783
   14          H           0.227362        0.7726     0.77264
   15          H           0.161795        0.8382     0.83821
   16          H           0.148499        0.8515     0.85150
   17          H           0.143092        0.8569     0.85691
   18          H           0.151642        0.8484     0.84836
   19          H           0.146265        0.8537     0.85374
 DIPOLE           X         Y         Z       TOTAL
 POINT-CHG.    -1.163     2.180    -1.113     2.710
 HYBRID        -0.417     0.399    -0.190     0.608
 SUM           -1.580     2.579    -1.304     3.294


          ATOMIC ORBITAL ELECTRON POPULATIONS

     Atom    s        px        py        pz   
    1  C   1.06907   0.98737   1.12467   1.16878
    2  N   1.58536   1.16026   1.21838   1.14586
    3  C   1.13644   0.85640   0.73839   0.76075
    4  O   1.88144   1.40580   1.66345   1.29891
    5  C   1.07537   0.98529   1.16211   1.16917
    6  C   1.09096   1.00981   0.78039   1.10886
    7  O   1.86599   1.43264   1.28611   1.93343
    8  C   1.08771   0.89551   1.00960   1.15338
    9  H   0.77093
   10  H   0.76243
   11  H   0.75782
   12  H   0.65197
   13  H   0.78783
   14  H   0.77264
   15  H   0.83821
   16  H   0.85150
   17  H   0.85691
   18  H   0.84836
   19  H   0.85374


                    (SZ)    =    0.500000
                    (S**2)  =    0.766333


          ATOMIC ORBITAL SPIN POPULATIONS

    Atom   Total    s     px     py     pz   
         Atomic
    1  C -0.0250 -0.008 -0.018 -0.018  0.018
    2  N  0.9522  0.042  0.227  0.088  0.595
    3  C -0.1037 -0.004 -0.020 -0.033 -0.047
    4  O  0.1063  0.003  0.027 -0.007  0.084
    5  C -0.0040 -0.001 -0.002 -0.002  0.001
    6  C -0.0017 -0.000 -0.001 -0.000 -0.000
    7  O  0.0007 -0.000 -0.000 -0.000  0.001
    8  C -0.0002 -0.000 -0.000 -0.000 -0.000
    9  H  0.0014  0.001
   10  H  0.0544  0.054
   11  H  0.0582  0.058
   12  H -0.0361 -0.036
   13  H -0.0010 -0.001
   14  H -0.0016 -0.002
   15  H -0.0002 -0.000
   16  H  0.0001  0.000
   17  H  0.0000  0.000
   18  H  0.0000  0.000
   19  H  0.0001  0.000

 **********************
 *                    *
 * JOB ENDED NORMALLY *
 *                    *
 **********************



 TOTAL JOB TIME:             1.37 SECONDS

 == MOPAC DONE ==
