 *******************************************************************************
 **                                                                           **
 **                              MOPAC v23.2                                  **
 **                                                                           **
 *******************************************************************************
 **          Digital Object Identifier (DOI): 10.5281/zenodo.6511958          **
 **    Visit the DOI location for information on how to cite this program.    **
 *******************************************************************************

                              PM7 CALCULATION RESULTS

 *******************************************************************************
 *  CALCULATION DONE: (MAX THREADS = 40)             Fri Sep 19 21:46:24 2025  *
 *  PM7        - The PM7 Hamiltonian to be used
 *  EPS=37.5   - USE ANDREAS KLAMT'S COSMO IMPLICIT SOLVATION MODEL
 *  1SCF       - DO 1 SCF AND THEN STOP 
 *  T=         - A TIME OF 172800.0 SECONDS REQUESTED
 *  DUMP=N     - RESTART FILE WRITTEN EVERY 7200.0 SECONDS REQUESTED
 *  RELSCF     - DEFAULT SCF CRITERION MULTIPLIED BY 0.0001
 *              (DEFAULT SCF CRITERION = 0.00010)
 *  GRADIENTS  - ALL GRADIENTS TO BE PRINTED
 *  DISP       - PRINT DISPERSION AND HYDROGEN BOND ENERGIES
 *******************************************************************************
PM7 1SCF GRADIENTS EPS=37.5 DISP RELSCF=0.0001
 Title: ASE calculation

   ATOM   CHEMICAL          X               Y               Z
  NUMBER   SYMBOL      (ANGSTROMS)     (ANGSTROMS)     (ANGSTROMS)

     1       N          2.51009206  *   1.67516431  *  -0.58010568  *
     2       C          1.61986233  *   0.99337045  *  -0.30396759  *
     3       C          0.49086020  *   0.13095975  *   0.04815122  *
     4       O          0.96355105  *  -1.10296093  *   0.52734544  *
     5       C         -0.35488887  *   0.73583531  *   1.16777859  *
     6       C         -1.62195238  *   0.93266234  *   0.77481341  *
     7       C         -1.83944505  *   0.50104001  *  -0.63638275  *
     8       C         -1.63720534  *  -0.97724104  *  -0.90319003  *
     9       C         -0.48453617  *  -0.02912277  *  -1.13374386  *
    10       H          1.36736785  *  -1.62830170  *  -0.20032052  *
    11       H          0.09255998  *   0.91812272  *   2.12731130  *
    12       H         -2.43265763  *   1.34433886  *   1.35170171  *
    13       H         -2.51009206  *   1.09366496  *  -1.24864334  *
    14       H         -2.12864515  *  -1.43876890  *  -1.75588609  *
    15       H         -1.60044909  *  -1.67516431  *  -0.06513284  *
    16       H         -0.09658998  *   0.15269290  *  -2.12731130  *



          CARTESIAN COORDINATES 

    NO.       ATOM           X           Y           Z

     1         N          2.5101      1.6752     -0.5801
     2         C          1.6199      0.9934     -0.3040
     3         C          0.4909      0.1310      0.0482
     4         O          0.9636     -1.1030      0.5273
     5         C         -0.3549      0.7358      1.1678
     6         C         -1.6220      0.9327      0.7748
     7         C         -1.8394      0.5010     -0.6364
     8         C         -1.6372     -0.9772     -0.9032
     9         C         -0.4845     -0.0291     -1.1337
    10         H          1.3674     -1.6283     -0.2003
    11         H          0.0926      0.9181      2.1273
    12         H         -2.4327      1.3443      1.3517
    13         H         -2.5101      1.0937     -1.2486
    14         H         -2.1286     -1.4388     -1.7559
    15         H         -1.6004     -1.6752     -0.0651
    16         H         -0.0966      0.1527     -2.1273

 General Reference for PM7:
 "Optimization of Parameters for Semiempirical Methods VI: More Modifications to the 
 NDDO Approximations and Re-optimization of Parameters", J. J. P. Stewart, J. Mol. Mod., 1:32, 19 (2013)
 https://link.springer.com/article/10.1007/s00894-012-1667-x

           Empirical Formula: C7 H7 N O  =    16 atoms



      MOLECULAR POINT GROUP   :   C1  


      RHF CALCULATION, NO. OF DOUBLY OCCUPIED LEVELS = 23

  SCF CRITERION =    0.1000E-07

 -------------------------------------------------------------------------------
 PM7 1SCF GRADIENTS EPS=37.5 DISP RELSCF=0.0001
 Title: ASE calculation



     1SCF WAS SPECIFIED, SO BFGS WAS NOT USED                 
     SCF FIELD WAS ACHIEVED                                   


                              PM7 CALCULATION
                                                       MOPAC v23.2 Linux
                                                       Fri Sep 19 21:46:25 2025




          FINAL HEAT OF FORMATION =         23.00514 KCAL/MOL =      96.25349 KJ/MOL

          TOTAL ENERGY            =     -33069.91465 KCAL/MOL = ELECTRONIC ENERGY + CORE-CORE REPULSION + SOLVATION ENERGY
          ENERGY OF ATOMS         =      33094.39424 KCAL/MOL
                              SUM =         24.47959 KCAL/MOL
          DISPERSION ENERGY       =         -1.47446 KCAL/MOL
                              SUM =         23.00514 KCAL/MOL = FINAL HEAT OF FORMATION

          VAN DER WAALS AREA      =        153.87 SQUARE ANGSTROMS


          TOTAL ENERGY            =      -1434.04723 EV
          ELECTRONIC ENERGY       =      -2106.35883 EV 
          CORE-CORE REPULSION     =        672.31161 EV

          DIELECTRIC ENERGY       =         -0.43639 EV
          COSMO AREA              =        153.87 SQUARE ANGSTROMS
          COSMO VOLUME            =        150.91 CUBIC ANGSTROMS

          GRADIENT NORM           =         12.71718          =       3.17929 PER ATOM
          IONIZATION POTENTIAL    =         10.426526 EV
          HOMO LUMO ENERGIES (EV) =        -10.427 -0.049
          NO. OF FILLED LEVELS    =         23
          MOLECULAR WEIGHT        =        121.1384         POINT GROUP:  C1  

          MOLECULAR DIMENSIONS (Angstroms)

            Atom       Atom       Distance
            H    14    N     1     5.70937
            H    12    H    10     4.93671
            H    11    H    16     3.55984


          SCF CALCULATIONS        =          2

          WALL-CLOCK TIME         =      1.094 SECONDS
          COMPUTATION TIME        =      1.153 SECONDS

          LARGEST ATOMIC GRADIENTS

          Atom     Label                     Cartesian Gradients           Cartesian Coordinates       |Gradient|
                                           X          Y          Z        X          Y          Z

             3       C                   5.324      3.335     -1.919    0.49086    0.13096    0.04815      6.569
             4       O                   0.195     -5.532     -1.678    0.96355   -1.10296    0.52735      5.784
            10       H                  -1.656      3.980      3.471    1.36737   -1.62830   -0.20032      5.534
             1       N                  -3.418     -2.865      0.805    2.51009    1.67516   -0.58011      4.532
             2       C                   1.323      2.447     -0.798    1.61986    0.99337   -0.30397      2.894
             8       C                  -1.182     -1.162     -1.691   -1.63721   -0.97724   -0.90319      2.368
            12       H                   1.340     -0.786     -1.088   -2.43266    1.34434    1.35170      1.897
             5       C                  -1.490     -0.424      0.643   -0.35489    0.73584    1.16778      1.677
             6       C                  -0.601      1.128      1.058   -1.62195    0.93266    0.77481      1.660
             9       C                  -0.142     -0.380     -1.480   -0.48454   -0.02912   -1.13374      1.534



       FINAL  POINT  AND  DERIVATIVES

   PARAMETER     ATOM    TYPE            VALUE        GRADIENT
      1          1  N    CARTESIAN X     2.510092     -3.417968  KCAL/ANGSTROM
      2          1  N    CARTESIAN Y     1.675164     -2.865266  KCAL/ANGSTROM
      3          1  N    CARTESIAN Z    -0.580106      0.804623  KCAL/ANGSTROM
      4          2  C    CARTESIAN X     1.619862      1.322579  KCAL/ANGSTROM
      5          2  C    CARTESIAN Y     0.993370      2.447311  KCAL/ANGSTROM
      6          2  C    CARTESIAN Z    -0.303968     -0.797808  KCAL/ANGSTROM
      7          3  C    CARTESIAN X     0.490860      5.324298  KCAL/ANGSTROM
      8          3  C    CARTESIAN Y     0.130960      3.335171  KCAL/ANGSTROM
      9          3  C    CARTESIAN Z     0.048151     -1.918579  KCAL/ANGSTROM
     10          4  O    CARTESIAN X     0.963551      0.194527  KCAL/ANGSTROM
     11          4  O    CARTESIAN Y    -1.102961     -5.531552  KCAL/ANGSTROM
     12          4  O    CARTESIAN Z     0.527345     -1.678286  KCAL/ANGSTROM
     13          5  C    CARTESIAN X    -0.354889     -1.489748  KCAL/ANGSTROM
     14          5  C    CARTESIAN Y     0.735835     -0.424331  KCAL/ANGSTROM
     15          5  C    CARTESIAN Z     1.167779      0.642827  KCAL/ANGSTROM
     16          6  C    CARTESIAN X    -1.621952     -0.600933  KCAL/ANGSTROM
     17          6  C    CARTESIAN Y     0.932662      1.128215  KCAL/ANGSTROM
     18          6  C    CARTESIAN Z     0.774813      1.058308  KCAL/ANGSTROM
     19          7  C    CARTESIAN X    -1.839445     -0.856615  KCAL/ANGSTROM
     20          7  C    CARTESIAN Y     0.501040      0.187832  KCAL/ANGSTROM
     21          7  C    CARTESIAN Z    -0.636383     -0.915903  KCAL/ANGSTROM
     22          8  C    CARTESIAN X    -1.637205     -1.182377  KCAL/ANGSTROM
     23          8  C    CARTESIAN Y    -0.977241     -1.161552  KCAL/ANGSTROM
     24          8  C    CARTESIAN Z    -0.903190     -1.691178  KCAL/ANGSTROM
     25          9  C    CARTESIAN X    -0.484536     -0.141867  KCAL/ANGSTROM
     26          9  C    CARTESIAN Y    -0.029123     -0.380024  KCAL/ANGSTROM
     27          9  C    CARTESIAN Z    -1.133744     -1.479596  KCAL/ANGSTROM
     28         10  H    CARTESIAN X     1.367368     -1.655605  KCAL/ANGSTROM
     29         10  H    CARTESIAN Y    -1.628302      3.979692  KCAL/ANGSTROM
     30         10  H    CARTESIAN Z    -0.200321      3.470658  KCAL/ANGSTROM
     31         11  H    CARTESIAN X     0.092560      0.110756  KCAL/ANGSTROM
     32         11  H    CARTESIAN Y     0.918123     -0.616037  KCAL/ANGSTROM
     33         11  H    CARTESIAN Z     2.127311     -0.362352  KCAL/ANGSTROM
     34         12  H    CARTESIAN X    -2.432658      1.339900  KCAL/ANGSTROM
     35         12  H    CARTESIAN Y     1.344339     -0.786201  KCAL/ANGSTROM
     36         12  H    CARTESIAN Z     1.351702     -1.088037  KCAL/ANGSTROM
     37         13  H    CARTESIAN X    -2.510092      0.888533  KCAL/ANGSTROM
     38         13  H    CARTESIAN Y     1.093665     -0.536507  KCAL/ANGSTROM
     39         13  H    CARTESIAN Z    -1.248643      0.922117  KCAL/ANGSTROM
     40         14  H    CARTESIAN X    -2.128645      0.375271  KCAL/ANGSTROM
     41         14  H    CARTESIAN Y    -1.438769      0.587881  KCAL/ANGSTROM
     42         14  H    CARTESIAN Z    -1.755886      1.110818  KCAL/ANGSTROM
     43         15  H    CARTESIAN X    -1.600449      0.190558  KCAL/ANGSTROM
     44         15  H    CARTESIAN Y    -1.675164      0.533007  KCAL/ANGSTROM
     45         15  H    CARTESIAN Z    -0.065133      0.549659  KCAL/ANGSTROM
     46         16  H    CARTESIAN X    -0.096590     -0.401314  KCAL/ANGSTROM
     47         16  H    CARTESIAN Y     0.152693      0.102356  KCAL/ANGSTROM
     48         16  H    CARTESIAN Z    -2.127311      1.372725  KCAL/ANGSTROM




   ATOM   CHEMICAL          X               Y               Z
  NUMBER   SYMBOL      (ANGSTROMS)     (ANGSTROMS)     (ANGSTROMS)

     1       N          2.51009206  *   1.67516431  *  -0.58010568  *
     2       C          1.61986233  *   0.99337045  *  -0.30396759  *
     3       C          0.49086020  *   0.13095975  *   0.04815122  *
     4       O          0.96355105  *  -1.10296093  *   0.52734544  *
     5       C         -0.35488887  *   0.73583531  *   1.16777859  *
     6       C         -1.62195238  *   0.93266234  *   0.77481341  *
     7       C         -1.83944505  *   0.50104001  *  -0.63638275  *
     8       C         -1.63720534  *  -0.97724104  *  -0.90319003  *
     9       C         -0.48453617  *  -0.02912277  *  -1.13374386  *
    10       H          1.36736785  *  -1.62830170  *  -0.20032052  *
    11       H          0.09255998  *   0.91812272  *   2.12731130  *
    12       H         -2.43265763  *   1.34433886  *   1.35170171  *
    13       H         -2.51009206  *   1.09366496  *  -1.24864334  *
    14       H         -2.12864515  *  -1.43876890  *  -1.75588609  *
    15       H         -1.60044909  *  -1.67516431  *  -0.06513284  *
    16       H         -0.09658998  *   0.15269290  *  -2.12731130  *

                             CARTESIAN COORDINATES

   1    N        2.510092064     1.675164310    -0.580105679
   2    C        1.619862325     0.993370451    -0.303967590
   3    C        0.490860199     0.130959755     0.048151216
   4    O        0.963551048    -1.102960929     0.527345442
   5    C       -0.354888868     0.735835314     1.167778595
   6    C       -1.621952383     0.932662344     0.774813412
   7    C       -1.839445050     0.501040006    -0.636382750
   8    C       -1.637205341    -0.977241038    -0.903190030
   9    C       -0.484536166    -0.029122767    -1.133743864
  10    H        1.367367853    -1.628301696    -0.200320517
  11    H        0.092559982     0.918122721     2.127311300
  12    H       -2.432657632     1.344338858     1.351701709
  13    H       -2.510092064     1.093664960    -1.248643341
  14    H       -2.128645146    -1.438768895    -1.755886090
  15    H       -1.600449086    -1.675164310    -0.065132841
  16    H       -0.096589978     0.152692900    -2.127311300


           Empirical Formula: C7 H7 N O  =    16 atoms



      MOLECULAR POINT GROUP   :   C1  


                  EIGENVALUES  
 -35.64509 -32.65385 -29.82521 -27.14231 -25.32481 -21.72299 -20.56084 -19.65614
 -18.98216 -17.87778 -16.09801 -15.65334 -14.94259 -14.69554 -14.21402 -14.12639
 -13.41262 -13.01867 -12.59263 -12.18537 -11.81178 -11.56850 -10.42653  -0.04862
   0.58715   0.70688   1.86977   2.49452   2.60635   2.87415   3.04739   3.65032
   4.01622   4.22436   5.20795   5.30726   5.41261   5.53238   5.78583   5.82431
   5.92332   5.97627   6.18553


              NET ATOMIC CHARGES AND DIPOLE CONTRIBUTIONS

  ATOM NO.   TYPE          CHARGE      No. of ELECS.   s-Pop       p-Pop       
    1          N          -0.331601        5.3316     1.82818     3.50342
    2          C           0.139293        3.8607     1.14797     2.71274
    3          C           0.318307        3.6817     1.06160     2.62009
    4          O          -0.562872        6.5629     1.84907     4.71380
    5          C          -0.228771        4.2288     1.10176     3.12701
    6          C          -0.081847        4.0818     1.10325     2.97860
    7          C          -0.173359        4.1734     1.05995     3.11341
    8          C          -0.278882        4.2789     1.06107     3.21782
    9          C          -0.241303        4.2413     1.06945     3.17186
   10          H           0.365904        0.6341     0.63410
   11          H           0.181259        0.8187     0.81874
   12          H           0.175085        0.8249     0.82491
   13          H           0.181952        0.8180     0.81805
   14          H           0.173185        0.8268     0.82682
   15          H           0.178027        0.8220     0.82197
   16          H           0.185622        0.8144     0.81438
 DIPOLE           X         Y         Z       TOTAL
 POINT-CHG.    -4.436    -1.540    -1.033     4.808
 HYBRID         0.219    -0.567    -0.160     0.628
 SUM           -4.217    -2.107    -1.193     4.863


          ATOMIC ORBITAL ELECTRON POPULATIONS

     Atom    s        px        py        pz   
    1  N   1.82818   1.19354   1.16643   1.14345
    2  C   1.14797   0.92059   0.90900   0.88315
    3  C   1.06160   0.87918   0.78651   0.95440
    4  O   1.84907   1.83140   1.38797   1.49443
    5  C   1.10176   1.00562   1.05546   1.06593
    6  C   1.10325   1.03183   0.94994   0.99683
    7  C   1.05995   1.05446   1.03511   1.02384
    8  C   1.06107   1.04936   0.98786   1.18059
    9  C   1.06945   0.94333   1.15090   1.07763
   10  H   0.63410
   11  H   0.81874
   12  H   0.82491
   13  H   0.81805
   14  H   0.82682
   15  H   0.82197
   16  H   0.81438

 **********************
 *                    *
 * JOB ENDED NORMALLY *
 *                    *
 **********************



 TOTAL JOB TIME:             1.48 SECONDS

 == MOPAC DONE ==
