 *******************************************************************************
 **                                                                           **
 **                              MOPAC v23.2                                  **
 **                                                                           **
 *******************************************************************************
 **          Digital Object Identifier (DOI): 10.5281/zenodo.6511958          **
 **    Visit the DOI location for information on how to cite this program.    **
 *******************************************************************************

                              PM7 CALCULATION RESULTS

 *******************************************************************************
 *  CALCULATION DONE: (MAX THREADS = 40)             Fri Sep 19 21:34:30 2025  *
 *  PM7        - The PM7 Hamiltonian to be used
 *
 *
 *
 *                 CHARGE ON SYSTEM = +1
 *
 *
 *
 *  1SCF       - DO 1 SCF AND THEN STOP 
 *  T=         - A TIME OF 172800.0 SECONDS REQUESTED
 *  DUMP=N     - RESTART FILE WRITTEN EVERY 7200.0 SECONDS REQUESTED
 *  RELSCF     - DEFAULT SCF CRITERION MULTIPLIED BY 0.0001
 *              (DEFAULT SCF CRITERION = 0.00010)
 *  GRADIENTS  - ALL GRADIENTS TO BE PRINTED
 *  DISP       - PRINT DISPERSION AND HYDROGEN BOND ENERGIES
 *******************************************************************************
PM7 1SCF GRADIENTS DISP RELSCF=0.0001 CHARGE=1
 Title: ASE calculation

   ATOM   CHEMICAL          X               Y               Z
  NUMBER   SYMBOL      (ANGSTROMS)     (ANGSTROMS)     (ANGSTROMS)

     1       C          2.53900623  *   0.19095636  *   0.29637862  *
     2       C          1.01479669  *   0.06637487  *   0.25034942  *
     3       C          0.60642890  *  -1.07905831  *  -0.59860076  *
     4       C         -0.64310542  *  -1.63612845  *  -0.64318928  *
     5       C         -1.77453545  *  -1.20907379  *   0.22608931  *
     6       O         -2.18796599  *  -0.30858849  *  -0.79522675  *
     7       C         -2.13086870  *   1.09539397  *  -0.57492975  *
     8       C         -1.00921499  *   1.64156182  *   0.28205176  *
     9       C          0.38240272  *   1.37009061  *  -0.28890555  *
    10       H          3.01518615  *  -0.72061676  *   0.68453598  *
    11       H          2.85785171  *   1.00703628  *   0.96340292  *
    12       H          2.97850729  *   0.39911013  *  -0.68776852  *
    13       H          0.65821028  *  -0.09785671  *   1.30728041  *
    14       H          1.40834334  *  -1.53027128  *  -1.21257076  *
    15       H         -0.87546701  *  -2.43880966  *  -1.35471310  *
    16       H         -1.54028809  *  -0.76880356  *   1.20663973  *
    17       H         -2.58737508  *  -1.96076043  *   0.34430932  *
    18       H         -3.13552156  *   1.33315354  *  -0.14074296  *
    19       H         -2.09902491  *   1.48741713  *  -1.61956842  *
    20       H         -1.08660928  *   1.29412587  *   1.33326595  *
    21       H         -1.15118034  *   2.75076067  *   0.37003059  *
    22       H          0.37459345  *   1.37649391  *  -1.39672680  *
    23       H          1.05464082  *   2.22029169  *  -0.02119104  *



          CARTESIAN COORDINATES 

    NO.       ATOM           X           Y           Z

     1         C          2.5390      0.1910      0.2964
     2         C          1.0148      0.0664      0.2503
     3         C          0.6064     -1.0791     -0.5986
     4         C         -0.6431     -1.6361     -0.6432
     5         C         -1.7745     -1.2091      0.2261
     6         O         -2.1880     -0.3086     -0.7952
     7         C         -2.1309      1.0954     -0.5749
     8         C         -1.0092      1.6416      0.2821
     9         C          0.3824      1.3701     -0.2889
    10         H          3.0152     -0.7206      0.6845
    11         H          2.8579      1.0070      0.9634
    12         H          2.9785      0.3991     -0.6878
    13         H          0.6582     -0.0979      1.3073
    14         H          1.4083     -1.5303     -1.2126
    15         H         -0.8755     -2.4388     -1.3547
    16         H         -1.5403     -0.7688      1.2066
    17         H         -2.5874     -1.9608      0.3443
    18         H         -3.1355      1.3332     -0.1407
    19         H         -2.0990      1.4874     -1.6196
    20         H         -1.0866      1.2941      1.3333
    21         H         -1.1512      2.7508      0.3700
    22         H          0.3746      1.3765     -1.3967
    23         H          1.0546      2.2203     -0.0212

 General Reference for PM7:
 "Optimization of Parameters for Semiempirical Methods VI: More Modifications to the 
 NDDO Approximations and Re-optimization of Parameters", J. J. P. Stewart, J. Mol. Mod., 1:32, 19 (2013)
 https://link.springer.com/article/10.1007/s00894-012-1667-x

           Empirical Formula: C8 H14 O  =    23 atoms



      MOLECULAR POINT GROUP   :   C1  


          UHF CALCULATION, NO. OF ALPHA ELECTRONS =   26
                           NO. OF BETA  ELECTRONS =   25
  SCF CRITERION =    0.1000E-07

 -------------------------------------------------------------------------------
 PM7 1SCF GRADIENTS DISP RELSCF=0.0001 CHARGE=1
 Title: ASE calculation



     1SCF WAS SPECIFIED, SO BFGS WAS NOT USED                 
     SCF FIELD WAS ACHIEVED                                   


                              PM7 CALCULATION
                                                       MOPAC v23.2 Linux
                                                       Fri Sep 19 21:34:31 2025




          FINAL HEAT OF FORMATION =        161.45793 KCAL/MOL =     675.53996 KJ/MOL

          TOTAL ENERGY            =     -33618.31525 KCAL/MOL = ELECTRONIC ENERGY + CORE-CORE REPULSION
          ENERGY OF ATOMS         =      33782.22825 KCAL/MOL
                              SUM =        163.91300 KCAL/MOL
          DISPERSION ENERGY       =         -2.45507 KCAL/MOL
                              SUM =        161.45793 KCAL/MOL = FINAL HEAT OF FORMATION



          TOTAL ENERGY            =      -1457.82813 EV
          ELECTRONIC ENERGY       =      -7910.76118 EV 
          CORE-CORE REPULSION     =       6452.93305 EV
          COSMO AREA              =        168.44 SQUARE ANGSTROMS
          COSMO VOLUME            =        173.69 CUBIC ANGSTROMS

          GRADIENT NORM           =          1.39331          =       0.29053 PER ATOM
          IONIZATION POTENTIAL    =         14.907539 EV
          ALPHA SOMO LUMO (EV)    =        -15.043 -5.136
          BETA  SOMO LUMO (EV)    =        -14.908 -7.621
          NO. OF ALPHA ELECTRONS  =         26
          NO. OF BETA  ELECTRONS  =         25
          MOLECULAR WEIGHT        =        126.1980         POINT GROUP:  C1  

          MOLECULAR DIMENSIONS (Angstroms)

            Atom       Atom       Distance
            H    18    H    10     6.53684
            H    21    H    15     5.21405
            H    16    H    22     3.51651


          SCF CALCULATIONS        =          1

          WALL-CLOCK TIME         =      1.320 SECONDS
          COMPUTATION TIME        =      0.744 SECONDS

          LARGEST ATOMIC GRADIENTS

          Atom     Label                     Cartesian Gradients           Cartesian Coordinates       |Gradient|
                                           X          Y          Z        X          Y          Z

             6       O                   0.363     -0.133     -0.214   -2.18797   -0.30859   -0.79523      0.442
             4       C                  -0.296     -0.188      0.222   -0.64311   -1.63613   -0.64319      0.415
            20       H                  -0.024     -0.366      0.040   -1.08661    1.29413    1.33327      0.369
            17       H                   0.325     -0.072      0.143   -2.58738   -1.96076    0.34431      0.362
            19       H                  -0.289      0.088      0.190   -2.09902    1.48742   -1.61957      0.357
             3       C                   0.133      0.067     -0.306    0.60643   -1.07906   -0.59860      0.340
            21       H                   0.288      0.147      0.105   -1.15118    2.75076    0.37003      0.340
            15       H                  -0.127      0.280      0.132   -0.87547   -2.43881   -1.35471      0.334
            12       H                   0.170     -0.169      0.233    2.97851    0.39911   -0.68777      0.334
            22       H                  -0.014     -0.139     -0.276    0.37459    1.37649   -1.39673      0.310



       FINAL  POINT  AND  DERIVATIVES

   PARAMETER     ATOM    TYPE            VALUE        GRADIENT
      1          1  C    CARTESIAN X     2.539006     -0.231585  KCAL/ANGSTROM
      2          1  C    CARTESIAN Y     0.190956      0.018196  KCAL/ANGSTROM
      3          1  C    CARTESIAN Z     0.296379      0.047249  KCAL/ANGSTROM
      4          2  C    CARTESIAN X     1.014797     -0.191081  KCAL/ANGSTROM
      5          2  C    CARTESIAN Y     0.066375     -0.101447  KCAL/ANGSTROM
      6          2  C    CARTESIAN Z     0.250349     -0.209904  KCAL/ANGSTROM
      7          3  C    CARTESIAN X     0.606429      0.132937  KCAL/ANGSTROM
      8          3  C    CARTESIAN Y    -1.079058      0.066626  KCAL/ANGSTROM
      9          3  C    CARTESIAN Z    -0.598601     -0.306264  KCAL/ANGSTROM
     10          4  C    CARTESIAN X    -0.643105     -0.296445  KCAL/ANGSTROM
     11          4  C    CARTESIAN Y    -1.636128     -0.188005  KCAL/ANGSTROM
     12          4  C    CARTESIAN Z    -0.643189      0.221601  KCAL/ANGSTROM
     13          5  C    CARTESIAN X    -1.774535      0.011061  KCAL/ANGSTROM
     14          5  C    CARTESIAN Y    -1.209074     -0.277329  KCAL/ANGSTROM
     15          5  C    CARTESIAN Z     0.226089      0.076003  KCAL/ANGSTROM
     16          6  O    CARTESIAN X    -2.187966      0.363342  KCAL/ANGSTROM
     17          6  O    CARTESIAN Y    -0.308588     -0.132782  KCAL/ANGSTROM
     18          6  O    CARTESIAN Z    -0.795227     -0.214046  KCAL/ANGSTROM
     19          7  C    CARTESIAN X    -2.130869     -0.112217  KCAL/ANGSTROM
     20          7  C    CARTESIAN Y     1.095394      0.076146  KCAL/ANGSTROM
     21          7  C    CARTESIAN Z    -0.574930      0.142773  KCAL/ANGSTROM
     22          8  C    CARTESIAN X    -1.009215      0.005395  KCAL/ANGSTROM
     23          8  C    CARTESIAN Y     1.641562      0.114809  KCAL/ANGSTROM
     24          8  C    CARTESIAN Z     0.282052      0.088983  KCAL/ANGSTROM
     25          9  C    CARTESIAN X     0.382403     -0.037747  KCAL/ANGSTROM
     26          9  C    CARTESIAN Y     1.370091      0.116327  KCAL/ANGSTROM
     27          9  C    CARTESIAN Z    -0.288906     -0.192304  KCAL/ANGSTROM
     28         10  H    CARTESIAN X     3.015186     -0.127473  KCAL/ANGSTROM
     29         10  H    CARTESIAN Y    -0.720617      0.191124  KCAL/ANGSTROM
     30         10  H    CARTESIAN Z     0.684536      0.142301  KCAL/ANGSTROM
     31         11  H    CARTESIAN X     2.857852      0.016078  KCAL/ANGSTROM
     32         11  H    CARTESIAN Y     1.007036     -0.063982  KCAL/ANGSTROM
     33         11  H    CARTESIAN Z     0.963403      0.005707  KCAL/ANGSTROM
     34         12  H    CARTESIAN X     2.978507      0.169584  KCAL/ANGSTROM
     35         12  H    CARTESIAN Y     0.399110     -0.169294  KCAL/ANGSTROM
     36         12  H    CARTESIAN Z    -0.687769      0.233051  KCAL/ANGSTROM
     37         13  H    CARTESIAN X     0.658210     -0.165412  KCAL/ANGSTROM
     38         13  H    CARTESIAN Y    -0.097857      0.081486  KCAL/ANGSTROM
     39         13  H    CARTESIAN Z     1.307280     -0.039084  KCAL/ANGSTROM
     40         14  H    CARTESIAN X     1.408343      0.178070  KCAL/ANGSTROM
     41         14  H    CARTESIAN Y    -1.530271      0.125355  KCAL/ANGSTROM
     42         14  H    CARTESIAN Z    -1.212571      0.029102  KCAL/ANGSTROM
     43         15  H    CARTESIAN X    -0.875467     -0.126503  KCAL/ANGSTROM
     44         15  H    CARTESIAN Y    -2.438810      0.280111  KCAL/ANGSTROM
     45         15  H    CARTESIAN Z    -1.354713      0.131938  KCAL/ANGSTROM
     46         16  H    CARTESIAN X    -1.540288     -0.100013  KCAL/ANGSTROM
     47         16  H    CARTESIAN Y    -0.768804      0.100748  KCAL/ANGSTROM
     48         16  H    CARTESIAN Z     1.206640     -0.255313  KCAL/ANGSTROM
     49         17  H    CARTESIAN X    -2.587375      0.324543  KCAL/ANGSTROM
     50         17  H    CARTESIAN Y    -1.960760     -0.071713  KCAL/ANGSTROM
     51         17  H    CARTESIAN Z     0.344309      0.143114  KCAL/ANGSTROM
     52         18  H    CARTESIAN X    -3.135522      0.137003  KCAL/ANGSTROM
     53         18  H    CARTESIAN Y     1.333154      0.080168  KCAL/ANGSTROM
     54         18  H    CARTESIAN Z    -0.140743     -0.026634  KCAL/ANGSTROM
     55         19  H    CARTESIAN X    -2.099025     -0.289243  KCAL/ANGSTROM
     56         19  H    CARTESIAN Y     1.487417      0.087950  KCAL/ANGSTROM
     57         19  H    CARTESIAN Z    -1.619568      0.189540  KCAL/ANGSTROM
     58         20  H    CARTESIAN X    -1.086609     -0.024228  KCAL/ANGSTROM
     59         20  H    CARTESIAN Y     1.294126     -0.365594  KCAL/ANGSTROM
     60         20  H    CARTESIAN Z     1.333266      0.039645  KCAL/ANGSTROM
     61         21  H    CARTESIAN X    -1.151180      0.287708  KCAL/ANGSTROM
     62         21  H    CARTESIAN Y     2.750761      0.147456  KCAL/ANGSTROM
     63         21  H    CARTESIAN Z     0.370031      0.104547  KCAL/ANGSTROM
     64         22  H    CARTESIAN X     0.374593     -0.013948  KCAL/ANGSTROM
     65         22  H    CARTESIAN Y     1.376494     -0.139367  KCAL/ANGSTROM
     66         22  H    CARTESIAN Z    -1.396727     -0.276172  KCAL/ANGSTROM
     67         23  H    CARTESIAN X     1.054641      0.090171  KCAL/ANGSTROM
     68         23  H    CARTESIAN Y     2.220292      0.023007  KCAL/ANGSTROM
     69         23  H    CARTESIAN Z    -0.021191     -0.075839  KCAL/ANGSTROM




   ATOM   CHEMICAL          X               Y               Z
  NUMBER   SYMBOL      (ANGSTROMS)     (ANGSTROMS)     (ANGSTROMS)

     1       C          2.53900623  *   0.19095636  *   0.29637862  *
     2       C          1.01479669  *   0.06637487  *   0.25034942  *
     3       C          0.60642890  *  -1.07905831  *  -0.59860076  *
     4       C         -0.64310542  *  -1.63612845  *  -0.64318928  *
     5       C         -1.77453545  *  -1.20907379  *   0.22608931  *
     6       O         -2.18796599  *  -0.30858849  *  -0.79522675  *
     7       C         -2.13086870  *   1.09539397  *  -0.57492975  *
     8       C         -1.00921499  *   1.64156182  *   0.28205176  *
     9       C          0.38240272  *   1.37009061  *  -0.28890555  *
    10       H          3.01518615  *  -0.72061676  *   0.68453598  *
    11       H          2.85785171  *   1.00703628  *   0.96340292  *
    12       H          2.97850729  *   0.39911013  *  -0.68776852  *
    13       H          0.65821028  *  -0.09785671  *   1.30728041  *
    14       H          1.40834334  *  -1.53027128  *  -1.21257076  *
    15       H         -0.87546701  *  -2.43880966  *  -1.35471310  *
    16       H         -1.54028809  *  -0.76880356  *   1.20663973  *
    17       H         -2.58737508  *  -1.96076043  *   0.34430932  *
    18       H         -3.13552156  *   1.33315354  *  -0.14074296  *
    19       H         -2.09902491  *   1.48741713  *  -1.61956842  *
    20       H         -1.08660928  *   1.29412587  *   1.33326595  *
    21       H         -1.15118034  *   2.75076067  *   0.37003059  *
    22       H          0.37459345  *   1.37649391  *  -1.39672680  *
    23       H          1.05464082  *   2.22029169  *  -0.02119104  *

                             CARTESIAN COORDINATES

   1    C        2.539006232     0.190956362     0.296378625
   2    C        1.014796688     0.066374873     0.250349421
   3    C        0.606428897    -1.079058315    -0.598600755
   4    C       -0.643105424    -1.636128447    -0.643189275
   5    C       -1.774535453    -1.209073789     0.226089311
   6    O       -2.187965989    -0.308588494    -0.795226749
   7    C       -2.130868698     1.095393970    -0.574929746
   8    C       -1.009214993     1.641561823     0.282051757
   9    C        0.382402718     1.370090611    -0.288905548
  10    H        3.015186146    -0.720616763     0.684535981
  11    H        2.857851715     1.007036282     0.963402922
  12    H        2.978507292     0.399110126    -0.687768520
  13    H        0.658210278    -0.097856714     1.307280409
  14    H        1.408343342    -1.530271285    -1.212570764
  15    H       -0.875467010    -2.438809659    -1.354713095
  16    H       -1.540288086    -0.768803555     1.206639733
  17    H       -2.587375082    -1.960760425     0.344309323
  18    H       -3.135521563     1.333153542    -0.140742957
  19    H       -2.099024913     1.487417127    -1.619568422
  20    H       -1.086609280     1.294125868     1.333265947
  21    H       -1.151180339     2.750760668     0.370030587
  22    H        0.374593451     1.376493910    -1.396726802
  23    H        1.054640819     2.220291691    -0.021191041


           Empirical Formula: C8 H14 O  =    23 atoms



      MOLECULAR POINT GROUP   :   C1  


          ALPHA EIGENVALUES  
 -37.64138 -34.45239 -32.78841 -31.00385 -29.42695 -27.69877 -25.66125 -24.82098
 -23.28395 -22.45162 -22.23204 -21.19260 -20.39332 -19.61061 -19.39638 -18.94020
 -18.25392 -17.70462 -17.60466 -17.06764 -16.77950 -16.58878 -16.25546 -15.89707
 -15.82547 -15.04260  -5.13590  -3.59223  -1.80549  -1.18484  -0.82937  -0.71661
  -0.54458  -0.31070  -0.22577   0.13029   0.43199   0.55388   0.70262   0.85969
   0.95200   1.11183   1.17728   1.34376   1.53211   1.95723   2.08423   2.12260
   2.29544   3.27581


           BETA EIGENVALUES 
 -36.02860 -33.98808 -32.68514 -30.68323 -29.27227 -27.51906 -25.58263 -24.71835
 -23.13509 -22.30609 -21.76240 -20.95037 -20.19431 -19.47135 -19.13356 -18.68358
 -18.11281 -17.57001 -17.52105 -16.77624 -16.73105 -16.22964 -16.03863 -15.81130
 -14.90754  -7.62127  -4.34339  -3.28163  -1.65254  -1.09212  -0.75819  -0.63662
  -0.50600  -0.27319  -0.17111   0.15293   0.45018   0.59475   0.72226   0.92480
   0.98093   1.13049   1.18411   1.36240   1.55049   1.95871   2.08422   2.12374
   2.29832   3.27587


              NET ATOMIC CHARGES AND DIPOLE CONTRIBUTIONS

  ATOM NO.   TYPE          CHARGE      No. of ELECS.   s-Pop       p-Pop       
    1          C          -0.456193        4.4562     1.05667     3.39953
    2          C          -0.151239        4.1512     1.06203     3.08921
    3          C           0.078584        3.9214     1.14683     2.77458
    4          C          -0.185063        4.1851     1.11374     3.07132
    5          C          -0.112308        4.1123     1.11252     2.99979
    6          O          -0.000926        6.0009     1.89841     4.10252
    7          C          -0.145269        4.1453     1.11365     3.03162
    8          C          -0.313337        4.3133     1.06318     3.25015
    9          C          -0.271727        4.2717     1.06325     3.20848
   10          H           0.169323        0.8307     0.83068
   11          H           0.176501        0.8235     0.82350
   12          H           0.167647        0.8324     0.83235
   13          H           0.177948        0.8221     0.82205
   14          H           0.189603        0.8104     0.81040
   15          H           0.202473        0.7975     0.79753
   16          H           0.177666        0.8223     0.82233
   17          H           0.205336        0.7947     0.79466
   18          H           0.193436        0.8066     0.80656
   19          H           0.189538        0.8105     0.81046
   20          H           0.165929        0.8341     0.83407
   21          H           0.195628        0.8044     0.80437
   22          H           0.161244        0.8388     0.83876
   23          H           0.185206        0.8148     0.81479
 DIPOLE           X         Y         Z       TOTAL
 POINT-CHG.    -1.368    -0.569     0.312     1.514
 HYBRID        -0.300    -0.049    -0.176     0.351
 SUM           -1.668    -0.618     0.136     1.784


          ATOMIC ORBITAL ELECTRON POPULATIONS

     Atom    s        px        py        pz   
    1  C   1.05667   0.98548   1.20886   1.20519
    2  C   1.06203   1.04370   0.96793   1.07758
    3  C   1.14683   1.01660   0.89828   0.85970
    4  C   1.11374   0.93556   1.02719   1.10858
    5  C   1.11252   1.02285   0.97119   1.00575
    6  O   1.89841   1.43049   1.24415   1.42788
    7  C   1.11365   1.09537   0.78049   1.15575
    8  C   1.06318   0.98131   1.17639   1.09245
    9  C   1.06325   1.02109   1.04873   1.13865
   10  H   0.83068
   11  H   0.82350
   12  H   0.83235
   13  H   0.82205
   14  H   0.81040
   15  H   0.79753
   16  H   0.82233
   17  H   0.79466
   18  H   0.80656
   19  H   0.81046
   20  H   0.83407
   21  H   0.80437
   22  H   0.83876
   23  H   0.81479


                    (SZ)    =    0.500000
                    (S**2)  =    0.780036


          ATOMIC ORBITAL SPIN POPULATIONS

    Atom   Total    s     px     py     pz   
         Atomic
    1  C  0.0004  0.000  0.000  0.000  0.000
    2  C -0.0088 -0.002 -0.001 -0.008  0.003
    3  C  0.3013  0.006  0.012  0.101  0.181
    4  C  0.0955  0.005  0.060  0.072 -0.042
    5  C -0.0032 -0.003  0.020 -0.015 -0.005
    6  O  0.5568  0.013  0.509  0.032  0.003
    7  C -0.0266 -0.005  0.006 -0.027 -0.001
    8  C  0.0158  0.001  0.009  0.002  0.004
    9  C  0.0198  0.004  0.000  0.015  0.001
   10  H -0.0001 -0.000
   11  H -0.0000 -0.000
   12  H  0.0001  0.000
   13  H  0.0135  0.014
   14  H -0.0049 -0.005
   15  H -0.0008 -0.001
   16  H -0.0010 -0.001
   17  H  0.0101  0.010
   18  H  0.0334  0.033
   19  H -0.0002 -0.000
   20  H -0.0009 -0.001
   21  H -0.0020 -0.002
   22  H -0.0007 -0.001
   23  H  0.0024  0.002

 **********************
 *                    *
 * JOB ENDED NORMALLY *
 *                    *
 **********************



 TOTAL JOB TIME:             1.67 SECONDS

 == MOPAC DONE ==
