 *******************************************************************************
 **                                                                           **
 **                              MOPAC v23.2                                  **
 **                                                                           **
 *******************************************************************************
 **          Digital Object Identifier (DOI): 10.5281/zenodo.6511958          **
 **    Visit the DOI location for information on how to cite this program.    **
 *******************************************************************************

                              PM7 CALCULATION RESULTS

 *******************************************************************************
 *  CALCULATION DONE: (MAX THREADS = 40)             Fri Sep 19 21:29:29 2025  *
 *  PM7        - The PM7 Hamiltonian to be used
 *
 *
 *
 *                 CHARGE ON SYSTEM = +1
 *
 *
 *
 *  1SCF       - DO 1 SCF AND THEN STOP 
 *  T=         - A TIME OF 172800.0 SECONDS REQUESTED
 *  DUMP=N     - RESTART FILE WRITTEN EVERY 7200.0 SECONDS REQUESTED
 *  RELSCF     - DEFAULT SCF CRITERION MULTIPLIED BY 0.0001
 *              (DEFAULT SCF CRITERION = 0.00010)
 *  GRADIENTS  - ALL GRADIENTS TO BE PRINTED
 *  DISP       - PRINT DISPERSION AND HYDROGEN BOND ENERGIES
 *******************************************************************************
PM7 1SCF GRADIENTS DISP RELSCF=0.0001 CHARGE=1
 Title: ASE calculation

   ATOM   CHEMICAL          X               Y               Z
  NUMBER   SYMBOL      (ANGSTROMS)     (ANGSTROMS)     (ANGSTROMS)

     1       O          1.83231390  *  -1.13397802  *   0.83630904  *
     2       C          1.72767451  *   0.11325168  *   0.17964488  *
     3       C          0.27938482  *   0.17019676  *  -0.22510953  *
     4       C         -0.26532623  *   1.30637051  *  -0.99168694  *
     5       C         -1.49834453  *   1.62845273  *  -0.55217254  *
     6       C         -1.97276490  *   0.75556314  *   0.57720889  *
     7       C         -0.86044208  *  -0.27696649  *   0.77740978  *
     8       C         -0.96135764  *  -1.54952109  *  -0.08147847  *
     9       O         -0.00422986  *  -1.10225448  *  -1.02910116  *
    10       H          2.71654064  *  -1.23916190  *   1.26562165  *
    11       H          2.42101512  *   0.13563321  *  -0.68894580  *
    12       H          1.98048575  *   0.94759329  *   0.87233255  *
    13       H          0.30284793  *   1.79393658  *  -1.77148355  *
    14       H         -2.13037959  *   2.43186490  *  -0.92047541  *
    15       H         -2.96329542  *   0.29957259  *   0.37478649  *
    16       H         -2.13568283  *   1.36196868  *   1.49944047  *
    17       H         -0.56687211  *  -0.43315569  *   1.82812528  *
    18       H         -1.91464867  *  -1.81381097  *  -0.58298671  *
    19       H         -0.57213352  *  -2.49405549  *   0.38536583  *



          CARTESIAN COORDINATES 

    NO.       ATOM           X           Y           Z

     1         O          1.8323     -1.1340      0.8363
     2         C          1.7277      0.1133      0.1796
     3         C          0.2794      0.1702     -0.2251
     4         C         -0.2653      1.3064     -0.9917
     5         C         -1.4983      1.6285     -0.5522
     6         C         -1.9728      0.7556      0.5772
     7         C         -0.8604     -0.2770      0.7774
     8         C         -0.9614     -1.5495     -0.0815
     9         O         -0.0042     -1.1023     -1.0291
    10         H          2.7165     -1.2392      1.2656
    11         H          2.4210      0.1356     -0.6889
    12         H          1.9805      0.9476      0.8723
    13         H          0.3028      1.7939     -1.7715
    14         H         -2.1304      2.4319     -0.9205
    15         H         -2.9633      0.2996      0.3748
    16         H         -2.1357      1.3620      1.4994
    17         H         -0.5669     -0.4332      1.8281
    18         H         -1.9146     -1.8138     -0.5830
    19         H         -0.5721     -2.4941      0.3854

 General Reference for PM7:
 "Optimization of Parameters for Semiempirical Methods VI: More Modifications to the 
 NDDO Approximations and Re-optimization of Parameters", J. J. P. Stewart, J. Mol. Mod., 1:32, 19 (2013)
 https://link.springer.com/article/10.1007/s00894-012-1667-x

           Empirical Formula: C7 H10 O2  =    19 atoms



      MOLECULAR POINT GROUP   :   C1  


          UHF CALCULATION, NO. OF ALPHA ELECTRONS =   25
                           NO. OF BETA  ELECTRONS =   24
  SCF CRITERION =    0.1000E-07

 -------------------------------------------------------------------------------
 PM7 1SCF GRADIENTS DISP RELSCF=0.0001 CHARGE=1
 Title: ASE calculation



     1SCF WAS SPECIFIED, SO BFGS WAS NOT USED                 
     SCF FIELD WAS ACHIEVED                                   


                              PM7 CALCULATION
                                                       MOPAC v23.2 Linux
                                                       Fri Sep 19 21:29:30 2025




          FINAL HEAT OF FORMATION =        156.68933 KCAL/MOL =     655.58817 KJ/MOL

          TOTAL ENERGY            =     -36324.02645 KCAL/MOL = ELECTRONIC ENERGY + CORE-CORE REPULSION
          ENERGY OF ATOMS         =      36482.50324 KCAL/MOL
                              SUM =        158.47679 KCAL/MOL
          DISPERSION ENERGY       =         -1.78745 KCAL/MOL
                              SUM =        156.68933 KCAL/MOL = FINAL HEAT OF FORMATION



          TOTAL ENERGY            =      -1575.15887 EV
          ELECTRONIC ENERGY       =      -7745.73767 EV 
          CORE-CORE REPULSION     =       6170.57880 EV
          COSMO AREA              =        155.82 SQUARE ANGSTROMS
          COSMO VOLUME            =        155.83 CUBIC ANGSTROMS

          GRADIENT NORM           =          1.15447          =       0.26485 PER ATOM
          IONIZATION POTENTIAL    =         14.807637 EV
          ALPHA SOMO LUMO (EV)    =        -14.897 -5.128
          BETA  SOMO LUMO (EV)    =        -14.808 -7.810
          NO. OF ALPHA ELECTRONS  =         25
          NO. OF BETA  ELECTRONS  =         24
          MOLECULAR WEIGHT        =        126.1548         POINT GROUP:  C1  

          MOLECULAR DIMENSIONS (Angstroms)

            Atom       Atom       Distance
            H    14    H    10     6.46128
            H    12    H    18     4.63787
            H    16    H    13     3.92663


          SCF CALCULATIONS        =          1

          WALL-CLOCK TIME         =      1.352 SECONDS
          COMPUTATION TIME        =      0.638 SECONDS

          LARGEST ATOMIC GRADIENTS

          Atom     Label                     Cartesian Gradients           Cartesian Coordinates       |Gradient|
                                           X          Y          Z        X          Y          Z

             4       C                  -0.228     -0.166     -0.241   -0.26533    1.30637   -0.99169      0.371
            19       H                   0.002      0.032     -0.362   -0.57213   -2.49406    0.38537      0.363
            10       H                   0.294      0.064      0.188    2.71654   -1.23916    1.26562      0.355
            14       H                  -0.207     -0.239     -0.080   -2.13038    2.43186   -0.92048      0.326
            16       H                   0.286      0.138      0.012   -2.13568    1.36197    1.49944      0.318
             3       C                  -0.289      0.000      0.052    0.27938    0.17020   -0.22511      0.293
             2       C                  -0.276      0.005      0.026    1.72767    0.11325    0.17964      0.278
             6       C                   0.067      0.208      0.150   -1.97276    0.75556    0.57721      0.265
            17       H                  -0.103     -0.138      0.201   -0.56687   -0.43316    1.82813      0.265
             9       O                  -0.115     -0.196     -0.135   -0.00423   -1.10225   -1.02910      0.264



       FINAL  POINT  AND  DERIVATIVES

   PARAMETER     ATOM    TYPE            VALUE        GRADIENT
      1          1  O    CARTESIAN X     1.832314     -0.074318  KCAL/ANGSTROM
      2          1  O    CARTESIAN Y    -1.133978     -0.200021  KCAL/ANGSTROM
      3          1  O    CARTESIAN Z     0.836309      0.072530  KCAL/ANGSTROM
      4          2  C    CARTESIAN X     1.727675     -0.276432  KCAL/ANGSTROM
      5          2  C    CARTESIAN Y     0.113252      0.005026  KCAL/ANGSTROM
      6          2  C    CARTESIAN Z     0.179645      0.026326  KCAL/ANGSTROM
      7          3  C    CARTESIAN X     0.279385     -0.288511  KCAL/ANGSTROM
      8          3  C    CARTESIAN Y     0.170197      0.000435  KCAL/ANGSTROM
      9          3  C    CARTESIAN Z    -0.225110      0.051804  KCAL/ANGSTROM
     10          4  C    CARTESIAN X    -0.265326     -0.227631  KCAL/ANGSTROM
     11          4  C    CARTESIAN Y     1.306371     -0.166355  KCAL/ANGSTROM
     12          4  C    CARTESIAN Z    -0.991687     -0.240824  KCAL/ANGSTROM
     13          5  C    CARTESIAN X    -1.498345     -0.023220  KCAL/ANGSTROM
     14          5  C    CARTESIAN Y     1.628453      0.190808  KCAL/ANGSTROM
     15          5  C    CARTESIAN Z    -0.552173      0.141068  KCAL/ANGSTROM
     16          6  C    CARTESIAN X    -1.972765      0.066733  KCAL/ANGSTROM
     17          6  C    CARTESIAN Y     0.755563      0.208493  KCAL/ANGSTROM
     18          6  C    CARTESIAN Z     0.577209      0.149588  KCAL/ANGSTROM
     19          7  C    CARTESIAN X    -0.860442      0.130982  KCAL/ANGSTROM
     20          7  C    CARTESIAN Y    -0.276966      0.146552  KCAL/ANGSTROM
     21          7  C    CARTESIAN Z     0.777410      0.081363  KCAL/ANGSTROM
     22          8  C    CARTESIAN X    -0.961358      0.087215  KCAL/ANGSTROM
     23          8  C    CARTESIAN Y    -1.549521      0.042172  KCAL/ANGSTROM
     24          8  C    CARTESIAN Z    -0.081478     -0.026416  KCAL/ANGSTROM
     25          9  O    CARTESIAN X    -0.004230     -0.114703  KCAL/ANGSTROM
     26          9  O    CARTESIAN Y    -1.102254     -0.195865  KCAL/ANGSTROM
     27          9  O    CARTESIAN Z    -1.029101     -0.134927  KCAL/ANGSTROM
     28         10  H    CARTESIAN X     2.716541      0.294202  KCAL/ANGSTROM
     29         10  H    CARTESIAN Y    -1.239162      0.064109  KCAL/ANGSTROM
     30         10  H    CARTESIAN Z     1.265622      0.187799  KCAL/ANGSTROM
     31         11  H    CARTESIAN X     2.421015     -0.108236  KCAL/ANGSTROM
     32         11  H    CARTESIAN Y     0.135633      0.060062  KCAL/ANGSTROM
     33         11  H    CARTESIAN Z    -0.688946     -0.003583  KCAL/ANGSTROM
     34         12  H    CARTESIAN X     1.980486     -0.050060  KCAL/ANGSTROM
     35         12  H    CARTESIAN Y     0.947593      0.042180  KCAL/ANGSTROM
     36         12  H    CARTESIAN Z     0.872333      0.015520  KCAL/ANGSTROM
     37         13  H    CARTESIAN X     0.302848      0.210273  KCAL/ANGSTROM
     38         13  H    CARTESIAN Y     1.793937     -0.077362  KCAL/ANGSTROM
     39         13  H    CARTESIAN Z    -1.771484      0.067858  KCAL/ANGSTROM
     40         14  H    CARTESIAN X    -2.130380     -0.207127  KCAL/ANGSTROM
     41         14  H    CARTESIAN Y     2.431865     -0.238749  KCAL/ANGSTROM
     42         14  H    CARTESIAN Z    -0.920475     -0.079986  KCAL/ANGSTROM
     43         15  H    CARTESIAN X    -2.963295      0.169712  KCAL/ANGSTROM
     44         15  H    CARTESIAN Y     0.299573      0.143343  KCAL/ANGSTROM
     45         15  H    CARTESIAN Z     0.374786     -0.047788  KCAL/ANGSTROM
     46         16  H    CARTESIAN X    -2.135683      0.286155  KCAL/ANGSTROM
     47         16  H    CARTESIAN Y     1.361969      0.138483  KCAL/ANGSTROM
     48         16  H    CARTESIAN Z     1.499440      0.011875  KCAL/ANGSTROM
     49         17  H    CARTESIAN X    -0.566872     -0.103330  KCAL/ANGSTROM
     50         17  H    CARTESIAN Y    -0.433156     -0.137608  KCAL/ANGSTROM
     51         17  H    CARTESIAN Z     1.828125      0.201493  KCAL/ANGSTROM
     52         18  H    CARTESIAN X    -1.914649      0.226673  KCAL/ANGSTROM
     53         18  H    CARTESIAN Y    -1.813811     -0.058141  KCAL/ANGSTROM
     54         18  H    CARTESIAN Z    -0.582987     -0.111752  KCAL/ANGSTROM
     55         19  H    CARTESIAN X    -0.572134      0.001623  KCAL/ANGSTROM
     56         19  H    CARTESIAN Y    -2.494055      0.032433  KCAL/ANGSTROM
     57         19  H    CARTESIAN Z     0.385366     -0.361952  KCAL/ANGSTROM




   ATOM   CHEMICAL          X               Y               Z
  NUMBER   SYMBOL      (ANGSTROMS)     (ANGSTROMS)     (ANGSTROMS)

     1       O          1.83231390  *  -1.13397802  *   0.83630904  *
     2       C          1.72767451  *   0.11325168  *   0.17964488  *
     3       C          0.27938482  *   0.17019676  *  -0.22510953  *
     4       C         -0.26532623  *   1.30637051  *  -0.99168694  *
     5       C         -1.49834453  *   1.62845273  *  -0.55217254  *
     6       C         -1.97276490  *   0.75556314  *   0.57720889  *
     7       C         -0.86044208  *  -0.27696649  *   0.77740978  *
     8       C         -0.96135764  *  -1.54952109  *  -0.08147847  *
     9       O         -0.00422986  *  -1.10225448  *  -1.02910116  *
    10       H          2.71654064  *  -1.23916190  *   1.26562165  *
    11       H          2.42101512  *   0.13563321  *  -0.68894580  *
    12       H          1.98048575  *   0.94759329  *   0.87233255  *
    13       H          0.30284793  *   1.79393658  *  -1.77148355  *
    14       H         -2.13037959  *   2.43186490  *  -0.92047541  *
    15       H         -2.96329542  *   0.29957259  *   0.37478649  *
    16       H         -2.13568283  *   1.36196868  *   1.49944047  *
    17       H         -0.56687211  *  -0.43315569  *   1.82812528  *
    18       H         -1.91464867  *  -1.81381097  *  -0.58298671  *
    19       H         -0.57213352  *  -2.49405549  *   0.38536583  *

                             CARTESIAN COORDINATES

   1    O        1.832313903    -1.133978019     0.836309042
   2    C        1.727674514     0.113251677     0.179644877
   3    C        0.279384820     0.170196760    -0.225109529
   4    C       -0.265326229     1.306370514    -0.991686938
   5    C       -1.498344526     1.628452735    -0.552172537
   6    C       -1.972764898     0.755563136     0.577208892
   7    C       -0.860442079    -0.276966495     0.777409781
   8    C       -0.961357636    -1.549521092    -0.081478468
   9    O       -0.004229863    -1.102254479    -1.029101158
  10    H        2.716540645    -1.239161900     1.265621646
  11    H        2.421015122     0.135633207    -0.688945796
  12    H        1.980485748     0.947593292     0.872332550
  13    H        0.302847925     1.793936582    -1.771483546
  14    H       -2.130379585     2.431864899    -0.920475412
  15    H       -2.963295423     0.299572593     0.374786491
  16    H       -2.135682832     1.361968681     1.499440475
  17    H       -0.566872107    -0.433155689     1.828125276
  18    H       -1.914648671    -1.813810966    -0.582986711
  19    H       -0.572133517    -2.494055490     0.385365832


           Empirical Formula: C7 H10 O2  =    19 atoms



      MOLECULAR POINT GROUP   :   C1  


          ALPHA EIGENVALUES  
 -39.72016 -35.42402 -33.85334 -31.28333 -30.69268 -28.22625 -26.98766 -24.33799
 -23.67408 -22.81233 -22.32125 -21.58636 -21.32572 -20.62773 -19.59914 -19.26326
 -18.66022 -18.11534 -17.70172 -17.39778 -17.08238 -17.03517 -16.68193 -15.27862
 -14.89651  -5.12773  -3.75248  -2.99391  -2.43258  -1.96969  -1.57139  -1.37531
  -1.19420  -0.69296  -0.43366  -0.21931   0.21456   0.79810   0.86037   0.91250
   1.12521   1.24311   1.52012   1.65858   1.72349   1.88173


           BETA EIGENVALUES 
 -37.54585 -34.08068 -33.84656 -30.94840 -30.30519 -28.00279 -26.86340 -24.16674
 -23.41122 -22.53009 -21.98922 -21.40214 -20.94551 -20.00346 -19.33510 -18.89522
 -18.23701 -17.74271 -17.62507 -17.23574 -17.00786 -16.71758 -15.24656 -14.80764
  -7.80978  -4.70472  -3.55384  -2.81350  -2.31114  -1.95430  -1.51930  -1.35896
  -1.17539  -0.67730  -0.40923  -0.09062   0.32204   0.80196   0.86459   0.91526
   1.12389   1.24397   1.51900   1.66342   1.72681   1.88355


              NET ATOMIC CHARGES AND DIPOLE CONTRIBUTIONS

  ATOM NO.   TYPE          CHARGE      No. of ELECS.   s-Pop       p-Pop       
    1          O          -0.570103        6.5701     1.84997     4.72013
    2          C          -0.033352        4.0334     1.08919     2.94416
    3          C           0.133500        3.8665     1.14451     2.72199
    4          C          -0.310384        4.3104     1.08847     3.22191
    5          C           0.032925        3.9671     1.12297     2.84410
    6          C          -0.325184        4.3252     1.06575     3.25943
    7          C          -0.134443        4.1344     1.09591     3.03853
    8          C          -0.194646        4.1946     1.12887     3.06578
    9          O           0.219510        5.7805     1.92833     3.85216
   10          H           0.366298        0.6337     0.63370
   11          H           0.170090        0.8299     0.82991
   12          H           0.177933        0.8221     0.82207
   13          H           0.204102        0.7959     0.79590
   14          H           0.187584        0.8124     0.81242
   15          H           0.192826        0.8072     0.80717
   16          H           0.203079        0.7969     0.79692
   17          H           0.201962        0.7980     0.79804
   18          H           0.227033        0.7730     0.77297
   19          H           0.251270        0.7487     0.74873
 DIPOLE           X         Y         Z       TOTAL
 POINT-CHG.    -1.134     0.022    -0.053     1.135
 HYBRID         0.370    -0.660    -0.109     0.765
 SUM           -0.763    -0.639    -0.162     1.008


          ATOMIC ORBITAL ELECTRON POPULATIONS

     Atom    s        px        py        pz   
    1  O   1.84997   1.52523   1.41391   1.78100
    2  C   1.08919   0.96390   0.90453   1.07573
    3  C   1.14451   1.00906   0.82081   0.89212
    4  C   1.08847   1.05226   1.04532   1.12434
    5  C   1.12297   0.97387   0.96732   0.90292
    6  C   1.06575   1.08349   1.05919   1.11675
    7  C   1.09591   0.98683   0.94596   1.10573
    8  C   1.12887   1.01550   1.08778   0.96250
    9  O   1.92833   1.22886   1.31013   1.31317
   10  H   0.63370
   11  H   0.82991
   12  H   0.82207
   13  H   0.79590
   14  H   0.81242
   15  H   0.80717
   16  H   0.79692
   17  H   0.79804
   18  H   0.77297
   19  H   0.74873


                    (SZ)    =    0.500000
                    (S**2)  =    0.764160


          ATOMIC ORBITAL SPIN POPULATIONS

    Atom   Total    s     px     py     pz   
         Atomic
    1  O  0.0000  0.000  0.001 -0.001  0.000
    2  C  0.0210  0.002  0.016  0.001  0.002
    3  C -0.0657 -0.005 -0.002 -0.033 -0.026
    4  C  0.0508  0.004  0.005  0.032  0.009
    5  C -0.0293 -0.001 -0.004 -0.011 -0.013
    6  C  0.0048  0.001  0.001  0.002  0.001
    7  C  0.0057  0.000  0.001  0.004  0.000
    8  C -0.0262 -0.008 -0.001  0.001 -0.017
    9  O  0.9330  0.015  0.433  0.255  0.230
   10  H  0.0008  0.001
   11  H -0.0013 -0.001
   12  H -0.0014 -0.001
   13  H -0.0007 -0.001
   14  H  0.0015  0.001
   15  H -0.0003 -0.000
   16  H -0.0001 -0.000
   17  H -0.0007 -0.001
   18  H  0.0447  0.045
   19  H  0.0634  0.063

 **********************
 *                    *
 * JOB ENDED NORMALLY *
 *                    *
 **********************



 TOTAL JOB TIME:             1.73 SECONDS

 == MOPAC DONE ==
