 *******************************************************************************
 **                                                                           **
 **                              MOPAC v23.2                                  **
 **                                                                           **
 *******************************************************************************
 **          Digital Object Identifier (DOI): 10.5281/zenodo.6511958          **
 **    Visit the DOI location for information on how to cite this program.    **
 *******************************************************************************

                              PM7 CALCULATION RESULTS

 *******************************************************************************
 *  CALCULATION DONE: (MAX THREADS = 40)             Fri Sep 19 21:54:53 2025  *
 *  PM7        - The PM7 Hamiltonian to be used
 *
 *
 *
 *                 CHARGE ON SYSTEM = +1
 *
 *
 *
 *  1SCF       - DO 1 SCF AND THEN STOP 
 *  T=         - A TIME OF 172800.0 SECONDS REQUESTED
 *  DUMP=N     - RESTART FILE WRITTEN EVERY 7200.0 SECONDS REQUESTED
 *  RELSCF     - DEFAULT SCF CRITERION MULTIPLIED BY 0.0001
 *              (DEFAULT SCF CRITERION = 0.00010)
 *  GRADIENTS  - ALL GRADIENTS TO BE PRINTED
 *  DISP       - PRINT DISPERSION AND HYDROGEN BOND ENERGIES
 *******************************************************************************
PM7 1SCF GRADIENTS DISP RELSCF=0.0001 CHARGE=1
 Title: ASE calculation

   ATOM   CHEMICAL          X               Y               Z
  NUMBER   SYMBOL      (ANGSTROMS)     (ANGSTROMS)     (ANGSTROMS)

     1       C         -1.81267191  *   1.60809298  *   0.22522011  *
     2       C         -1.39693894  *   0.14894168  *   0.37430668  *
     3       C         -0.35195549  *  -0.26077782  *  -0.57273342  *
     4       C          0.18498701  *  -1.63919369  *  -0.54108190  *
     5       C          1.65587783  *  -1.62501127  *  -0.96597459  *
     6       C          2.38290898  *  -0.56510986  *  -0.13237669  *
     7       O          2.60150192  *  -1.04639387  *   1.17575201  *
     8       C          1.48049774  *   0.63289611  *   0.07180884  *
     9       O          1.15607495  *   1.03042408  *   1.26878810  *
    10       H         -1.01338676  *   2.30428464  *   0.51205206  *
    11       H         -2.12965656  *   1.85464665  *  -0.79699369  *
    12       H         -2.67505573  *   1.84481169  *   0.87187332  *
    13       H         -2.29974813  *  -0.50856801  *   0.21110286  *
    14       H         -1.13404724  *  -0.07047126  *   1.43493727  *
    15       H          1.07099531  *   3.51798919  *   2.50121319  *
    16       H         -0.28266120  *   0.28547077  *  -1.52134240  *
    17       H          0.08193933  *  -2.12101240  *   0.45972163  *
    18       H         -0.40814728  *  -2.29999539  *  -1.22584497  *
    19       H          1.76434952  *  -1.42940682  *  -2.05262583  *
    20       H          2.11424907  *  -2.62558472  *  -0.80404766  *
    21       H          3.36285623  *  -0.26253013  *  -0.58254568  *
    22       H          3.32984432  *  -1.71150319  *   1.21008529  *
    23       H          0.50885514  *   3.33527494  *   2.02304040  *
    24       H          1.37842652  *   1.43725519  *  -0.66659853  *
    25       H          1.46961937  *   0.39221861  *   2.01324414  *



          CARTESIAN COORDINATES 

    NO.       ATOM           X           Y           Z

     1         C         -1.8127      1.6081      0.2252
     2         C         -1.3969      0.1489      0.3743
     3         C         -0.3520     -0.2608     -0.5727
     4         C          0.1850     -1.6392     -0.5411
     5         C          1.6559     -1.6250     -0.9660
     6         C          2.3829     -0.5651     -0.1324
     7         O          2.6015     -1.0464      1.1758
     8         C          1.4805      0.6329      0.0718
     9         O          1.1561      1.0304      1.2688
    10         H         -1.0134      2.3043      0.5121
    11         H         -2.1297      1.8546     -0.7970
    12         H         -2.6751      1.8448      0.8719
    13         H         -2.2997     -0.5086      0.2111
    14         H         -1.1340     -0.0705      1.4349
    15         H          1.0710      3.5180      2.5012
    16         H         -0.2827      0.2855     -1.5213
    17         H          0.0819     -2.1210      0.4597
    18         H         -0.4081     -2.3000     -1.2258
    19         H          1.7643     -1.4294     -2.0526
    20         H          2.1142     -2.6256     -0.8040
    21         H          3.3629     -0.2625     -0.5825
    22         H          3.3298     -1.7115      1.2101
    23         H          0.5089      3.3353      2.0230
    24         H          1.3784      1.4373     -0.6666
    25         H          1.4696      0.3922      2.0132

 General Reference for PM7:
 "Optimization of Parameters for Semiempirical Methods VI: More Modifications to the 
 NDDO Approximations and Re-optimization of Parameters", J. J. P. Stewart, J. Mol. Mod., 1:32, 19 (2013)
 https://link.springer.com/article/10.1007/s00894-012-1667-x

           Empirical Formula: C7 H16 O2  =    25 atoms



      MOLECULAR POINT GROUP   :   C1  


          UHF CALCULATION, NO. OF ALPHA ELECTRONS =   28
                           NO. OF BETA  ELECTRONS =   27
  SCF CRITERION =    0.1000E-07

 -------------------------------------------------------------------------------
 PM7 1SCF GRADIENTS DISP RELSCF=0.0001 CHARGE=1
 Title: ASE calculation



     1SCF WAS SPECIFIED, SO BFGS WAS NOT USED                 
     SCF FIELD WAS ACHIEVED                                   


                              PM7 CALCULATION
                                                       MOPAC v23.2 Linux
                                                       Fri Sep 19 21:54:54 2025




          FINAL HEAT OF FORMATION =         56.73444 KCAL/MOL =     237.37690 KJ/MOL

          TOTAL ENERGY            =     -38266.97141 KCAL/MOL = ELECTRONIC ENERGY + CORE-CORE REPULSION
          ENERGY OF ATOMS         =      38326.81232 KCAL/MOL
                              SUM =         59.84091 KCAL/MOL
          DISPERSION ENERGY       =         -2.84931 KCAL/MOL
          H-BOND ENERGY           =         -0.25716 KCAL/MOL
                              SUM =         56.73444 KCAL/MOL = FINAL HEAT OF FORMATION



          TOTAL ENERGY            =      -1659.41294 EV
          ELECTRONIC ENERGY       =      -8880.08864 EV 
          CORE-CORE REPULSION     =       7220.67570 EV
          COSMO AREA              =        186.66 SQUARE ANGSTROMS
          COSMO VOLUME            =        191.49 CUBIC ANGSTROMS

          GRADIENT NORM           =          3.29416          =       0.65883 PER ATOM
          IONIZATION POTENTIAL    =         13.892244 EV
          ALPHA SOMO LUMO (EV)    =        -13.892 -5.372
          BETA  SOMO LUMO (EV)    =        -15.546 -6.352
          NO. OF ALPHA ELECTRONS  =         28
          NO. OF BETA  ELECTRONS  =         27
          MOLECULAR WEIGHT        =        132.2022         POINT GROUP:  C1  

          MOLECULAR DIMENSIONS (Angstroms)

            Atom       Atom       Distance
            H    18    H    15     7.06596
            H    22    H    12     6.82585
            H    24    H    14     3.22841


          SCF CALCULATIONS        =          1

          WALL-CLOCK TIME         =      1.375 SECONDS
          COMPUTATION TIME        =      0.788 SECONDS

          LARGEST ATOMIC GRADIENTS

          Atom     Label                     Cartesian Gradients           Cartesian Coordinates       |Gradient|
                                           X          Y          Z        X          Y          Z

             8       C                   0.206      1.014      0.840    1.48050    0.63290    0.07181      1.333
             9       O                  -0.255     -1.015     -0.040    1.15607    1.03042    1.26879      1.047
            25       H                   0.306      0.578     -0.701    1.46962    0.39222    2.01324      0.959
             7       O                   0.401      0.636     -0.424    2.60150   -1.04639    1.17575      0.863
            22       H                   0.252     -0.691     -0.389    3.32984   -1.71150    1.21009      0.832
             5       C                   0.134     -0.645      0.055    1.65588   -1.62501   -0.96597      0.661
            15       H                   0.416      0.344      0.381    1.07100    3.51799    2.50121      0.660
            20       H                  -0.288      0.033      0.578    2.11425   -2.62558   -0.80405      0.647
            21       H                  -0.085     -0.480      0.358    3.36286   -0.26253   -0.58255      0.604
            17       H                   0.339      0.249      0.403    0.08194   -2.12101    0.45972      0.583



       FINAL  POINT  AND  DERIVATIVES

   PARAMETER     ATOM    TYPE            VALUE        GRADIENT
      1          1  C    CARTESIAN X    -1.812672      0.391984  KCAL/ANGSTROM
      2          1  C    CARTESIAN Y     1.608093     -0.361941  KCAL/ANGSTROM
      3          1  C    CARTESIAN Z     0.225220      0.070976  KCAL/ANGSTROM
      4          2  C    CARTESIAN X    -1.396939     -0.135748  KCAL/ANGSTROM
      5          2  C    CARTESIAN Y     0.148942     -0.370166  KCAL/ANGSTROM
      6          2  C    CARTESIAN Z     0.374307      0.325779  KCAL/ANGSTROM
      7          3  C    CARTESIAN X    -0.351955     -0.342105  KCAL/ANGSTROM
      8          3  C    CARTESIAN Y    -0.260778     -0.195288  KCAL/ANGSTROM
      9          3  C    CARTESIAN Z    -0.572733      0.153446  KCAL/ANGSTROM
     10          4  C    CARTESIAN X     0.184987     -0.140315  KCAL/ANGSTROM
     11          4  C    CARTESIAN Y    -1.639194      0.083807  KCAL/ANGSTROM
     12          4  C    CARTESIAN Z    -0.541082     -0.486057  KCAL/ANGSTROM
     13          5  C    CARTESIAN X     1.655878      0.134303  KCAL/ANGSTROM
     14          5  C    CARTESIAN Y    -1.625011     -0.644675  KCAL/ANGSTROM
     15          5  C    CARTESIAN Z    -0.965975      0.055407  KCAL/ANGSTROM
     16          6  C    CARTESIAN X     2.382909     -0.523370  KCAL/ANGSTROM
     17          6  C    CARTESIAN Y    -0.565110     -0.158678  KCAL/ANGSTROM
     18          6  C    CARTESIAN Z    -0.132377     -0.200580  KCAL/ANGSTROM
     19          7  O    CARTESIAN X     2.601502      0.401049  KCAL/ANGSTROM
     20          7  O    CARTESIAN Y    -1.046394      0.635962  KCAL/ANGSTROM
     21          7  O    CARTESIAN Z     1.175752     -0.424444  KCAL/ANGSTROM
     22          8  C    CARTESIAN X     1.480498      0.205556  KCAL/ANGSTROM
     23          8  C    CARTESIAN Y     0.632896      1.014486  KCAL/ANGSTROM
     24          8  C    CARTESIAN Z     0.071809      0.839961  KCAL/ANGSTROM
     25          9  O    CARTESIAN X     1.156075     -0.254515  KCAL/ANGSTROM
     26          9  O    CARTESIAN Y     1.030424     -1.015030  KCAL/ANGSTROM
     27          9  O    CARTESIAN Z     1.268788     -0.039834  KCAL/ANGSTROM
     28         10  H    CARTESIAN X    -1.013387      0.157844  KCAL/ANGSTROM
     29         10  H    CARTESIAN Y     2.304285      0.527928  KCAL/ANGSTROM
     30         10  H    CARTESIAN Z     0.512052      0.119253  KCAL/ANGSTROM
     31         11  H    CARTESIAN X    -2.129657     -0.459492  KCAL/ANGSTROM
     32         11  H    CARTESIAN Y     1.854647      0.094324  KCAL/ANGSTROM
     33         11  H    CARTESIAN Z    -0.796994     -0.002867  KCAL/ANGSTROM
     34         12  H    CARTESIAN X    -2.675056     -0.507123  KCAL/ANGSTROM
     35         12  H    CARTESIAN Y     1.844812      0.092732  KCAL/ANGSTROM
     36         12  H    CARTESIAN Z     0.871873     -0.253332  KCAL/ANGSTROM
     37         13  H    CARTESIAN X    -2.299748      0.197495  KCAL/ANGSTROM
     38         13  H    CARTESIAN Y    -0.508568      0.058902  KCAL/ANGSTROM
     39         13  H    CARTESIAN Z     0.211103     -0.145799  KCAL/ANGSTROM
     40         14  H    CARTESIAN X    -1.134047     -0.237242  KCAL/ANGSTROM
     41         14  H    CARTESIAN Y    -0.070471      0.103550  KCAL/ANGSTROM
     42         14  H    CARTESIAN Z     1.434937     -0.373123  KCAL/ANGSTROM
     43         15  H    CARTESIAN X     1.070995      0.415766  KCAL/ANGSTROM
     44         15  H    CARTESIAN Y     3.517989      0.343561  KCAL/ANGSTROM
     45         15  H    CARTESIAN Z     2.501213      0.380611  KCAL/ANGSTROM
     46         16  H    CARTESIAN X    -0.282661      0.496553  KCAL/ANGSTROM
     47         16  H    CARTESIAN Y     0.285471     -0.005226  KCAL/ANGSTROM
     48         16  H    CARTESIAN Z    -1.521342      0.228360  KCAL/ANGSTROM
     49         17  H    CARTESIAN X     0.081939      0.338565  KCAL/ANGSTROM
     50         17  H    CARTESIAN Y    -2.121012      0.249192  KCAL/ANGSTROM
     51         17  H    CARTESIAN Z     0.459722      0.403375  KCAL/ANGSTROM
     52         18  H    CARTESIAN X    -0.408147      0.360570  KCAL/ANGSTROM
     53         18  H    CARTESIAN Y    -2.299995     -0.100967  KCAL/ANGSTROM
     54         18  H    CARTESIAN Z    -1.225845     -0.357631  KCAL/ANGSTROM
     55         19  H    CARTESIAN X     1.764350     -0.214709  KCAL/ANGSTROM
     56         19  H    CARTESIAN Y    -1.429407      0.108921  KCAL/ANGSTROM
     57         19  H    CARTESIAN Z    -2.052626     -0.257852  KCAL/ANGSTROM
     58         20  H    CARTESIAN X     2.114249     -0.288057  KCAL/ANGSTROM
     59         20  H    CARTESIAN Y    -2.625585      0.033463  KCAL/ANGSTROM
     60         20  H    CARTESIAN Z    -0.804048      0.577998  KCAL/ANGSTROM
     61         21  H    CARTESIAN X     3.362856     -0.084768  KCAL/ANGSTROM
     62         21  H    CARTESIAN Y    -0.262530     -0.479508  KCAL/ANGSTROM
     63         21  H    CARTESIAN Z    -0.582546      0.357699  KCAL/ANGSTROM
     64         22  H    CARTESIAN X     3.329844      0.251881  KCAL/ANGSTROM
     65         22  H    CARTESIAN Y    -1.711503     -0.691278  KCAL/ANGSTROM
     66         22  H    CARTESIAN Z     1.210085     -0.388719  KCAL/ANGSTROM
     67         23  H    CARTESIAN X     0.508855     -0.452021  KCAL/ANGSTROM
     68         23  H    CARTESIAN Y     3.335275      0.024795  KCAL/ANGSTROM
     69         23  H    CARTESIAN Z     2.023040     -0.292235  KCAL/ANGSTROM
     70         24  H    CARTESIAN X     1.378427     -0.018574  KCAL/ANGSTROM
     71         24  H    CARTESIAN Y     1.437255      0.072990  KCAL/ANGSTROM
     72         24  H    CARTESIAN Z    -0.666599      0.410233  KCAL/ANGSTROM
     73         25  H    CARTESIAN X     1.469619      0.306496  KCAL/ANGSTROM
     74         25  H    CARTESIAN Y     0.392219      0.578166  KCAL/ANGSTROM
     75         25  H    CARTESIAN Z     2.013244     -0.700704  KCAL/ANGSTROM




   ATOM   CHEMICAL          X               Y               Z
  NUMBER   SYMBOL      (ANGSTROMS)     (ANGSTROMS)     (ANGSTROMS)

     1       C         -1.81267191  *   1.60809298  *   0.22522011  *
     2       C         -1.39693894  *   0.14894168  *   0.37430668  *
     3       C         -0.35195549  *  -0.26077782  *  -0.57273342  *
     4       C          0.18498701  *  -1.63919369  *  -0.54108190  *
     5       C          1.65587783  *  -1.62501127  *  -0.96597459  *
     6       C          2.38290898  *  -0.56510986  *  -0.13237669  *
     7       O          2.60150192  *  -1.04639387  *   1.17575201  *
     8       C          1.48049774  *   0.63289611  *   0.07180884  *
     9       O          1.15607495  *   1.03042408  *   1.26878810  *
    10       H         -1.01338676  *   2.30428464  *   0.51205206  *
    11       H         -2.12965656  *   1.85464665  *  -0.79699369  *
    12       H         -2.67505573  *   1.84481169  *   0.87187332  *
    13       H         -2.29974813  *  -0.50856801  *   0.21110286  *
    14       H         -1.13404724  *  -0.07047126  *   1.43493727  *
    15       H          1.07099531  *   3.51798919  *   2.50121319  *
    16       H         -0.28266120  *   0.28547077  *  -1.52134240  *
    17       H          0.08193933  *  -2.12101240  *   0.45972163  *
    18       H         -0.40814728  *  -2.29999539  *  -1.22584497  *
    19       H          1.76434952  *  -1.42940682  *  -2.05262583  *
    20       H          2.11424907  *  -2.62558472  *  -0.80404766  *
    21       H          3.36285623  *  -0.26253013  *  -0.58254568  *
    22       H          3.32984432  *  -1.71150319  *   1.21008529  *
    23       H          0.50885514  *   3.33527494  *   2.02304040  *
    24       H          1.37842652  *   1.43725519  *  -0.66659853  *
    25       H          1.46961937  *   0.39221861  *   2.01324414  *

                             CARTESIAN COORDINATES

   1    C       -1.812671910     1.608092981     0.225220109
   2    C       -1.396938943     0.148941682     0.374306677
   3    C       -0.351955490    -0.260777823    -0.572733420
   4    C        0.184987009    -1.639193689    -0.541081898
   5    C        1.655877825    -1.625011271    -0.965974590
   6    C        2.382908983    -0.565109858    -0.132376693
   7    O        2.601501923    -1.046393865     1.175752009
   8    C        1.480497735     0.632896114     0.071808841
   9    O        1.156074946     1.030424084     1.268788100
  10    H       -1.013386757     2.304284641     0.512052060
  11    H       -2.129656563     1.854646655    -0.796993690
  12    H       -2.675055726     1.844811692     0.871873316
  13    H       -2.299748130    -0.508568007     0.211102864
  14    H       -1.134047244    -0.070471257     1.434937271
  15    H        1.070995310     3.517989193     2.501213189
  16    H       -0.282661200     0.285470768    -1.521342400
  17    H        0.081939330    -2.121012402     0.459721631
  18    H       -0.408147278    -2.299995389    -1.225844970
  19    H        1.764349521    -1.429406825    -2.052625834
  20    H        2.114249071    -2.625584723    -0.804047660
  21    H        3.362856225    -0.262530133    -0.582545684
  22    H        3.329844324    -1.711503188     1.210085288
  23    H        0.508855137     3.335274945     2.023040403
  24    H        1.378426521     1.437255187    -0.666598529
  25    H        1.469619370     0.392218608     2.013244138


           Empirical Formula: C7 H16 O2  =    25 atoms



      MOLECULAR POINT GROUP   :   C1  


          ALPHA EIGENVALUES  
 -37.17928 -34.95808 -33.60772 -31.83601 -29.90243 -28.31942 -26.22113 -25.00357
 -24.42918 -22.65860 -22.32594 -21.44784 -20.62037 -20.16112 -19.70488 -19.24930
 -18.77432 -18.61170 -17.95757 -17.80931 -17.63810 -17.17249 -16.69883 -16.47466
 -16.18295 -16.10113 -15.57705 -13.89224  -5.37248  -3.07332  -1.93204  -1.79935
  -1.12461  -0.93862  -0.54601  -0.27707  -0.25480   0.23493   0.46859   0.51902
   0.64142   0.87818   1.05711   1.15472   1.44495   1.79034   1.91821   1.99530
   2.16969   2.21527   3.31724   4.21815


           BETA EIGENVALUES 
 -36.62410 -34.73987 -33.54314 -31.79322 -29.76635 -28.18750 -26.14048 -24.95438
 -24.26790 -22.50856 -22.23415 -21.19921 -20.49252 -20.07520 -19.48853 -19.04184
 -18.57422 -18.28041 -17.88436 -17.73735 -17.59690 -17.09733 -16.63289 -16.42737
 -16.13892 -15.95451 -15.54564  -6.35177  -3.90780  -2.89407  -1.85699  -1.71920
  -1.10231  -0.83031  -0.41501  -0.18478  -0.16312   0.28841   0.52327   0.59463
   0.70771   0.92211   1.11230   1.20115   1.44940   1.79882   1.93291   2.02140
   2.17432   2.22609   3.31764   4.21823


              NET ATOMIC CHARGES AND DIPOLE CONTRIBUTIONS

  ATOM NO.   TYPE          CHARGE      No. of ELECS.   s-Pop       p-Pop       
    1          C          -0.438902        4.4389     1.05184     3.38707
    2          C          -0.322206        4.3222     1.05508     3.26712
    3          C           0.047447        3.9526     1.16053     2.79202
    4          C          -0.340225        4.3402     1.06151     3.27871
    5          C          -0.303332        4.3033     1.07042     3.23291
    6          C           0.083956        3.9160     1.09522     2.82082
    7          O          -0.590611        6.5906     1.84183     4.74878
    8          C           0.187487        3.8125     1.18497     2.62755
    9          O          -0.284158        6.2842     1.83937     4.44479
   10          H           0.157311        0.8427     0.84269
   11          H           0.161770        0.8382     0.83823
   12          H           0.179953        0.8200     0.82005
   13          H           0.209967        0.7900     0.79003
   14          H           0.183561        0.8164     0.81644
   15          H           0.014071        0.9859     0.98593
   16          H           0.163008        0.8370     0.83699
   17          H           0.189929        0.8101     0.81007
   18          H           0.208212        0.7918     0.79179
   19          H           0.175745        0.8243     0.82425
   20          H           0.189575        0.8104     0.81043
   21          H           0.176458        0.8235     0.82354
   22          H           0.378880        0.6211     0.62112
   23          H          -0.012072        1.0121     1.01207
   24          H           0.197581        0.8024     0.80242
   25          H           0.386594        0.6134     0.61341
 DIPOLE           X         Y         Z       TOTAL
 POINT-CHG.     1.015    -0.731    -2.426     2.729
 HYBRID         0.158    -0.392     0.767     0.876
 SUM            1.173    -1.123    -1.659     2.321


          ATOMIC ORBITAL ELECTRON POPULATIONS

     Atom    s        px        py        pz   
    1  C   1.05184   1.18775   0.99801   1.20131
    2  C   1.05508   1.07919   1.07857   1.10936
    3  C   1.16053   0.82623   0.95277   1.01303
    4  C   1.06151   1.03368   1.03822   1.20681
    5  C   1.07042   0.99583   1.11815   1.11894
    6  C   1.09522   1.04573   0.94016   0.83493
    7  O   1.84183   1.68779   1.70463   1.35636
    8  C   1.18497   0.79618   0.97085   0.86052
    9  O   1.83937   1.63594   1.52991   1.27894
   10  H   0.84269
   11  H   0.83823
   12  H   0.82005
   13  H   0.79003
   14  H   0.81644
   15  H   0.98593
   16  H   0.83699
   17  H   0.81007
   18  H   0.79179
   19  H   0.82425
   20  H   0.81043
   21  H   0.82354
   22  H   0.62112
   23  H   1.01207
   24  H   0.80242
   25  H   0.61341


                    (SZ)    =    0.500000
                    (S**2)  =    0.757299


          ATOMIC ORBITAL SPIN POPULATIONS

    Atom   Total    s     px     py     pz   
         Atomic
    1  C  0.0016  0.000 -0.000  0.001  0.000
    2  C -0.0082 -0.003  0.004 -0.001 -0.008
    3  C  0.5094  0.014  0.279  0.092  0.124
    4  C -0.0110 -0.003 -0.007 -0.003  0.002
    5  C  0.0151  0.006  0.002  0.004  0.004
    6  C -0.0043 -0.001  0.002 -0.004 -0.000
    7  O -0.0002 -0.000 -0.000 -0.000 -0.000
    8  C  0.2311  0.002  0.164  0.068 -0.003
    9  O  0.1975  0.008  0.119  0.061  0.010
   10  H  0.0005  0.000
   11  H -0.0000 -0.000
   12  H -0.0004 -0.000
   13  H  0.0317  0.032
   14  H  0.0137  0.014
   15  H  0.0000  0.000
   16  H -0.0054 -0.005
   17  H  0.0024  0.002
   18  H  0.0227  0.023
   19  H -0.0002 -0.000
   20  H -0.0005 -0.000
   21  H  0.0061  0.006
   22  H  0.0000  0.000
   23  H  0.0000  0.000
   24  H  0.0077  0.008
   25  H -0.0094 -0.009

 **********************
 *                    *
 * JOB ENDED NORMALLY *
 *                    *
 **********************



 TOTAL JOB TIME:             1.88 SECONDS

 == MOPAC DONE ==
