 *******************************************************************************
 **                                                                           **
 **                              MOPAC v23.2                                  **
 **                                                                           **
 *******************************************************************************
 **          Digital Object Identifier (DOI): 10.5281/zenodo.6511958          **
 **    Visit the DOI location for information on how to cite this program.    **
 *******************************************************************************

                              PM7 CALCULATION RESULTS

 *******************************************************************************
 *  CALCULATION DONE: (MAX THREADS = 40)             Fri Sep 19 21:29:07 2025  *
 *  PM7        - The PM7 Hamiltonian to be used
 *
 *
 *
 *                 CHARGE ON SYSTEM = +1
 *
 *
 *
 *  1SCF       - DO 1 SCF AND THEN STOP 
 *  T=         - A TIME OF 172800.0 SECONDS REQUESTED
 *  DUMP=N     - RESTART FILE WRITTEN EVERY 7200.0 SECONDS REQUESTED
 *  RELSCF     - DEFAULT SCF CRITERION MULTIPLIED BY 0.0001
 *              (DEFAULT SCF CRITERION = 0.00010)
 *  GRADIENTS  - ALL GRADIENTS TO BE PRINTED
 *  DISP       - PRINT DISPERSION AND HYDROGEN BOND ENERGIES
 *******************************************************************************
PM7 1SCF GRADIENTS DISP RELSCF=0.0001 CHARGE=1
 Title: ASE calculation

   ATOM   CHEMICAL          X               Y               Z
  NUMBER   SYMBOL      (ANGSTROMS)     (ANGSTROMS)     (ANGSTROMS)

     1       C          2.82087621  *  -0.42736525  *   0.90339911  *
     2       C          1.31996218  *  -0.70571164  *   0.91280151  *
     3       C          0.62970964  *   0.02905173  *  -0.24661255  *
     4       C         -0.89812142  *  -0.14446009  *  -0.21589325  *
     5       C         -1.31516858  *  -1.60499194  *  -0.33100811  *
     6       C         -1.56532727  *   0.56997793  *   1.00860771  *
     7       C         -2.44536554  *   1.56357888  *   0.40323803  *
     8       O         -2.36021259  *   1.53067157  *  -0.97518146  *
     9       C         -1.51382728  *   0.60963787  *  -1.35594685  *
    10       H          3.29345264  *  -0.74233614  *  -0.03543873  *
    11       H          3.04892281  *   0.63521887  *   1.04903611  *
    12       H          3.32733703  *  -0.97643375  *   1.71199811  *
    13       H          0.89128590  *  -0.40055511  *   1.88616289  *
    14       H          1.14990531  *  -1.79910246  *   0.83434002  *
    15       H          1.04092720  *  -0.35558067  *  -1.20502688  *
    16       H          0.90511288  *   1.10333902  *  -0.21157004  *
    17       H         -1.00050920  *  -2.17956030  *   0.55854738  *
    18       H         -2.40121541  *  -1.74511021  *  -0.41610934  *
    19       H         -0.84312053  *  -2.11084811  *  -1.18852714  *
    20       H         -0.80501261  *   1.02458846  *   1.69168887  *
    21       H         -2.10437610  *  -0.14785706  *   1.67314244  *
    22       H         -3.12717993  *   2.30050617  *   0.78010816  *
    23       H         -1.38023606  *   0.50504153  *  -2.43090249  *



          CARTESIAN COORDINATES 

    NO.       ATOM           X           Y           Z

     1         C          2.8209     -0.4274      0.9034
     2         C          1.3200     -0.7057      0.9128
     3         C          0.6297      0.0291     -0.2466
     4         C         -0.8981     -0.1445     -0.2159
     5         C         -1.3152     -1.6050     -0.3310
     6         C         -1.5653      0.5700      1.0086
     7         C         -2.4454      1.5636      0.4032
     8         O         -2.3602      1.5307     -0.9752
     9         C         -1.5138      0.6096     -1.3559
    10         H          3.2935     -0.7423     -0.0354
    11         H          3.0489      0.6352      1.0490
    12         H          3.3273     -0.9764      1.7120
    13         H          0.8913     -0.4006      1.8862
    14         H          1.1499     -1.7991      0.8343
    15         H          1.0409     -0.3556     -1.2050
    16         H          0.9051      1.1033     -0.2116
    17         H         -1.0005     -2.1796      0.5585
    18         H         -2.4012     -1.7451     -0.4161
    19         H         -0.8431     -2.1108     -1.1885
    20         H         -0.8050      1.0246      1.6917
    21         H         -2.1044     -0.1479      1.6731
    22         H         -3.1272      2.3005      0.7801
    23         H         -1.3802      0.5050     -2.4309

 General Reference for PM7:
 "Optimization of Parameters for Semiempirical Methods VI: More Modifications to the 
 NDDO Approximations and Re-optimization of Parameters", J. J. P. Stewart, J. Mol. Mod., 1:32, 19 (2013)
 https://link.springer.com/article/10.1007/s00894-012-1667-x

           Empirical Formula: C8 H14 O  =    23 atoms



      MOLECULAR POINT GROUP   :   C1  


          UHF CALCULATION, NO. OF ALPHA ELECTRONS =   26
                           NO. OF BETA  ELECTRONS =   25
  SCF CRITERION =    0.1000E-07

 -------------------------------------------------------------------------------
 PM7 1SCF GRADIENTS DISP RELSCF=0.0001 CHARGE=1
 Title: ASE calculation



     1SCF WAS SPECIFIED, SO BFGS WAS NOT USED                 
     SCF FIELD WAS ACHIEVED                                   


                              PM7 CALCULATION
                                                       MOPAC v23.2 Linux
                                                       Fri Sep 19 21:29:09 2025




          FINAL HEAT OF FORMATION =        148.36294 KCAL/MOL =     620.75055 KJ/MOL

          TOTAL ENERGY            =     -33631.49075 KCAL/MOL = ELECTRONIC ENERGY + CORE-CORE REPULSION
          ENERGY OF ATOMS         =      33782.22825 KCAL/MOL
                              SUM =        150.73749 KCAL/MOL
          DISPERSION ENERGY       =         -2.37455 KCAL/MOL
                              SUM =        148.36294 KCAL/MOL = FINAL HEAT OF FORMATION



          TOTAL ENERGY            =      -1458.39947 EV
          ELECTRONIC ENERGY       =      -7754.70475 EV 
          CORE-CORE REPULSION     =       6296.30528 EV
          COSMO AREA              =        175.48 SQUARE ANGSTROMS
          COSMO VOLUME            =        179.37 CUBIC ANGSTROMS

          GRADIENT NORM           =          1.13403          =       0.23646 PER ATOM
          IONIZATION POTENTIAL    =         14.169243 EV
          ALPHA SOMO LUMO (EV)    =        -14.169 -6.501
          BETA  SOMO LUMO (EV)    =        -14.978 -6.361
          NO. OF ALPHA ELECTRONS  =         26
          NO. OF BETA  ELECTRONS  =         25
          MOLECULAR WEIGHT        =        126.1980         POINT GROUP:  C1  

          MOLECULAR DIMENSIONS (Angstroms)

            Atom       Atom       Distance
            H    22    H    12     7.29846
            H    18    H    11     4.69114
            H    23    H    21     4.21439


          SCF CALCULATIONS        =          1

          WALL-CLOCK TIME         =      1.469 SECONDS
          COMPUTATION TIME        =      0.756 SECONDS

          LARGEST ATOMIC GRADIENTS

          Atom     Label                     Cartesian Gradients           Cartesian Coordinates       |Gradient|
                                           X          Y          Z        X          Y          Z

             7       C                  -0.143      0.005      0.412   -2.44537    1.56358    0.40324      0.436
            22       H                   0.233     -0.187     -0.263   -3.12718    2.30051    0.78011      0.398
            16       H                   0.250      0.242     -0.074    0.90511    1.10334   -0.21157      0.356
             6       C                  -0.242      0.133      0.189   -1.56533    0.56998    1.00861      0.335
             8       O                  -0.117     -0.304      0.028   -2.36021    1.53067   -0.97518      0.327
             3       C                  -0.134      0.185     -0.206    0.62971    0.02905   -0.24661      0.308
            23       H                  -0.067     -0.217      0.181   -1.38024    0.50504   -2.43090      0.291
            12       H                  -0.029     -0.223      0.087    3.32734   -0.97643    1.71200      0.241
            20       H                  -0.145      0.042     -0.154   -0.80501    1.02459    1.69169      0.215
            15       H                   0.143     -0.056     -0.140    1.04093   -0.35558   -1.20503      0.208



       FINAL  POINT  AND  DERIVATIVES

   PARAMETER     ATOM    TYPE            VALUE        GRADIENT
      1          1  C    CARTESIAN X     2.820876     -0.031799  KCAL/ANGSTROM
      2          1  C    CARTESIAN Y    -0.427365     -0.043063  KCAL/ANGSTROM
      3          1  C    CARTESIAN Z     0.903399      0.063913  KCAL/ANGSTROM
      4          2  C    CARTESIAN X     1.319962     -0.129262  KCAL/ANGSTROM
      5          2  C    CARTESIAN Y    -0.705712      0.041631  KCAL/ANGSTROM
      6          2  C    CARTESIAN Z     0.912802     -0.149650  KCAL/ANGSTROM
      7          3  C    CARTESIAN X     0.629710     -0.134297  KCAL/ANGSTROM
      8          3  C    CARTESIAN Y     0.029052      0.185114  KCAL/ANGSTROM
      9          3  C    CARTESIAN Z    -0.246613     -0.205888  KCAL/ANGSTROM
     10          4  C    CARTESIAN X    -0.898121     -0.116853  KCAL/ANGSTROM
     11          4  C    CARTESIAN Y    -0.144460      0.093924  KCAL/ANGSTROM
     12          4  C    CARTESIAN Z    -0.215893     -0.041278  KCAL/ANGSTROM
     13          5  C    CARTESIAN X    -1.315169     -0.006619  KCAL/ANGSTROM
     14          5  C    CARTESIAN Y    -1.604992      0.087218  KCAL/ANGSTROM
     15          5  C    CARTESIAN Z    -0.331008     -0.149453  KCAL/ANGSTROM
     16          6  C    CARTESIAN X    -1.565327     -0.241659  KCAL/ANGSTROM
     17          6  C    CARTESIAN Y     0.569978      0.133435  KCAL/ANGSTROM
     18          6  C    CARTESIAN Z     1.008608      0.189322  KCAL/ANGSTROM
     19          7  C    CARTESIAN X    -2.445366     -0.142510  KCAL/ANGSTROM
     20          7  C    CARTESIAN Y     1.563579      0.004773  KCAL/ANGSTROM
     21          7  C    CARTESIAN Z     0.403238      0.411866  KCAL/ANGSTROM
     22          8  O    CARTESIAN X    -2.360213     -0.117150  KCAL/ANGSTROM
     23          8  O    CARTESIAN Y     1.530672     -0.304462  KCAL/ANGSTROM
     24          8  O    CARTESIAN Z    -0.975181      0.027899  KCAL/ANGSTROM
     25          9  C    CARTESIAN X    -1.513827     -0.018898  KCAL/ANGSTROM
     26          9  C    CARTESIAN Y     0.609638      0.068206  KCAL/ANGSTROM
     27          9  C    CARTESIAN Z    -1.355947      0.065767  KCAL/ANGSTROM
     28         10  H    CARTESIAN X     3.293453      0.070034  KCAL/ANGSTROM
     29         10  H    CARTESIAN Y    -0.742336     -0.054100  KCAL/ANGSTROM
     30         10  H    CARTESIAN Z    -0.035439      0.102793  KCAL/ANGSTROM
     31         11  H    CARTESIAN X     3.048923      0.170561  KCAL/ANGSTROM
     32         11  H    CARTESIAN Y     0.635219     -0.024872  KCAL/ANGSTROM
     33         11  H    CARTESIAN Z     1.049036      0.060669  KCAL/ANGSTROM
     34         12  H    CARTESIAN X     3.327337     -0.029262  KCAL/ANGSTROM
     35         12  H    CARTESIAN Y    -0.976434     -0.223406  KCAL/ANGSTROM
     36         12  H    CARTESIAN Z     1.711998      0.086550  KCAL/ANGSTROM
     37         13  H    CARTESIAN X     0.891286      0.095325  KCAL/ANGSTROM
     38         13  H    CARTESIAN Y    -0.400555      0.040003  KCAL/ANGSTROM
     39         13  H    CARTESIAN Z     1.886163      0.018591  KCAL/ANGSTROM
     40         14  H    CARTESIAN X     1.149905      0.005595  KCAL/ANGSTROM
     41         14  H    CARTESIAN Y    -1.799102     -0.116497  KCAL/ANGSTROM
     42         14  H    CARTESIAN Z     0.834340     -0.018436  KCAL/ANGSTROM
     43         15  H    CARTESIAN X     1.040927      0.143252  KCAL/ANGSTROM
     44         15  H    CARTESIAN Y    -0.355581     -0.055605  KCAL/ANGSTROM
     45         15  H    CARTESIAN Z    -1.205027     -0.140312  KCAL/ANGSTROM
     46         16  H    CARTESIAN X     0.905113      0.249687  KCAL/ANGSTROM
     47         16  H    CARTESIAN Y     1.103339      0.242121  KCAL/ANGSTROM
     48         16  H    CARTESIAN Z    -0.211570     -0.073810  KCAL/ANGSTROM
     49         17  H    CARTESIAN X    -1.000509      0.046744  KCAL/ANGSTROM
     50         17  H    CARTESIAN Y    -2.179560      0.121118  KCAL/ANGSTROM
     51         17  H    CARTESIAN Z     0.558547     -0.066725  KCAL/ANGSTROM
     52         18  H    CARTESIAN X    -2.401215      0.008121  KCAL/ANGSTROM
     53         18  H    CARTESIAN Y    -1.745110      0.040997  KCAL/ANGSTROM
     54         18  H    CARTESIAN Z    -0.416109      0.068344  KCAL/ANGSTROM
     55         19  H    CARTESIAN X    -0.843121      0.169245  KCAL/ANGSTROM
     56         19  H    CARTESIAN Y    -2.110848      0.016885  KCAL/ANGSTROM
     57         19  H    CARTESIAN Z    -1.188527     -0.070150  KCAL/ANGSTROM
     58         20  H    CARTESIAN X    -0.805013     -0.144799  KCAL/ANGSTROM
     59         20  H    CARTESIAN Y     1.024588      0.041842  KCAL/ANGSTROM
     60         20  H    CARTESIAN Z     1.691689     -0.153581  KCAL/ANGSTROM
     61         21  H    CARTESIAN X    -2.104376     -0.011719  KCAL/ANGSTROM
     62         21  H    CARTESIAN Y    -0.147857      0.109427  KCAL/ANGSTROM
     63         21  H    CARTESIAN Z     1.673142      0.055894  KCAL/ANGSTROM
     64         22  H    CARTESIAN X    -3.127180      0.232942  KCAL/ANGSTROM
     65         22  H    CARTESIAN Y     2.300506     -0.187267  KCAL/ANGSTROM
     66         22  H    CARTESIAN Z     0.780108     -0.263127  KCAL/ANGSTROM
     67         23  H    CARTESIAN X    -1.380236     -0.066681  KCAL/ANGSTROM
     68         23  H    CARTESIAN Y     0.505042     -0.217427  KCAL/ANGSTROM
     69         23  H    CARTESIAN Z    -2.430902      0.180797  KCAL/ANGSTROM




   ATOM   CHEMICAL          X               Y               Z
  NUMBER   SYMBOL      (ANGSTROMS)     (ANGSTROMS)     (ANGSTROMS)

     1       C          2.82087621  *  -0.42736525  *   0.90339911  *
     2       C          1.31996218  *  -0.70571164  *   0.91280151  *
     3       C          0.62970964  *   0.02905173  *  -0.24661255  *
     4       C         -0.89812142  *  -0.14446009  *  -0.21589325  *
     5       C         -1.31516858  *  -1.60499194  *  -0.33100811  *
     6       C         -1.56532727  *   0.56997793  *   1.00860771  *
     7       C         -2.44536554  *   1.56357888  *   0.40323803  *
     8       O         -2.36021259  *   1.53067157  *  -0.97518146  *
     9       C         -1.51382728  *   0.60963787  *  -1.35594685  *
    10       H          3.29345264  *  -0.74233614  *  -0.03543873  *
    11       H          3.04892281  *   0.63521887  *   1.04903611  *
    12       H          3.32733703  *  -0.97643375  *   1.71199811  *
    13       H          0.89128590  *  -0.40055511  *   1.88616289  *
    14       H          1.14990531  *  -1.79910246  *   0.83434002  *
    15       H          1.04092720  *  -0.35558067  *  -1.20502688  *
    16       H          0.90511288  *   1.10333902  *  -0.21157004  *
    17       H         -1.00050920  *  -2.17956030  *   0.55854738  *
    18       H         -2.40121541  *  -1.74511021  *  -0.41610934  *
    19       H         -0.84312053  *  -2.11084811  *  -1.18852714  *
    20       H         -0.80501261  *   1.02458846  *   1.69168887  *
    21       H         -2.10437610  *  -0.14785706  *   1.67314244  *
    22       H         -3.12717993  *   2.30050617  *   0.78010816  *
    23       H         -1.38023606  *   0.50504153  *  -2.43090249  *

                             CARTESIAN COORDINATES

   1    C        2.820876214    -0.427365251     0.903399108
   2    C        1.319962183    -0.705711640     0.912801512
   3    C        0.629709645     0.029051726    -0.246612550
   4    C       -0.898121420    -0.144460092    -0.215893249
   5    C       -1.315168579    -1.604991939    -0.331008113
   6    C       -1.565327273     0.569977933     1.008607711
   7    C       -2.445365535     1.563578882     0.403238031
   8    O       -2.360212589     1.530671572    -0.975181459
   9    C       -1.513827276     0.609637868    -1.355946846
  10    H        3.293452644    -0.742336139    -0.035438729
  11    H        3.048922810     0.635218872     1.049036107
  12    H        3.327337029    -0.976433748     1.711998112
  13    H        0.891285898    -0.400555115     1.886162891
  14    H        1.149905309    -1.799102459     0.834340019
  15    H        1.040927198    -0.355580674    -1.205026882
  16    H        0.905112881     1.103339023    -0.211570036
  17    H       -1.000509198    -2.179560299     0.558547377
  18    H       -2.401215408    -1.745110205    -0.416109342
  19    H       -0.843120526    -2.110848107    -1.188527139
  20    H       -0.805012608     1.024588463     1.691688874
  21    H       -2.104376104    -0.147857059     1.673142439
  22    H       -3.127179932     2.300506172     0.780108162
  23    H       -1.380236058     0.505041529    -2.430902492


           Empirical Formula: C8 H14 O  =    23 atoms



      MOLECULAR POINT GROUP   :   C1  


          ALPHA EIGENVALUES  
 -39.17133 -34.90191 -31.67622 -31.17986 -29.08090 -27.68873 -26.56809 -24.81752
 -23.67098 -22.71151 -21.72520 -20.89068 -20.14294 -19.55454 -19.53233 -18.97526
 -18.47650 -18.41409 -17.49106 -17.21282 -16.96748 -16.50532 -15.98371 -15.41411
 -14.98075 -14.16924  -6.50056  -4.30788  -2.61937  -2.24465  -1.36704  -1.29493
  -1.10846  -0.61146  -0.41142   0.30395   0.40160   0.49274   1.11905   1.24114
   1.27007   1.32839   1.34558   2.13470   2.22018   2.50552   2.81643   2.91953
   3.05121   4.01062


           BETA EIGENVALUES 
 -39.55991 -34.97713 -31.59956 -31.08647 -29.06672 -27.66331 -26.46917 -24.70788
 -23.66754 -22.71039 -21.52177 -20.80137 -20.11710 -19.57912 -19.52637 -18.90622
 -18.45774 -18.19230 -17.41666 -17.16477 -16.94772 -16.49839 -15.94913 -15.39976
 -14.97776  -6.36087  -4.79661  -4.26529  -2.53706  -2.14902  -1.26796  -1.08821
  -1.04651  -0.57810  -0.36882   0.30962   0.49868   0.64680   1.12047   1.25129
   1.28913   1.33067   1.37580   2.13546   2.22117   2.50653   2.81677   2.91963
   3.05163   4.01070


              NET ATOMIC CHARGES AND DIPOLE CONTRIBUTIONS

  ATOM NO.   TYPE          CHARGE      No. of ELECS.   s-Pop       p-Pop       
    1          C          -0.439098        4.4391     1.05202     3.38708
    2          C          -0.242151        4.2422     1.05587     3.18628
    3          C          -0.294391        4.2944     1.06923     3.22516
    4          C           0.011443        3.9886     1.07698     2.91158
    5          C          -0.463976        4.4640     1.05738     3.40660
    6          C          -0.356673        4.3567     1.07262     3.28405
    7          C           0.035759        3.9642     1.17823     2.78601
    8          O          -0.021193        6.0212     1.85561     4.16558
    9          C           0.233090        3.7669     1.22901     2.53790
   10          H           0.157052        0.8429     0.84295
   11          H           0.153293        0.8467     0.84671
   12          H           0.168459        0.8315     0.83154
   13          H           0.138235        0.8618     0.86177
   14          H           0.150576        0.8494     0.84942
   15          H           0.168766        0.8312     0.83123
   16          H           0.159299        0.8407     0.84070
   17          H           0.194735        0.8053     0.80527
   18          H           0.170551        0.8294     0.82945
   19          H           0.183768        0.8162     0.81623
   20          H           0.224161        0.7758     0.77584
   21          H           0.222869        0.7771     0.77713
   22          H           0.223505        0.7765     0.77650
   23          H           0.221921        0.7781     0.77808
 DIPOLE           X         Y         Z       TOTAL
 POINT-CHG.    -3.183     1.103    -1.210     3.579
 HYBRID        -0.546     0.442    -0.423     0.820
 SUM           -3.728     1.545    -1.634     4.354


          ATOMIC ORBITAL ELECTRON POPULATIONS

     Atom    s        px        py        pz   
    1  C   1.05202   1.00726   1.18378   1.19604
    2  C   1.05587   1.02588   1.11932   1.04108
    3  C   1.06923   0.92093   1.16131   1.14292
    4  C   1.07698   1.02550   0.99251   0.89356
    5  C   1.05738   1.18522   0.99030   1.23107
    6  C   1.07262   1.11218   1.08660   1.08527
    7  C   1.17823   1.01422   1.02292   0.74887
    8  O   1.85561   1.42783   1.41213   1.32562
    9  C   1.22901   0.72040   0.74193   1.07556
   10  H   0.84295
   11  H   0.84671
   12  H   0.83154
   13  H   0.86177
   14  H   0.84942
   15  H   0.83123
   16  H   0.84070
   17  H   0.80527
   18  H   0.82945
   19  H   0.81623
   20  H   0.77584
   21  H   0.77713
   22  H   0.77650
   23  H   0.77808


                    (SZ)    =    0.500000
                    (S**2)  =    0.772719


          ATOMIC ORBITAL SPIN POPULATIONS

    Atom   Total    s     px     py     pz   
         Atomic
    1  C  0.0004  0.000  0.000  0.000  0.000
    2  C -0.0000 -0.000 -0.000 -0.000  0.000
    3  C  0.0130  0.002  0.010  0.001  0.000
    4  C -0.0134 -0.001 -0.003 -0.004 -0.006
    5  C  0.0141  0.003  0.001  0.010  0.000
    6  C -0.0251 -0.005 -0.005 -0.007 -0.008
    7  C  0.8238  0.021  0.422  0.351  0.029
    8  O -0.1587 -0.004 -0.070 -0.059 -0.025
    9  C  0.3247  0.009  0.167  0.138  0.011
   10  H -0.0000 -0.000
   11  H -0.0000 -0.000
   12  H  0.0000  0.000
   13  H -0.0000 -0.000
   14  H  0.0000  0.000
   15  H -0.0004 -0.000
   16  H -0.0005 -0.001
   17  H -0.0001 -0.000
   18  H -0.0005 -0.001
   19  H -0.0004 -0.000
   20  H  0.0275  0.028
   21  H  0.0261  0.026
   22  H -0.0212 -0.021
   23  H -0.0092 -0.009

 **********************
 *                    *
 * JOB ENDED NORMALLY *
 *                    *
 **********************



 TOTAL JOB TIME:             1.88 SECONDS

 == MOPAC DONE ==
