 *******************************************************************************
 **                                                                           **
 **                              MOPAC v23.2                                  **
 **                                                                           **
 *******************************************************************************
 **          Digital Object Identifier (DOI): 10.5281/zenodo.6511958          **
 **    Visit the DOI location for information on how to cite this program.    **
 *******************************************************************************

                              PM7 CALCULATION RESULTS

 *******************************************************************************
 *  CALCULATION DONE: (MAX THREADS = 40)             Fri Sep 19 21:44:43 2025  *
 *  PM7        - The PM7 Hamiltonian to be used
 *
 *
 *
 *                 CHARGE ON SYSTEM = +1
 *
 *
 *
 *  EPS=37.5   - USE ANDREAS KLAMT'S COSMO IMPLICIT SOLVATION MODEL
 *  1SCF       - DO 1 SCF AND THEN STOP 
 *  T=         - A TIME OF 172800.0 SECONDS REQUESTED
 *  DUMP=N     - RESTART FILE WRITTEN EVERY 7200.0 SECONDS REQUESTED
 *  RELSCF     - DEFAULT SCF CRITERION MULTIPLIED BY 0.0001
 *              (DEFAULT SCF CRITERION = 0.00010)
 *  GRADIENTS  - ALL GRADIENTS TO BE PRINTED
 *  DISP       - PRINT DISPERSION AND HYDROGEN BOND ENERGIES
 *******************************************************************************
PM7 1SCF GRADIENTS EPS=37.5 DISP RELSCF=0.0001 CHARGE=1
 Title: ASE calculation

   ATOM   CHEMICAL          X               Y               Z
  NUMBER   SYMBOL      (ANGSTROMS)     (ANGSTROMS)     (ANGSTROMS)

     1       C         -2.41226268  *  -0.76773747  *   1.01806461  *
     2       O         -1.10352757  *  -0.25296108  *   1.19234168  *
     3       C         -0.29558952  *  -0.10997649  *   0.06005515  *
     4       C         -0.95440457  *   0.63373308  *  -1.11222926  *
     5       O         -0.85648242  *   2.01494187  *  -0.87350539  *
     6       C          0.30181914  *  -1.49546221  *  -0.35405593  *
     7       C          1.71754577  *  -1.44713676  *  -0.01682167  *
     8       C          2.06844228  *  -0.19186246  *   0.55584303  *
     9       C          0.92553041  *   0.68446133  *   0.62021115  *
    10       H         -2.72710945  *  -0.94481871  *   2.06165363  *
    11       H         -3.06704924  *  -0.01916047  *   0.55938856  *
    12       H         -2.41827036  *  -1.70448801  *   0.45723624  *
    13       H         -2.00314167  *   0.32973347  *  -1.27929418  *
    14       H         -0.39469444  *   0.50087109  *  -2.06165363  *
    15       H         -1.58303942  *   2.32942032  *  -0.28596721  *
    16       H         -0.23155030  *  -2.32942032  *   0.18349381  *
    17       H          0.10612272  *  -1.76610460  *  -1.42028536  *
    18       H          2.40595119  *  -2.27491205  *  -0.18768078  *
    19       H          3.06704924  *   0.08439865  *   0.90198746  *
    20       H          1.06261043  *   1.67977550  *   0.09069803  *
    21       H          0.70357580  *   1.08910303  *   1.65319711  *



          CARTESIAN COORDINATES 

    NO.       ATOM           X           Y           Z

     1         C         -2.4123     -0.7677      1.0181
     2         O         -1.1035     -0.2530      1.1923
     3         C         -0.2956     -0.1100      0.0601
     4         C         -0.9544      0.6337     -1.1122
     5         O         -0.8565      2.0149     -0.8735
     6         C          0.3018     -1.4955     -0.3541
     7         C          1.7175     -1.4471     -0.0168
     8         C          2.0684     -0.1919      0.5558
     9         C          0.9255      0.6845      0.6202
    10         H         -2.7271     -0.9448      2.0617
    11         H         -3.0670     -0.0192      0.5594
    12         H         -2.4183     -1.7045      0.4572
    13         H         -2.0031      0.3297     -1.2793
    14         H         -0.3947      0.5009     -2.0617
    15         H         -1.5830      2.3294     -0.2860
    16         H         -0.2316     -2.3294      0.1835
    17         H          0.1061     -1.7661     -1.4203
    18         H          2.4060     -2.2749     -0.1877
    19         H          3.0670      0.0844      0.9020
    20         H          1.0626      1.6798      0.0907
    21         H          0.7036      1.0891      1.6532

 General Reference for PM7:
 "Optimization of Parameters for Semiempirical Methods VI: More Modifications to the 
 NDDO Approximations and Re-optimization of Parameters", J. J. P. Stewart, J. Mol. Mod., 1:32, 19 (2013)
 https://link.springer.com/article/10.1007/s00894-012-1667-x

           Empirical Formula: C7 H12 O2  =    21 atoms



      MOLECULAR POINT GROUP   :   C1  


          UHF CALCULATION, NO. OF ALPHA ELECTRONS =   26
                           NO. OF BETA  ELECTRONS =   25
  SCF CRITERION =    0.1000E-07

 -------------------------------------------------------------------------------
 PM7 1SCF GRADIENTS EPS=37.5 DISP RELSCF=0.0001 CHARGE=1
 Title: ASE calculation



     1SCF WAS SPECIFIED, SO BFGS WAS NOT USED                 
     SCF FIELD WAS ACHIEVED                                   


                              PM7 CALCULATION
                                                       MOPAC v23.2 Linux
                                                       Fri Sep 19 21:44:44 2025




          FINAL HEAT OF FORMATION =         67.51014 KCAL/MOL =     282.46243 KJ/MOL

          TOTAL ENERGY            =     -37027.47231 KCAL/MOL = ELECTRONIC ENERGY + CORE-CORE REPULSION + SOLVATION ENERGY
          ENERGY OF ATOMS         =      37097.27293 KCAL/MOL
                              SUM =         69.80062 KCAL/MOL
          DISPERSION ENERGY       =         -2.29048 KCAL/MOL
                              SUM =         67.51014 KCAL/MOL = FINAL HEAT OF FORMATION

          VAN DER WAALS AREA      =        164.26 SQUARE ANGSTROMS


          TOTAL ENERGY            =      -1605.66317 EV
          ELECTRONIC ENERGY       =      -2535.33250 EV 
          CORE-CORE REPULSION     =        929.66933 EV

          DIELECTRIC ENERGY       =         -2.57182 EV
          COSMO AREA              =        164.26 SQUARE ANGSTROMS
          COSMO VOLUME            =        167.43 CUBIC ANGSTROMS

          GRADIENT NORM           =         20.95571          =       4.57291 PER ATOM
          IONIZATION POTENTIAL    =         10.624804 EV
          ALPHA SOMO LUMO (EV)    =        -10.625 -1.493
          BETA  SOMO LUMO (EV)    =        -10.629 -3.343
          NO. OF ALPHA ELECTRONS  =         26
          NO. OF BETA  ELECTRONS  =         25
          MOLECULAR WEIGHT        =        128.1706         POINT GROUP:  C1  

          MOLECULAR DIMENSIONS (Angstroms)

            Atom       Atom       Distance
            H    19    H    11     6.14453
            H    16    H    15     4.69786
            H    10    H    14     4.11397


          SCF CALCULATIONS        =          2

          WALL-CLOCK TIME         =      1.102 SECONDS
          COMPUTATION TIME        =      0.800 SECONDS

          LARGEST ATOMIC GRADIENTS

          Atom     Label                     Cartesian Gradients           Cartesian Coordinates       |Gradient|
                                           X          Y          Z        X          Y          Z

             9       C                   7.837     -6.995     -0.835    0.92553    0.68446    0.62021     10.538
             3       C                  -7.868      1.417      5.012   -0.29559   -0.10998    0.06006      9.436
             5       O                   4.011     -5.299      2.763   -0.85648    2.01494   -0.87351      7.198
             6       C                   4.529     -4.165     -3.022    0.30182   -1.49546   -0.35406      6.855
             2       O                   5.267     -0.332     -1.678   -1.10353   -0.25296    1.19234      5.538
             4       C                  -1.732      4.416     -1.088   -0.95440    0.63373   -1.11223      4.867
            20       H                  -2.490      3.796     -1.632    1.06261    1.67978    0.09070      4.824
             1       C                  -0.425     -0.779     -4.193   -2.41226   -0.76774    1.01806      4.286
             8       C                  -3.089      2.476      0.537    2.06844   -0.19186    0.55584      3.995
            21       H                  -2.576      1.329      1.231    0.70358    1.08910    1.65320      3.149



       FINAL  POINT  AND  DERIVATIVES

   PARAMETER     ATOM    TYPE            VALUE        GRADIENT
      1          1  C    CARTESIAN X    -2.412263     -0.425099  KCAL/ANGSTROM
      2          1  C    CARTESIAN Y    -0.767737     -0.779464  KCAL/ANGSTROM
      3          1  C    CARTESIAN Z     1.018065     -4.192806  KCAL/ANGSTROM
      4          2  O    CARTESIAN X    -1.103528      5.267466  KCAL/ANGSTROM
      5          2  O    CARTESIAN Y    -0.252961     -0.331719  KCAL/ANGSTROM
      6          2  O    CARTESIAN Z     1.192342     -1.678437  KCAL/ANGSTROM
      7          3  C    CARTESIAN X    -0.295590     -7.868479  KCAL/ANGSTROM
      8          3  C    CARTESIAN Y    -0.109976      1.416877  KCAL/ANGSTROM
      9          3  C    CARTESIAN Z     0.060055      5.012045  KCAL/ANGSTROM
     10          4  C    CARTESIAN X    -0.954405     -1.731996  KCAL/ANGSTROM
     11          4  C    CARTESIAN Y     0.633733      4.416212  KCAL/ANGSTROM
     12          4  C    CARTESIAN Z    -1.112229     -1.088256  KCAL/ANGSTROM
     13          5  O    CARTESIAN X    -0.856482      4.010808  KCAL/ANGSTROM
     14          5  O    CARTESIAN Y     2.014942     -5.299486  KCAL/ANGSTROM
     15          5  O    CARTESIAN Z    -0.873505      2.763340  KCAL/ANGSTROM
     16          6  C    CARTESIAN X     0.301819      4.528667  KCAL/ANGSTROM
     17          6  C    CARTESIAN Y    -1.495462     -4.164611  KCAL/ANGSTROM
     18          6  C    CARTESIAN Z    -0.354056     -3.021848  KCAL/ANGSTROM
     19          7  C    CARTESIAN X     1.717546     -0.036041  KCAL/ANGSTROM
     20          7  C    CARTESIAN Y    -1.447137     -0.188660  KCAL/ANGSTROM
     21          7  C    CARTESIAN Z    -0.016822      0.218808  KCAL/ANGSTROM
     22          8  C    CARTESIAN X     2.068442     -3.089385  KCAL/ANGSTROM
     23          8  C    CARTESIAN Y    -0.191862      2.475895  KCAL/ANGSTROM
     24          8  C    CARTESIAN Z     0.555843      0.536894  KCAL/ANGSTROM
     25          9  C    CARTESIAN X     0.925530      7.837156  KCAL/ANGSTROM
     26          9  C    CARTESIAN Y     0.684461     -6.994964  KCAL/ANGSTROM
     27          9  C    CARTESIAN Z     0.620211     -0.835333  KCAL/ANGSTROM
     28         10  H    CARTESIAN X    -2.727109      0.150161  KCAL/ANGSTROM
     29         10  H    CARTESIAN Y    -0.944819      0.712825  KCAL/ANGSTROM
     30         10  H    CARTESIAN Z     2.061654      1.800100  KCAL/ANGSTROM
     31         11  H    CARTESIAN X    -3.067049     -0.646295  KCAL/ANGSTROM
     32         11  H    CARTESIAN Y    -0.019160      0.083135  KCAL/ANGSTROM
     33         11  H    CARTESIAN Z     0.559389      0.934109  KCAL/ANGSTROM
     34         12  H    CARTESIAN X    -2.418270     -0.436870  KCAL/ANGSTROM
     35         12  H    CARTESIAN Y    -1.704488      0.332152  KCAL/ANGSTROM
     36         12  H    CARTESIAN Z     0.457236      1.012254  KCAL/ANGSTROM
     37         13  H    CARTESIAN X    -2.003142      0.020637  KCAL/ANGSTROM
     38         13  H    CARTESIAN Y     0.329733     -0.270765  KCAL/ANGSTROM
     39         13  H    CARTESIAN Z    -1.279294     -0.217162  KCAL/ANGSTROM
     40         14  H    CARTESIAN X    -0.394694     -0.840034  KCAL/ANGSTROM
     41         14  H    CARTESIAN Y     0.500871      1.601483  KCAL/ANGSTROM
     42         14  H    CARTESIAN Z    -2.061654     -0.528211  KCAL/ANGSTROM
     43         15  H    CARTESIAN X    -1.583039     -0.255105  KCAL/ANGSTROM
     44         15  H    CARTESIAN Y     2.329420      0.456208  KCAL/ANGSTROM
     45         15  H    CARTESIAN Z    -0.285967     -2.187720  KCAL/ANGSTROM
     46         16  H    CARTESIAN X    -0.231550     -0.889247  KCAL/ANGSTROM
     47         16  H    CARTESIAN Y    -2.329420      0.599720  KCAL/ANGSTROM
     48         16  H    CARTESIAN Z     0.183494      1.025301  KCAL/ANGSTROM
     49         17  H    CARTESIAN X     0.106123     -0.319747  KCAL/ANGSTROM
     50         17  H    CARTESIAN Y    -1.766105      0.427574  KCAL/ANGSTROM
     51         17  H    CARTESIAN Z    -1.420285      0.390810  KCAL/ANGSTROM
     52         18  H    CARTESIAN X     2.405951     -0.208249  KCAL/ANGSTROM
     53         18  H    CARTESIAN Y    -2.274912     -0.125707  KCAL/ANGSTROM
     54         18  H    CARTESIAN Z    -0.187681     -0.004766  KCAL/ANGSTROM
     55         19  H    CARTESIAN X     3.067049     -0.001903  KCAL/ANGSTROM
     56         19  H    CARTESIAN Y     0.084399      0.508434  KCAL/ANGSTROM
     57         19  H    CARTESIAN Z     0.901987      0.461789  KCAL/ANGSTROM
     58         20  H    CARTESIAN X     1.062610     -2.490287  KCAL/ANGSTROM
     59         20  H    CARTESIAN Y     1.679775      3.795676  KCAL/ANGSTROM
     60         20  H    CARTESIAN Z     0.090698     -1.632028  KCAL/ANGSTROM
     61         21  H    CARTESIAN X     0.703576     -2.576158  KCAL/ANGSTROM
     62         21  H    CARTESIAN Y     1.089103      1.329183  KCAL/ANGSTROM
     63         21  H    CARTESIAN Z     1.653197      1.231110  KCAL/ANGSTROM




   ATOM   CHEMICAL          X               Y               Z
  NUMBER   SYMBOL      (ANGSTROMS)     (ANGSTROMS)     (ANGSTROMS)

     1       C         -2.41226268  *  -0.76773747  *   1.01806461  *
     2       O         -1.10352757  *  -0.25296108  *   1.19234168  *
     3       C         -0.29558952  *  -0.10997649  *   0.06005515  *
     4       C         -0.95440457  *   0.63373308  *  -1.11222926  *
     5       O         -0.85648242  *   2.01494187  *  -0.87350539  *
     6       C          0.30181914  *  -1.49546221  *  -0.35405593  *
     7       C          1.71754577  *  -1.44713676  *  -0.01682167  *
     8       C          2.06844228  *  -0.19186246  *   0.55584303  *
     9       C          0.92553041  *   0.68446133  *   0.62021115  *
    10       H         -2.72710945  *  -0.94481871  *   2.06165363  *
    11       H         -3.06704924  *  -0.01916047  *   0.55938856  *
    12       H         -2.41827036  *  -1.70448801  *   0.45723624  *
    13       H         -2.00314167  *   0.32973347  *  -1.27929418  *
    14       H         -0.39469444  *   0.50087109  *  -2.06165363  *
    15       H         -1.58303942  *   2.32942032  *  -0.28596721  *
    16       H         -0.23155030  *  -2.32942032  *   0.18349381  *
    17       H          0.10612272  *  -1.76610460  *  -1.42028536  *
    18       H          2.40595119  *  -2.27491205  *  -0.18768078  *
    19       H          3.06704924  *   0.08439865  *   0.90198746  *
    20       H          1.06261043  *   1.67977550  *   0.09069803  *
    21       H          0.70357580  *   1.08910303  *   1.65319711  *

                             CARTESIAN COORDINATES

   1    C       -2.412262677    -0.767737474     1.018064612
   2    O       -1.103527574    -0.252961084     1.192341681
   3    C       -0.295589516    -0.109976487     0.060055153
   4    C       -0.954404573     0.633733076    -1.112229259
   5    O       -0.856482417     2.014941866    -0.873505392
   6    C        0.301819137    -1.495462209    -0.354055930
   7    C        1.717545768    -1.447136762    -0.016821674
   8    C        2.068442276    -0.191862461     0.555843030
   9    C        0.925530410     0.684461326     0.620211149
  10    H       -2.727109451    -0.944818710     2.061653631
  11    H       -3.067049236    -0.019160475     0.559388556
  12    H       -2.418270358    -1.704488006     0.457236240
  13    H       -2.003141670     0.329733466    -1.279294180
  14    H       -0.394694444     0.500871092    -2.061653631
  15    H       -1.583039424     2.329420317    -0.285967214
  16    H       -0.231550301    -2.329420317     0.183493810
  17    H        0.106122725    -1.766104604    -1.420285357
  18    H        2.405951192    -2.274912050    -0.187680785
  19    H        3.067049236     0.084398651     0.901987464
  20    H        1.062610435     1.679775498     0.090698033
  21    H        0.703575795     1.089103033     1.653197108


           Empirical Formula: C7 H12 O2  =    21 atoms



      MOLECULAR POINT GROUP   :   C1  


          ALPHA EIGENVALUES  
 -32.35611 -30.15535 -29.58738 -26.39196 -26.27761 -24.72151 -23.10174 -20.26150
 -20.16270 -18.68372 -17.79063 -17.53786 -16.01156 -15.71285 -15.34236 -14.94585
 -14.66827 -14.34115 -14.19671 -13.87907 -13.20411 -12.69824 -12.42011 -11.59131
 -11.05184 -10.62480  -1.49266   1.55116   1.98854   2.17823   2.55974   2.93569
   3.09087   3.23765   3.40911   4.06740   4.43851   4.49931   4.59545   4.76582
   4.94254   5.33600   5.34904   5.44763   5.49132   5.55752   5.84628   6.08826


           BETA EIGENVALUES 
 -32.23470 -30.08271 -29.57977 -26.30119 -26.16220 -24.70306 -22.97216 -20.18975
 -20.03711 -18.60142 -17.70807 -17.46579 -15.97550 -15.66093 -15.20886 -14.58483
 -14.47042 -14.24387 -13.93872 -13.69239 -13.17835 -12.67359 -12.40424 -11.57457
 -10.62856  -3.34330  -0.07456   1.57587   2.01095   2.25424   2.62782   2.99192
   3.14939   3.36961   3.49390   4.10071   4.53967   4.59962   4.67670   4.84848
   4.94530   5.34840   5.37215   5.45372   5.52306   5.59173   5.84885   6.08959


              NET ATOMIC CHARGES AND DIPOLE CONTRIBUTIONS

  ATOM NO.   TYPE          CHARGE      No. of ELECS.   s-Pop       p-Pop       
    1          C          -0.192417        4.1924     1.08701     3.10540
    2          O          -0.449396        6.4494     1.86857     4.58083
    3          C           0.254914        3.7451     1.09977     2.64531
    4          C          -0.050717        4.0507     1.09646     2.95426
    5          O          -0.599696        6.5997     1.84415     4.75555
    6          C          -0.422278        4.4223     1.07948     3.34280
    7          C           0.137799        3.8622     1.16474     2.69746
    8          C           0.145686        3.8543     1.16320     2.69111
    9          C          -0.395506        4.3955     1.07400     3.32150
   10          H           0.163371        0.8366     0.83663
   11          H           0.143536        0.8565     0.85646
   12          H           0.140096        0.8599     0.85990
   13          H           0.155218        0.8448     0.84478
   14          H           0.167838        0.8322     0.83216
   15          H           0.365014        0.6350     0.63499
   16          H           0.248523        0.7515     0.75148
   17          H           0.239669        0.7603     0.76033
   18          H           0.210051        0.7899     0.78995
   19          H           0.213911        0.7861     0.78609
   20          H           0.266400        0.7336     0.73360
   21          H           0.257985        0.7420     0.74201
 DIPOLE           X         Y         Z       TOTAL
 POINT-CHG.     5.109    -4.617    -0.620     6.914
 HYBRID        -0.081     0.252     0.447     0.520
 SUM            5.028    -4.365    -0.173     6.660


          ATOMIC ORBITAL ELECTRON POPULATIONS

     Atom    s        px        py        pz   
    1  C   1.08701   0.82877   1.10540   1.17123
    2  O   1.86857   1.33651   1.86696   1.37736
    3  C   1.09977   0.87458   0.90381   0.86693
    4  C   1.09646   1.13841   0.77577   1.04008
    5  O   1.84415   1.64743   1.32846   1.77965
    6  C   1.07948   1.02667   1.11915   1.19698
    7  C   1.16474   1.01202   0.99107   0.69438
    8  C   1.16320   1.06368   0.93384   0.69359
    9  C   1.07400   1.00313   1.11403   1.20435
   10  H   0.83663
   11  H   0.85646
   12  H   0.85990
   13  H   0.84478
   14  H   0.83216
   15  H   0.63499
   16  H   0.75148
   17  H   0.76033
   18  H   0.78995
   19  H   0.78609
   20  H   0.73360
   21  H   0.74201


                    (SZ)    =    0.500000
                    (S**2)  =    0.751540


          ATOMIC ORBITAL SPIN POPULATIONS

    Atom   Total    s     px     py     pz   
         Atomic
    1  C  0.0006 -0.000  0.000  0.000 -0.000
    2  O  0.0031  0.000  0.000 -0.000  0.002
    3  C -0.0020 -0.000 -0.001 -0.000 -0.001
    4  C  0.0019  0.000  0.001  0.000  0.000
    5  O  0.0001  0.000  0.000 -0.000  0.000
    6  C  0.0053 -0.003 -0.012  0.002  0.019
    7  C  0.4626  0.009  0.030  0.062  0.362
    8  C  0.4137  0.007  0.029  0.053  0.325
    9  C  0.0148 -0.003 -0.005 -0.004  0.027
   10  H  0.0001  0.000
   11  H -0.0000 -0.000
   12  H -0.0001 -0.000
   13  H  0.0001  0.000
   14  H -0.0000 -0.000
   15  H  0.0000  0.000
   16  H  0.0309  0.031
   17  H  0.0273  0.027
   18  H -0.0129 -0.013
   19  H -0.0116 -0.012
   20  H  0.0338  0.034
   21  H  0.0323  0.032

 **********************
 *                    *
 * JOB ENDED NORMALLY *
 *                    *
 **********************



 TOTAL JOB TIME:             1.54 SECONDS

 == MOPAC DONE ==
