 *******************************************************************************
 **                                                                           **
 **                              MOPAC v23.2                                  **
 **                                                                           **
 *******************************************************************************
 **          Digital Object Identifier (DOI): 10.5281/zenodo.6511958          **
 **    Visit the DOI location for information on how to cite this program.    **
 *******************************************************************************

                              PM7 CALCULATION RESULTS

 *******************************************************************************
 *  CALCULATION DONE: (MAX THREADS = 40)             Fri Sep 19 21:35:03 2025  *
 *  PM7        - The PM7 Hamiltonian to be used
 *  1SCF       - DO 1 SCF AND THEN STOP 
 *  T=         - A TIME OF 172800.0 SECONDS REQUESTED
 *  DUMP=N     - RESTART FILE WRITTEN EVERY 7200.0 SECONDS REQUESTED
 *  RELSCF     - DEFAULT SCF CRITERION MULTIPLIED BY 0.0001
 *              (DEFAULT SCF CRITERION = 0.00010)
 *  GRADIENTS  - ALL GRADIENTS TO BE PRINTED
 *  DISP       - PRINT DISPERSION AND HYDROGEN BOND ENERGIES
 *******************************************************************************
PM7 1SCF GRADIENTS DISP RELSCF=0.0001
 Title: ASE calculation

   ATOM   CHEMICAL          X               Y               Z
  NUMBER   SYMBOL      (ANGSTROMS)     (ANGSTROMS)     (ANGSTROMS)

     1       C         -2.66580236  *  -0.22915369  *   1.20092694  *
     2       C         -2.82878981  *   0.95217198  *   0.42716383  *
     3       C         -1.76855399  *   1.01286580  *  -0.47779693  *
     4       N         -0.97854880  *  -0.11101963  *  -0.28019955  *
     5       C          0.27627037  *  -0.38577150  *  -0.96227211  *
     6       C          1.44356450  *   0.24695278  *  -0.22401005  *
     7       C          2.83759559  *  -0.28041925  *  -0.48422818  *
     8       C          2.17306741  *  -0.54025079  *   0.84411993  *
     9       C         -1.50898250  *  -0.86867352  *   0.75419465  *
    10       H         -3.31665207  *  -0.56183743  *   1.97846985  *
    11       H         -3.62344850  *   1.65783286  *   0.52416996  *
    12       H         -1.54637675  *   1.74615784  *  -1.22287134  *
    13       H          0.41098018  *  -1.48962137  *  -1.05507996  *
    14       H          0.22985272  *   0.01448867  *  -2.00468650  *
    15       H          1.30556188  *   1.32347291  *  -0.06530711  *
    16       H          2.98828764  *  -1.10020077  *  -1.18083239  *
    17       H          3.67018074  *   0.41557441  *  -0.54823417  *
    18       H          2.52356099  *  -0.02776025  *   1.73674289  *
    19       H          1.84550485  *  -1.54333759  *   1.10077433  *
    20       H         -1.05707693  *  -1.77771251  *   1.08858784  *



          CARTESIAN COORDINATES 

    NO.       ATOM           X           Y           Z

     1         C         -2.6658     -0.2292      1.2009
     2         C         -2.8288      0.9522      0.4272
     3         C         -1.7686      1.0129     -0.4778
     4         N         -0.9785     -0.1110     -0.2802
     5         C          0.2763     -0.3858     -0.9623
     6         C          1.4436      0.2470     -0.2240
     7         C          2.8376     -0.2804     -0.4842
     8         C          2.1731     -0.5403      0.8441
     9         C         -1.5090     -0.8687      0.7542
    10         H         -3.3167     -0.5618      1.9785
    11         H         -3.6234      1.6578      0.5242
    12         H         -1.5464      1.7462     -1.2229
    13         H          0.4110     -1.4896     -1.0551
    14         H          0.2299      0.0145     -2.0047
    15         H          1.3056      1.3235     -0.0653
    16         H          2.9883     -1.1002     -1.1808
    17         H          3.6702      0.4156     -0.5482
    18         H          2.5236     -0.0278      1.7367
    19         H          1.8455     -1.5433      1.1008
    20         H         -1.0571     -1.7777      1.0886

 General Reference for PM7:
 "Optimization of Parameters for Semiempirical Methods VI: More Modifications to the 
 NDDO Approximations and Re-optimization of Parameters", J. J. P. Stewart, J. Mol. Mod., 1:32, 19 (2013)
 https://link.springer.com/article/10.1007/s00894-012-1667-x

           Empirical Formula: C8 H11 N  =    20 atoms



      MOLECULAR POINT GROUP   :   C1  


      RHF CALCULATION, NO. OF DOUBLY OCCUPIED LEVELS = 24

  SCF CRITERION =    0.1000E-07

 -------------------------------------------------------------------------------
 PM7 1SCF GRADIENTS DISP RELSCF=0.0001
 Title: ASE calculation



     1SCF WAS SPECIFIED, SO BFGS WAS NOT USED                 
     SCF FIELD WAS ACHIEVED                                   


                              PM7 CALCULATION
                                                       MOPAC v23.2 Linux
                                                       Fri Sep 19 21:35:04 2025




          FINAL HEAT OF FORMATION =         43.47632 KCAL/MOL =     181.90492 KJ/MOL

          TOTAL ENERGY            =     -30348.54402 KCAL/MOL = ELECTRONIC ENERGY + CORE-CORE REPULSION
          ENERGY OF ATOMS         =      30394.11925 KCAL/MOL
                              SUM =         45.57523 KCAL/MOL
          DISPERSION ENERGY       =         -2.09891 KCAL/MOL
                              SUM =         43.47632 KCAL/MOL = FINAL HEAT OF FORMATION



          TOTAL ENERGY            =      -1316.03743 EV
          ELECTRONIC ENERGY       =      -6709.12011 EV 
          CORE-CORE REPULSION     =       5393.08268 EV
          COSMO AREA              =        171.65 SQUARE ANGSTROMS
          COSMO VOLUME            =        170.81 CUBIC ANGSTROMS

          GRADIENT NORM           =          0.88593          =       0.19810 PER ATOM
          IONIZATION POTENTIAL    =          8.792827 EV
          HOMO LUMO ENERGIES (EV) =         -8.793  1.143
          NO. OF FILLED LEVELS    =         24
          MOLECULAR WEIGHT        =        121.1816         POINT GROUP:  C1  

          MOLECULAR DIMENSIONS (Angstroms)

            Atom       Atom       Distance
            H    17    H    10     7.49369
            H    12    H    19     4.89109
            H    13    H    18     3.34067


          SCF CALCULATIONS        =          1

          WALL-CLOCK TIME         =      0.586 SECONDS
          COMPUTATION TIME        =      0.573 SECONDS

          LARGEST ATOMIC GRADIENTS

          Atom     Label                     Cartesian Gradients           Cartesian Coordinates       |Gradient|
                                           X          Y          Z        X          Y          Z

             7       C                   0.258     -0.197      0.303    2.83760   -0.28042   -0.48423      0.444
            12       H                  -0.089     -0.280      0.067   -1.54638    1.74616   -1.22287      0.301
            20       H                  -0.153      0.090     -0.218   -1.05708   -1.77771    1.08859      0.281
             5       C                  -0.122      0.047     -0.227    0.27627   -0.38577   -0.96227      0.262
            17       H                   0.104      0.058     -0.198    3.67018    0.41557   -0.54823      0.231
            15       H                  -0.026      0.164      0.160    1.30556    1.32347   -0.06531      0.231
            14       H                   0.082      0.142     -0.132    0.22985    0.01449   -2.00469      0.211
            13       H                  -0.010      0.108      0.180    0.41098   -1.48962   -1.05508      0.210
             8       C                   0.151     -0.045      0.011    2.17307   -0.54025    0.84412      0.158
             4       N                  -0.010     -0.061     -0.134   -0.97855   -0.11102   -0.28020      0.147



       FINAL  POINT  AND  DERIVATIVES

   PARAMETER     ATOM    TYPE            VALUE        GRADIENT
      1          1  C    CARTESIAN X    -2.665802     -0.124154  KCAL/ANGSTROM
      2          1  C    CARTESIAN Y    -0.229154      0.034042  KCAL/ANGSTROM
      3          1  C    CARTESIAN Z     1.200927      0.063231  KCAL/ANGSTROM
      4          2  C    CARTESIAN X    -2.828790     -0.117360  KCAL/ANGSTROM
      5          2  C    CARTESIAN Y     0.952172     -0.005320  KCAL/ANGSTROM
      6          2  C    CARTESIAN Z     0.427164      0.072923  KCAL/ANGSTROM
      7          3  C    CARTESIAN X    -1.768554     -0.040266  KCAL/ANGSTROM
      8          3  C    CARTESIAN Y     1.012866     -0.025397  KCAL/ANGSTROM
      9          3  C    CARTESIAN Z    -0.477797      0.059749  KCAL/ANGSTROM
     10          4  N    CARTESIAN X    -0.978549     -0.010087  KCAL/ANGSTROM
     11          4  N    CARTESIAN Y    -0.111020     -0.060886  KCAL/ANGSTROM
     12          4  N    CARTESIAN Z    -0.280200     -0.133841  KCAL/ANGSTROM
     13          5  C    CARTESIAN X     0.276270     -0.121577  KCAL/ANGSTROM
     14          5  C    CARTESIAN Y    -0.385772      0.046746  KCAL/ANGSTROM
     15          5  C    CARTESIAN Z    -0.962272     -0.226773  KCAL/ANGSTROM
     16          6  C    CARTESIAN X     1.443564     -0.037035  KCAL/ANGSTROM
     17          6  C    CARTESIAN Y     0.246953     -0.021287  KCAL/ANGSTROM
     18          6  C    CARTESIAN Z    -0.224010     -0.067520  KCAL/ANGSTROM
     19          7  C    CARTESIAN X     2.837596      0.258476  KCAL/ANGSTROM
     20          7  C    CARTESIAN Y    -0.280419     -0.196505  KCAL/ANGSTROM
     21          7  C    CARTESIAN Z    -0.484228      0.302942  KCAL/ANGSTROM
     22          8  C    CARTESIAN X     2.173067      0.150976  KCAL/ANGSTROM
     23          8  C    CARTESIAN Y    -0.540251     -0.045056  KCAL/ANGSTROM
     24          8  C    CARTESIAN Z     0.844120      0.010936  KCAL/ANGSTROM
     25          9  C    CARTESIAN X    -1.508982     -0.037608  KCAL/ANGSTROM
     26          9  C    CARTESIAN Y    -0.868674      0.040436  KCAL/ANGSTROM
     27          9  C    CARTESIAN Z     0.754195      0.017234  KCAL/ANGSTROM
     28         10  H    CARTESIAN X    -3.316652      0.033814  KCAL/ANGSTROM
     29         10  H    CARTESIAN Y    -0.561837      0.053536  KCAL/ANGSTROM
     30         10  H    CARTESIAN Z     1.978470     -0.013230  KCAL/ANGSTROM
     31         11  H    CARTESIAN X    -3.623448      0.071756  KCAL/ANGSTROM
     32         11  H    CARTESIAN Y     1.657833     -0.066859  KCAL/ANGSTROM
     33         11  H    CARTESIAN Z     0.524170      0.015378  KCAL/ANGSTROM
     34         12  H    CARTESIAN X    -1.546377     -0.088581  KCAL/ANGSTROM
     35         12  H    CARTESIAN Y     1.746158     -0.279612  KCAL/ANGSTROM
     36         12  H    CARTESIAN Z    -1.222871      0.066550  KCAL/ANGSTROM
     37         13  H    CARTESIAN X     0.410980     -0.009671  KCAL/ANGSTROM
     38         13  H    CARTESIAN Y    -1.489621      0.107932  KCAL/ANGSTROM
     39         13  H    CARTESIAN Z    -1.055080      0.179938  KCAL/ANGSTROM
     40         14  H    CARTESIAN X     0.229853      0.081675  KCAL/ANGSTROM
     41         14  H    CARTESIAN Y     0.014489      0.142054  KCAL/ANGSTROM
     42         14  H    CARTESIAN Z    -2.004686     -0.132496  KCAL/ANGSTROM
     43         15  H    CARTESIAN X     1.305562     -0.025980  KCAL/ANGSTROM
     44         15  H    CARTESIAN Y     1.323473      0.164261  KCAL/ANGSTROM
     45         15  H    CARTESIAN Z    -0.065307      0.159900  KCAL/ANGSTROM
     46         16  H    CARTESIAN X     2.988288     -0.061338  KCAL/ANGSTROM
     47         16  H    CARTESIAN Y    -1.100201     -0.107345  KCAL/ANGSTROM
     48         16  H    CARTESIAN Z    -1.180832     -0.004773  KCAL/ANGSTROM
     49         17  H    CARTESIAN X     3.670181      0.104214  KCAL/ANGSTROM
     50         17  H    CARTESIAN Y     0.415574      0.057876  KCAL/ANGSTROM
     51         17  H    CARTESIAN Z    -0.548234     -0.197911  KCAL/ANGSTROM
     52         18  H    CARTESIAN X     2.523561      0.044708  KCAL/ANGSTROM
     53         18  H    CARTESIAN Y    -0.027760      0.110254  KCAL/ANGSTROM
     54         18  H    CARTESIAN Z     1.736743      0.006880  KCAL/ANGSTROM
     55         19  H    CARTESIAN X     1.845505      0.080606  KCAL/ANGSTROM
     56         19  H    CARTESIAN Y    -1.543338     -0.039014  KCAL/ANGSTROM
     57         19  H    CARTESIAN Z     1.100774      0.038430  KCAL/ANGSTROM
     58         20  H    CARTESIAN X    -1.057077     -0.152568  KCAL/ANGSTROM
     59         20  H    CARTESIAN Y    -1.777713      0.090141  KCAL/ANGSTROM
     60         20  H    CARTESIAN Z     1.088588     -0.217550  KCAL/ANGSTROM




   ATOM   CHEMICAL          X               Y               Z
  NUMBER   SYMBOL      (ANGSTROMS)     (ANGSTROMS)     (ANGSTROMS)

     1       C         -2.66580236  *  -0.22915369  *   1.20092694  *
     2       C         -2.82878981  *   0.95217198  *   0.42716383  *
     3       C         -1.76855399  *   1.01286580  *  -0.47779693  *
     4       N         -0.97854880  *  -0.11101963  *  -0.28019955  *
     5       C          0.27627037  *  -0.38577150  *  -0.96227211  *
     6       C          1.44356450  *   0.24695278  *  -0.22401005  *
     7       C          2.83759559  *  -0.28041925  *  -0.48422818  *
     8       C          2.17306741  *  -0.54025079  *   0.84411993  *
     9       C         -1.50898250  *  -0.86867352  *   0.75419465  *
    10       H         -3.31665207  *  -0.56183743  *   1.97846985  *
    11       H         -3.62344850  *   1.65783286  *   0.52416996  *
    12       H         -1.54637675  *   1.74615784  *  -1.22287134  *
    13       H          0.41098018  *  -1.48962137  *  -1.05507996  *
    14       H          0.22985272  *   0.01448867  *  -2.00468650  *
    15       H          1.30556188  *   1.32347291  *  -0.06530711  *
    16       H          2.98828764  *  -1.10020077  *  -1.18083239  *
    17       H          3.67018074  *   0.41557441  *  -0.54823417  *
    18       H          2.52356099  *  -0.02776025  *   1.73674289  *
    19       H          1.84550485  *  -1.54333759  *   1.10077433  *
    20       H         -1.05707693  *  -1.77771251  *   1.08858784  *

                             CARTESIAN COORDINATES

   1    C       -2.665802360    -0.229153691     1.200926944
   2    C       -2.828789810     0.952171983     0.427163830
   3    C       -1.768553989     1.012865795    -0.477796935
   4    N       -0.978548797    -0.111019632    -0.280199554
   5    C        0.276270369    -0.385771500    -0.962272113
   6    C        1.443564496     0.246952782    -0.224010054
   7    C        2.837595588    -0.280419249    -0.484228182
   8    C        2.173067408    -0.540250790     0.844119934
   9    C       -1.508982499    -0.868673522     0.754194652
  10    H       -3.316652072    -0.561837431     1.978469852
  11    H       -3.623448497     1.657832861     0.524169964
  12    H       -1.546376752     1.746157837    -1.222871340
  13    H        0.410980175    -1.489621368    -1.055079963
  14    H        0.229852718     0.014488671    -2.004686496
  15    H        1.305561877     1.323472910    -0.065307106
  16    H        2.988287640    -1.100200772    -1.180832385
  17    H        3.670180739     0.415574414    -0.548234172
  18    H        2.523560994    -0.027760252     1.736742886
  19    H        1.845504846    -1.543337592     1.100774333
  20    H       -1.057076926    -1.777712507     1.088587845


           Empirical Formula: C8 H11 N  =    20 atoms



      MOLECULAR POINT GROUP   :   C1  


                  EIGENVALUES  
 -37.23316 -30.89924 -28.11809 -24.53608 -24.09027 -21.22713 -20.34287 -19.58044
 -19.35969 -18.03203 -16.82112 -16.27974 -14.84383 -14.25923 -13.84003 -13.54710
 -12.84097 -12.82046 -12.75789 -12.59110 -11.84539 -11.49175  -9.13979  -8.79283
   1.14344   1.80076   1.92142   2.33518   3.51662   3.99277   4.09275   4.47945
   4.50545   5.01017   5.16467   5.25433   5.55149   5.77251   5.79571   5.85779
   6.10402   6.13130   6.20761   6.47350   6.56814   6.77969   6.88006


              NET ATOMIC CHARGES AND DIPOLE CONTRIBUTIONS

  ATOM NO.   TYPE          CHARGE      No. of ELECS.   s-Pop       p-Pop       
    1          C          -0.223057        4.2231     1.07595     3.14711
    2          C          -0.219246        4.2192     1.07604     3.14321
    3          C          -0.107878        4.1079     1.07943     3.02845
    4          N          -0.209632        5.2096     1.51852     3.69112
    5          C          -0.085639        4.0856     1.06462     3.02102
    6          C          -0.178776        4.1788     1.05304     3.12573
    7          C          -0.315697        4.3157     1.05087     3.26483
    8          C          -0.307985        4.3080     1.05165     3.25634
    9          C          -0.100538        4.1005     1.07959     3.02094
   10          H           0.157420        0.8426     0.84258
   11          H           0.157098        0.8429     0.84290
   12          H           0.159018        0.8410     0.84098
   13          H           0.154715        0.8453     0.84528
   14          H           0.156422        0.8436     0.84358
   15          H           0.168509        0.8315     0.83149
   16          H           0.157081        0.8429     0.84292
   17          H           0.160401        0.8396     0.83960
   18          H           0.161633        0.8384     0.83837
   19          H           0.158060        0.8419     0.84194
   20          H           0.158091        0.8419     0.84191
 DIPOLE           X         Y         Z       TOTAL
 POINT-CHG.     2.346    -0.498    -1.186     2.676
 HYBRID         0.282    -0.119    -0.152     0.342
 SUM            2.628    -0.617    -1.338     3.013


          ATOMIC ORBITAL ELECTRON POPULATIONS

     Atom    s        px        py        pz   
    1  C   1.07595   1.04083   1.02387   1.08241
    2  C   1.07604   1.05683   1.05391   1.03247
    3  C   1.07943   0.98847   0.94194   1.09803
    4  N   1.51852   1.18483   1.21992   1.28636
    5  C   1.06462   0.85244   1.12670   1.04188
    6  C   1.05304   0.95238   1.09175   1.08161
    7  C   1.05087   1.03232   1.15789   1.07461
    8  C   1.05165   1.11422   1.13770   1.00442
    9  C   1.07959   1.02800   1.03938   0.95356
   10  H   0.84258
   11  H   0.84290
   12  H   0.84098
   13  H   0.84528
   14  H   0.84358
   15  H   0.83149
   16  H   0.84292
   17  H   0.83960
   18  H   0.83837
   19  H   0.84194
   20  H   0.84191

 **********************
 *                    *
 * JOB ENDED NORMALLY *
 *                    *
 **********************



 TOTAL JOB TIME:             1.11 SECONDS

 == MOPAC DONE ==
