 *******************************************************************************
 **                                                                           **
 **                              MOPAC v23.2                                  **
 **                                                                           **
 *******************************************************************************
 **          Digital Object Identifier (DOI): 10.5281/zenodo.6511958          **
 **    Visit the DOI location for information on how to cite this program.    **
 *******************************************************************************

                              PM7 CALCULATION RESULTS

 *******************************************************************************
 *  CALCULATION DONE: (MAX THREADS = 40)             Fri Sep 19 21:27:16 2025  *
 *  PM7        - The PM7 Hamiltonian to be used
 *  1SCF       - DO 1 SCF AND THEN STOP 
 *  T=         - A TIME OF 172800.0 SECONDS REQUESTED
 *  DUMP=N     - RESTART FILE WRITTEN EVERY 7200.0 SECONDS REQUESTED
 *  RELSCF     - DEFAULT SCF CRITERION MULTIPLIED BY 0.0001
 *              (DEFAULT SCF CRITERION = 0.00010)
 *  GRADIENTS  - ALL GRADIENTS TO BE PRINTED
 *  DISP       - PRINT DISPERSION AND HYDROGEN BOND ENERGIES
 *******************************************************************************
PM7 1SCF GRADIENTS DISP RELSCF=0.0001
 Title: ASE calculation

   ATOM   CHEMICAL          X               Y               Z
  NUMBER   SYMBOL      (ANGSTROMS)     (ANGSTROMS)     (ANGSTROMS)

     1       C         -2.54297678  *   1.20373132  *  -0.02682292  *
     2       C         -1.85191400  *   0.00656885  *  -0.69003777  *
     3       C         -2.68351478  *  -1.27072068  *  -0.52526398  *
     4       C         -0.51627254  *  -0.19375478  *  -0.07843323  *
     5       N         -0.08907628  *  -0.41665361  *   1.13936348  *
     6       C          1.31406551  *  -0.48873874  *   1.08497542  *
     7       C          1.69285827  *  -0.30502839  *  -0.23081385  *
     8       N          2.88248007  *  -0.17871162  *  -0.91106406  *
     9       O          0.55145551  *  -0.12410853  *  -0.99855711  *
    10       H         -1.96753329  *   2.12691406  *  -0.16410386  *
    11       H         -3.54243927  *   1.36498290  *  -0.44455549  *
    12       H         -2.65363167  *   1.04867976  *   1.05578629  *
    13       H         -1.72226430  *   0.22064140  *  -1.78579744  *
    14       H         -2.80281647  *  -1.53205543  *   0.53560509  *
    15       H         -3.68464561  *  -1.14871036  *  -0.95276173  *
    16       H         -2.20890478  *  -2.12658767  *  -1.01883065  *
    17       H          1.89096603  *  -0.64614926  *   1.97087654  *
    18       H          2.82817803  *  -0.14828223  *  -1.91570509  *
    19       H          3.65988397  *  -0.70923697  *  -0.55702735  *



          CARTESIAN COORDINATES 

    NO.       ATOM           X           Y           Z

     1         C         -2.5430      1.2037     -0.0268
     2         C         -1.8519      0.0066     -0.6900
     3         C         -2.6835     -1.2707     -0.5253
     4         C         -0.5163     -0.1938     -0.0784
     5         N         -0.0891     -0.4167      1.1394
     6         C          1.3141     -0.4887      1.0850
     7         C          1.6929     -0.3050     -0.2308
     8         N          2.8825     -0.1787     -0.9111
     9         O          0.5515     -0.1241     -0.9986
    10         H         -1.9675      2.1269     -0.1641
    11         H         -3.5424      1.3650     -0.4446
    12         H         -2.6536      1.0487      1.0558
    13         H         -1.7223      0.2206     -1.7858
    14         H         -2.8028     -1.5321      0.5356
    15         H         -3.6846     -1.1487     -0.9528
    16         H         -2.2089     -2.1266     -1.0188
    17         H          1.8910     -0.6461      1.9709
    18         H          2.8282     -0.1483     -1.9157
    19         H          3.6599     -0.7092     -0.5570

 General Reference for PM7:
 "Optimization of Parameters for Semiempirical Methods VI: More Modifications to the 
 NDDO Approximations and Re-optimization of Parameters", J. J. P. Stewart, J. Mol. Mod., 1:32, 19 (2013)
 https://link.springer.com/article/10.1007/s00894-012-1667-x

           Empirical Formula: C6 H10 N2 O  =    19 atoms



      MOLECULAR POINT GROUP   :   C1  


      RHF CALCULATION, NO. OF DOUBLY OCCUPIED LEVELS = 25

  SCF CRITERION =    0.1000E-07

 -------------------------------------------------------------------------------
 PM7 1SCF GRADIENTS DISP RELSCF=0.0001
 Title: ASE calculation



     1SCF WAS SPECIFIED, SO BFGS WAS NOT USED                 
     SCF FIELD WAS ACHIEVED                                   


                              PM7 CALCULATION
                                                       MOPAC v23.2 Linux
                                                       Fri Sep 19 21:27:16 2025




          FINAL HEAT OF FORMATION =        -19.78159 KCAL/MOL =     -82.76618 KJ/MOL

          TOTAL ENERGY            =     -35498.09761 KCAL/MOL = ELECTRONIC ENERGY + CORE-CORE REPULSION
          ENERGY OF ATOMS         =      35480.40871 KCAL/MOL
                              SUM =        -17.68889 KCAL/MOL
          DISPERSION ENERGY       =         -2.09270 KCAL/MOL
                              SUM =        -19.78159 KCAL/MOL = FINAL HEAT OF FORMATION



          TOTAL ENERGY            =      -1539.34320 EV
          ELECTRONIC ENERGY       =      -7377.40012 EV 
          CORE-CORE REPULSION     =       5838.05691 EV
          COSMO AREA              =        168.23 SQUARE ANGSTROMS
          COSMO VOLUME            =        161.34 CUBIC ANGSTROMS

          GRADIENT NORM           =          0.92037          =       0.21115 PER ATOM
          IONIZATION POTENTIAL    =          8.600855 EV
          HOMO LUMO ENERGIES (EV) =         -8.601  0.468
          NO. OF FILLED LEVELS    =         25
          MOLECULAR WEIGHT        =        126.1578         POINT GROUP:  C1  

          MOLECULAR DIMENSIONS (Angstroms)

            Atom       Atom       Distance
            H    19    H    11     7.49590
            H    10    H    16     4.23834
            H    18    H    17     3.94406


          SCF CALCULATIONS        =          1

          WALL-CLOCK TIME         =      0.430 SECONDS
          COMPUTATION TIME        =      0.640 SECONDS

          LARGEST ATOMIC GRADIENTS

          Atom     Label                     Cartesian Gradients           Cartesian Coordinates       |Gradient|
                                           X          Y          Z        X          Y          Z

            17       H                   0.355      0.001      0.254    1.89097   -0.64615    1.97088      0.437
            19       H                  -0.200      0.207      0.204    3.65988   -0.70924   -0.55703      0.353
             9       O                   0.253     -0.077     -0.156    0.55146   -0.12411   -0.99856      0.307
            18       H                  -0.104     -0.099     -0.248    2.82818   -0.14828   -1.91571      0.287
            13       H                   0.250      0.013      0.078   -1.72226    0.22064   -1.78580      0.262
             5       N                  -0.017     -0.238     -0.070   -0.08908   -0.41665    1.13936      0.249
             2       C                  -0.237      0.039      0.063   -1.85191    0.00657   -0.69004      0.249
             4       C                   0.036     -0.119      0.190   -0.51627   -0.19375   -0.07843      0.227
             8       N                  -0.110     -0.020     -0.107    2.88248   -0.17871   -0.91106      0.155
            10       H                  -0.053      0.136     -0.050   -1.96753    2.12691   -0.16410      0.155



       FINAL  POINT  AND  DERIVATIVES

   PARAMETER     ATOM    TYPE            VALUE        GRADIENT
      1          1  C    CARTESIAN X    -2.542977     -0.034876  KCAL/ANGSTROM
      2          1  C    CARTESIAN Y     1.203731      0.115647  KCAL/ANGSTROM
      3          1  C    CARTESIAN Z    -0.026823      0.027175  KCAL/ANGSTROM
      4          2  C    CARTESIAN X    -1.851914     -0.237436  KCAL/ANGSTROM
      5          2  C    CARTESIAN Y     0.006569      0.039038  KCAL/ANGSTROM
      6          2  C    CARTESIAN Z    -0.690038      0.062901  KCAL/ANGSTROM
      7          3  C    CARTESIAN X    -2.683515     -0.041579  KCAL/ANGSTROM
      8          3  C    CARTESIAN Y    -1.270721     -0.049225  KCAL/ANGSTROM
      9          3  C    CARTESIAN Z    -0.525264     -0.059627  KCAL/ANGSTROM
     10          4  C    CARTESIAN X    -0.516273      0.035814  KCAL/ANGSTROM
     11          4  C    CARTESIAN Y    -0.193755     -0.119409  KCAL/ANGSTROM
     12          4  C    CARTESIAN Z    -0.078433      0.189699  KCAL/ANGSTROM
     13          5  N    CARTESIAN X    -0.089076     -0.016626  KCAL/ANGSTROM
     14          5  N    CARTESIAN Y    -0.416654     -0.237993  KCAL/ANGSTROM
     15          5  N    CARTESIAN Z     1.139363     -0.070327  KCAL/ANGSTROM
     16          6  C    CARTESIAN X     1.314066     -0.050973  KCAL/ANGSTROM
     17          6  C    CARTESIAN Y    -0.488739      0.014969  KCAL/ANGSTROM
     18          6  C    CARTESIAN Z     1.084975      0.040504  KCAL/ANGSTROM
     19          7  C    CARTESIAN X     1.692858      0.079652  KCAL/ANGSTROM
     20          7  C    CARTESIAN Y    -0.305028      0.025294  KCAL/ANGSTROM
     21          7  C    CARTESIAN Z    -0.230814      0.024603  KCAL/ANGSTROM
     22          8  N    CARTESIAN X     2.882480     -0.110307  KCAL/ANGSTROM
     23          8  N    CARTESIAN Y    -0.178712     -0.020047  KCAL/ANGSTROM
     24          8  N    CARTESIAN Z    -0.911064     -0.106881  KCAL/ANGSTROM
     25          9  O    CARTESIAN X     0.551456      0.252765  KCAL/ANGSTROM
     26          9  O    CARTESIAN Y    -0.124109     -0.076723  KCAL/ANGSTROM
     27          9  O    CARTESIAN Z    -0.998557     -0.156183  KCAL/ANGSTROM
     28         10  H    CARTESIAN X    -1.967533     -0.053490  KCAL/ANGSTROM
     29         10  H    CARTESIAN Y     2.126914      0.136441  KCAL/ANGSTROM
     30         10  H    CARTESIAN Z    -0.164104     -0.050119  KCAL/ANGSTROM
     31         11  H    CARTESIAN X    -3.542439     -0.032420  KCAL/ANGSTROM
     32         11  H    CARTESIAN Y     1.364983     -0.017528  KCAL/ANGSTROM
     33         11  H    CARTESIAN Z    -0.444555     -0.052001  KCAL/ANGSTROM
     34         12  H    CARTESIAN X    -2.653632     -0.064072  KCAL/ANGSTROM
     35         12  H    CARTESIAN Y     1.048680      0.043236  KCAL/ANGSTROM
     36         12  H    CARTESIAN Z     1.055786      0.011117  KCAL/ANGSTROM
     37         13  H    CARTESIAN X    -1.722264      0.249665  KCAL/ANGSTROM
     38         13  H    CARTESIAN Y     0.220641      0.012741  KCAL/ANGSTROM
     39         13  H    CARTESIAN Z    -1.785797      0.077869  KCAL/ANGSTROM
     40         14  H    CARTESIAN X    -2.802816      0.013428  KCAL/ANGSTROM
     41         14  H    CARTESIAN Y    -1.532055      0.017451  KCAL/ANGSTROM
     42         14  H    CARTESIAN Z     0.535605     -0.045278  KCAL/ANGSTROM
     43         15  H    CARTESIAN X    -3.684646     -0.059363  KCAL/ANGSTROM
     44         15  H    CARTESIAN Y    -1.148710      0.059678  KCAL/ANGSTROM
     45         15  H    CARTESIAN Z    -0.952762     -0.054843  KCAL/ANGSTROM
     46         16  H    CARTESIAN X    -2.208905      0.018044  KCAL/ANGSTROM
     47         16  H    CARTESIAN Y    -2.126588     -0.053493  KCAL/ANGSTROM
     48         16  H    CARTESIAN Z    -1.018831     -0.048839  KCAL/ANGSTROM
     49         17  H    CARTESIAN X     1.890966      0.355478  KCAL/ANGSTROM
     50         17  H    CARTESIAN Y    -0.646149      0.001427  KCAL/ANGSTROM
     51         17  H    CARTESIAN Z     1.970877      0.253976  KCAL/ANGSTROM
     52         18  H    CARTESIAN X     2.828178     -0.104150  KCAL/ANGSTROM
     53         18  H    CARTESIAN Y    -0.148282     -0.098869  KCAL/ANGSTROM
     54         18  H    CARTESIAN Z    -1.915705     -0.248143  KCAL/ANGSTROM
     55         19  H    CARTESIAN X     3.659884     -0.199554  KCAL/ANGSTROM
     56         19  H    CARTESIAN Y    -0.709237      0.207364  KCAL/ANGSTROM
     57         19  H    CARTESIAN Z    -0.557027      0.204395  KCAL/ANGSTROM




   ATOM   CHEMICAL          X               Y               Z
  NUMBER   SYMBOL      (ANGSTROMS)     (ANGSTROMS)     (ANGSTROMS)

     1       C         -2.54297678  *   1.20373132  *  -0.02682292  *
     2       C         -1.85191400  *   0.00656885  *  -0.69003777  *
     3       C         -2.68351478  *  -1.27072068  *  -0.52526398  *
     4       C         -0.51627254  *  -0.19375478  *  -0.07843323  *
     5       N         -0.08907628  *  -0.41665361  *   1.13936348  *
     6       C          1.31406551  *  -0.48873874  *   1.08497542  *
     7       C          1.69285827  *  -0.30502839  *  -0.23081385  *
     8       N          2.88248007  *  -0.17871162  *  -0.91106406  *
     9       O          0.55145551  *  -0.12410853  *  -0.99855711  *
    10       H         -1.96753329  *   2.12691406  *  -0.16410386  *
    11       H         -3.54243927  *   1.36498290  *  -0.44455549  *
    12       H         -2.65363167  *   1.04867976  *   1.05578629  *
    13       H         -1.72226430  *   0.22064140  *  -1.78579744  *
    14       H         -2.80281647  *  -1.53205543  *   0.53560509  *
    15       H         -3.68464561  *  -1.14871036  *  -0.95276173  *
    16       H         -2.20890478  *  -2.12658767  *  -1.01883065  *
    17       H          1.89096603  *  -0.64614926  *   1.97087654  *
    18       H          2.82817803  *  -0.14828223  *  -1.91570509  *
    19       H          3.65988397  *  -0.70923697  *  -0.55702735  *

                             CARTESIAN COORDINATES

   1    C       -2.542976777     1.203731321    -0.026822925
   2    C       -1.851914004     0.006568855    -0.690037772
   3    C       -2.683514784    -1.270720677    -0.525263984
   4    C       -0.516272539    -0.193754779    -0.078433232
   5    N       -0.089076280    -0.416653610     1.139363484
   6    C        1.314065512    -0.488738738     1.084975420
   7    C        1.692858275    -0.305028386    -0.230813849
   8    N        2.882480070    -0.178711617    -0.911064064
   9    O        0.551455509    -0.124108532    -0.998557112
  10    H       -1.967533285     2.126914062    -0.164103860
  11    H       -3.542439265     1.364982905    -0.444555486
  12    H       -2.653631668     1.048679758     1.055786293
  13    H       -1.722264298     0.220641402    -1.785797442
  14    H       -2.802816466    -1.532055434     0.535605088
  15    H       -3.684645612    -1.148710359    -0.952761731
  16    H       -2.208904782    -2.126587667    -1.018830650
  17    H        1.890966034    -0.646149262     1.970876542
  18    H        2.828178030    -0.148282227    -1.915705085
  19    H        3.659883971    -0.709236970    -0.557027354


           Empirical Formula: C6 H10 N2 O  =    19 atoms



      MOLECULAR POINT GROUP   :   C1  


                  EIGENVALUES  
 -37.03378 -36.09354 -30.17504 -29.12510 -24.91459 -24.10561 -22.38883 -21.09697
 -19.33050 -17.87003 -17.18207 -16.73381 -15.89880 -15.15831 -14.88126 -14.23102
 -13.73157 -13.36773 -12.56209 -12.46185 -11.98202 -11.82429 -11.52983 -10.96878
  -8.60085   0.46837   1.37654   1.47525   2.50367   3.05065   3.65356   3.88001
   4.05519   4.45773   4.76735   5.42995   5.54659   5.67456   5.72468   5.74928
   5.81232   5.92472   6.31772   6.37655   6.83942   6.93386


              NET ATOMIC CHARGES AND DIPOLE CONTRIBUTIONS

  ATOM NO.   TYPE          CHARGE      No. of ELECS.   s-Pop       p-Pop       
    1          C          -0.441076        4.4411     1.05554     3.38554
    2          C          -0.064291        4.0643     1.05048     3.01381
    3          C          -0.441502        4.4415     1.05549     3.38601
    4          C           0.248608        3.7514     1.12262     2.62877
    5          N          -0.352443        5.3524     1.75265     3.59980
    6          C          -0.213312        4.2133     1.07460     3.13871
    7          C           0.277344        3.7227     1.07698     2.64568
    8          N          -0.580508        5.5805     1.55504     4.02547
    9          O          -0.316517        6.3165     1.88064     4.43588
   10          H           0.151147        0.8489     0.84885
   11          H           0.150388        0.8496     0.84961
   12          H           0.165622        0.8344     0.83438
   13          H           0.159323        0.8407     0.84068
   14          H           0.165037        0.8350     0.83496
   15          H           0.151211        0.8488     0.84879
   16          H           0.149112        0.8509     0.85089
   17          H           0.194211        0.8058     0.80579
   18          H           0.298928        0.7011     0.70107
   19          H           0.298717        0.7013     0.70128
 DIPOLE           X         Y         Z       TOTAL
 POINT-CHG.     0.397    -0.474    -1.675     1.785
 HYBRID         0.669    -0.415    -1.284     1.506
 SUM            1.066    -0.889    -2.959     3.268


          ATOMIC ORBITAL ELECTRON POPULATIONS

     Atom    s        px        py        pz   
    1  C   1.05554   1.14236   1.07664   1.16654
    2  C   1.05048   0.92605   0.99716   1.09061
    3  C   1.05549   1.12784   1.06368   1.19449
    4  C   1.12262   0.86037   0.97545   0.79295
    5  N   1.75265   1.14953   1.19301   1.25726
    6  C   1.07460   0.90225   1.22774   1.00873
    7  C   1.07698   0.76100   0.97953   0.90514
    8  N   1.55504   1.14608   1.66332   1.21607
    9  O   1.88064   1.25069   1.76158   1.42361
   10  H   0.84885
   11  H   0.84961
   12  H   0.83438
   13  H   0.84068
   14  H   0.83496
   15  H   0.84879
   16  H   0.85089
   17  H   0.80579
   18  H   0.70107
   19  H   0.70128

 **********************
 *                    *
 * JOB ENDED NORMALLY *
 *                    *
 **********************



 TOTAL JOB TIME:             0.78 SECONDS

 == MOPAC DONE ==
