 *******************************************************************************
 **                                                                           **
 **                              MOPAC v23.2                                  **
 **                                                                           **
 *******************************************************************************
 **          Digital Object Identifier (DOI): 10.5281/zenodo.6511958          **
 **    Visit the DOI location for information on how to cite this program.    **
 *******************************************************************************

                              PM7 CALCULATION RESULTS

 *******************************************************************************
 *  CALCULATION DONE: (MAX THREADS = 40)             Fri Sep 19 21:32:25 2025  *
 *  PM7        - The PM7 Hamiltonian to be used
 *  1SCF       - DO 1 SCF AND THEN STOP 
 *  T=         - A TIME OF 172800.0 SECONDS REQUESTED
 *  DUMP=N     - RESTART FILE WRITTEN EVERY 7200.0 SECONDS REQUESTED
 *  RELSCF     - DEFAULT SCF CRITERION MULTIPLIED BY 0.0001
 *              (DEFAULT SCF CRITERION = 0.00010)
 *  GRADIENTS  - ALL GRADIENTS TO BE PRINTED
 *  DISP       - PRINT DISPERSION AND HYDROGEN BOND ENERGIES
 *******************************************************************************
PM7 1SCF GRADIENTS DISP RELSCF=0.0001
 Title: ASE calculation

   ATOM   CHEMICAL          X               Y               Z
  NUMBER   SYMBOL      (ANGSTROMS)     (ANGSTROMS)     (ANGSTROMS)

     1       C          2.52626160  *   0.25230748  *   0.33720780  *
     2       C          1.00605414  *   0.03870487  *   0.26343267  *
     3       C          0.69538680  *  -1.22294689  *  -0.48698267  *
     4       C         -0.52265083  *  -1.75720252  *  -0.61356242  *
     5       C         -1.77232570  *  -1.13160239  *  -0.07437146  *
     6       O         -2.10734859  *  -0.07168853  *  -0.96289849  *
     7       C         -2.21502330  *   1.21058031  *  -0.38930529  *
     8       C         -0.94636009  *   1.70173558  *   0.31676674  *
     9       C          0.33289487  *   1.26068712  *  -0.40664578  *
    10       H          3.02468649  *  -0.60252182  *   0.80734440  *
    11       H          2.77569470  *   1.14015741  *   0.92894051  *
    12       H          2.95989565  *   0.38275415  *  -0.66100494  *
    13       H          0.62090773  *  -0.06658034  *   1.31016127  *
    14       H          1.55829268  *  -1.71012883  *  -0.94370147  *
    15       H         -0.67654076  *  -2.67861163  *  -1.17192743  *
    16       H         -1.65579016  *  -0.79315424  *   0.96880350  *
    17       H         -2.64223042  *  -1.81484598  *  -0.12836221  *
    18       H         -3.08685717  *   1.23301114  *   0.28774691  *
    19       H         -2.44034007  *   1.81784023  *  -1.28932152  *
    20       H         -0.93726369  *   1.35832242  *   1.36751329  *
    21       H         -0.97715869  *   2.80732840  *   0.37602567  *
    22       H          0.10500291  *   1.02202961  *  -1.46570878  *
    23       H          1.04362182  *   2.10662385  *  -0.43995095  *



          CARTESIAN COORDINATES 

    NO.       ATOM           X           Y           Z

     1         C          2.5263      0.2523      0.3372
     2         C          1.0061      0.0387      0.2634
     3         C          0.6954     -1.2229     -0.4870
     4         C         -0.5227     -1.7572     -0.6136
     5         C         -1.7723     -1.1316     -0.0744
     6         O         -2.1073     -0.0717     -0.9629
     7         C         -2.2150      1.2106     -0.3893
     8         C         -0.9464      1.7017      0.3168
     9         C          0.3329      1.2607     -0.4066
    10         H          3.0247     -0.6025      0.8073
    11         H          2.7757      1.1402      0.9289
    12         H          2.9599      0.3828     -0.6610
    13         H          0.6209     -0.0666      1.3102
    14         H          1.5583     -1.7101     -0.9437
    15         H         -0.6765     -2.6786     -1.1719
    16         H         -1.6558     -0.7932      0.9688
    17         H         -2.6422     -1.8148     -0.1284
    18         H         -3.0869      1.2330      0.2877
    19         H         -2.4403      1.8178     -1.2893
    20         H         -0.9373      1.3583      1.3675
    21         H         -0.9772      2.8073      0.3760
    22         H          0.1050      1.0220     -1.4657
    23         H          1.0436      2.1066     -0.4400

 General Reference for PM7:
 "Optimization of Parameters for Semiempirical Methods VI: More Modifications to the 
 NDDO Approximations and Re-optimization of Parameters", J. J. P. Stewart, J. Mol. Mod., 1:32, 19 (2013)
 https://link.springer.com/article/10.1007/s00894-012-1667-x

           Empirical Formula: C8 H14 O  =    23 atoms



      MOLECULAR POINT GROUP   :   C1  


      RHF CALCULATION, NO. OF DOUBLY OCCUPIED LEVELS = 26

  SCF CRITERION =    0.1000E-07

 -------------------------------------------------------------------------------
 PM7 1SCF GRADIENTS DISP RELSCF=0.0001
 Title: ASE calculation



     1SCF WAS SPECIFIED, SO BFGS WAS NOT USED                 
     SCF FIELD WAS ACHIEVED                                   


                              PM7 CALCULATION
                                                       MOPAC v23.2 Linux
                                                       Fri Sep 19 21:32:25 2025




          FINAL HEAT OF FORMATION =        -40.48179 KCAL/MOL =    -169.37580 KJ/MOL

          TOTAL ENERGY            =     -33820.25386 KCAL/MOL = ELECTRONIC ENERGY + CORE-CORE REPULSION
          ENERGY OF ATOMS         =      33782.22825 KCAL/MOL
                              SUM =        -38.02561 KCAL/MOL
          DISPERSION ENERGY       =         -2.45618 KCAL/MOL
                              SUM =        -40.48179 KCAL/MOL = FINAL HEAT OF FORMATION



          TOTAL ENERGY            =      -1466.58501 EV
          ELECTRONIC ENERGY       =      -7910.28407 EV 
          CORE-CORE REPULSION     =       6443.69905 EV
          COSMO AREA              =        168.92 SQUARE ANGSTROMS
          COSMO VOLUME            =        174.58 CUBIC ANGSTROMS

          GRADIENT NORM           =          1.30214          =       0.27151 PER ATOM
          IONIZATION POTENTIAL    =          9.538043 EV
          HOMO LUMO ENERGIES (EV) =         -9.538  1.021
          NO. OF FILLED LEVELS    =         26
          MOLECULAR WEIGHT        =        126.1980         POINT GROUP:  C1  

          MOLECULAR DIMENSIONS (Angstroms)

            Atom       Atom       Distance
            H    18    H    10     6.40235
            H    21    H    15     5.43828
            H    16    H    22     3.09491


          SCF CALCULATIONS        =          1

          WALL-CLOCK TIME         =      0.773 SECONDS
          COMPUTATION TIME        =      0.625 SECONDS

          LARGEST ATOMIC GRADIENTS

          Atom     Label                     Cartesian Gradients           Cartesian Coordinates       |Gradient|
                                           X          Y          Z        X          Y          Z

            12       H                  -0.030     -0.153     -0.428    2.95990    0.38275   -0.66100      0.456
            11       H                   0.208      0.214      0.303    2.77569    1.14016    0.92894      0.425
            15       H                   0.335     -0.123     -0.117   -0.67654   -2.67861   -1.17193      0.375
             6       O                  -0.142      0.316      0.124   -2.10735   -0.07169   -0.96290      0.368
            23       H                  -0.038     -0.066      0.326    1.04362    2.10662   -0.43995      0.335
            18       H                   0.158      0.091     -0.280   -3.08686    1.23301    0.28775      0.334
             7       C                   0.184      0.194      0.140   -2.21502    1.21058   -0.38931      0.302
            19       H                  -0.163     -0.235      0.085   -2.44034    1.81784   -1.28932      0.298
             9       C                  -0.193     -0.197      0.023    0.33289    1.26069   -0.40665      0.277
            13       H                  -0.216     -0.067      0.140    0.62091   -0.06658    1.31016      0.266



       FINAL  POINT  AND  DERIVATIVES

   PARAMETER     ATOM    TYPE            VALUE        GRADIENT
      1          1  C    CARTESIAN X     2.526262      0.088356  KCAL/ANGSTROM
      2          1  C    CARTESIAN Y     0.252307      0.167160  KCAL/ANGSTROM
      3          1  C    CARTESIAN Z     0.337208     -0.055084  KCAL/ANGSTROM
      4          2  C    CARTESIAN X     1.006054     -0.201915  KCAL/ANGSTROM
      5          2  C    CARTESIAN Y     0.038705     -0.100113  KCAL/ANGSTROM
      6          2  C    CARTESIAN Z     0.263433     -0.064004  KCAL/ANGSTROM
      7          3  C    CARTESIAN X     0.695387     -0.207958  KCAL/ANGSTROM
      8          3  C    CARTESIAN Y    -1.222947      0.026760  KCAL/ANGSTROM
      9          3  C    CARTESIAN Z    -0.486983     -0.117377  KCAL/ANGSTROM
     10          4  C    CARTESIAN X    -0.522651     -0.066378  KCAL/ANGSTROM
     11          4  C    CARTESIAN Y    -1.757203     -0.064163  KCAL/ANGSTROM
     12          4  C    CARTESIAN Z    -0.613562     -0.051715  KCAL/ANGSTROM
     13          5  C    CARTESIAN X    -1.772326      0.025255  KCAL/ANGSTROM
     14          5  C    CARTESIAN Y    -1.131602      0.221053  KCAL/ANGSTROM
     15          5  C    CARTESIAN Z    -0.074371     -0.008532  KCAL/ANGSTROM
     16          6  O    CARTESIAN X    -2.107349     -0.141690  KCAL/ANGSTROM
     17          6  O    CARTESIAN Y    -0.071689      0.316295  KCAL/ANGSTROM
     18          6  O    CARTESIAN Z    -0.962898      0.123755  KCAL/ANGSTROM
     19          7  C    CARTESIAN X    -2.215023      0.184147  KCAL/ANGSTROM
     20          7  C    CARTESIAN Y     1.210580      0.194467  KCAL/ANGSTROM
     21          7  C    CARTESIAN Z    -0.389305      0.140404  KCAL/ANGSTROM
     22          8  C    CARTESIAN X    -0.946360      0.018916  KCAL/ANGSTROM
     23          8  C    CARTESIAN Y     1.701736     -0.018270  KCAL/ANGSTROM
     24          8  C    CARTESIAN Z     0.316767      0.107722  KCAL/ANGSTROM
     25          9  C    CARTESIAN X     0.332895     -0.193428  KCAL/ANGSTROM
     26          9  C    CARTESIAN Y     1.260687     -0.196608  KCAL/ANGSTROM
     27          9  C    CARTESIAN Z    -0.406646      0.023108  KCAL/ANGSTROM
     28         10  H    CARTESIAN X     3.024686      0.007704  KCAL/ANGSTROM
     29         10  H    CARTESIAN Y    -0.602522      0.048182  KCAL/ANGSTROM
     30         10  H    CARTESIAN Z     0.807344      0.047093  KCAL/ANGSTROM
     31         11  H    CARTESIAN X     2.775695      0.207698  KCAL/ANGSTROM
     32         11  H    CARTESIAN Y     1.140157      0.214337  KCAL/ANGSTROM
     33         11  H    CARTESIAN Z     0.928941      0.303012  KCAL/ANGSTROM
     34         12  H    CARTESIAN X     2.959896     -0.029821  KCAL/ANGSTROM
     35         12  H    CARTESIAN Y     0.382754     -0.152698  KCAL/ANGSTROM
     36         12  H    CARTESIAN Z    -0.661005     -0.428315  KCAL/ANGSTROM
     37         13  H    CARTESIAN X     0.620908     -0.216094  KCAL/ANGSTROM
     38         13  H    CARTESIAN Y    -0.066580     -0.067234  KCAL/ANGSTROM
     39         13  H    CARTESIAN Z     1.310161      0.140166  KCAL/ANGSTROM
     40         14  H    CARTESIAN X     1.558293     -0.033338  KCAL/ANGSTROM
     41         14  H    CARTESIAN Y    -1.710129     -0.044099  KCAL/ANGSTROM
     42         14  H    CARTESIAN Z    -0.943701      0.019168  KCAL/ANGSTROM
     43         15  H    CARTESIAN X    -0.676541      0.334712  KCAL/ANGSTROM
     44         15  H    CARTESIAN Y    -2.678612     -0.123281  KCAL/ANGSTROM
     45         15  H    CARTESIAN Z    -1.171927     -0.117099  KCAL/ANGSTROM
     46         16  H    CARTESIAN X    -1.655790      0.100548  KCAL/ANGSTROM
     47         16  H    CARTESIAN Y    -0.793154      0.164197  KCAL/ANGSTROM
     48         16  H    CARTESIAN Z     0.968803      0.066875  KCAL/ANGSTROM
     49         17  H    CARTESIAN X    -2.642230      0.195890  KCAL/ANGSTROM
     50         17  H    CARTESIAN Y    -1.814846     -0.073427  KCAL/ANGSTROM
     51         17  H    CARTESIAN Z    -0.128362      0.000326  KCAL/ANGSTROM
     52         18  H    CARTESIAN X    -3.086857      0.157748  KCAL/ANGSTROM
     53         18  H    CARTESIAN Y     1.233011      0.091192  KCAL/ANGSTROM
     54         18  H    CARTESIAN Z     0.287747     -0.279906  KCAL/ANGSTROM
     55         19  H    CARTESIAN X    -2.440340     -0.162732  KCAL/ANGSTROM
     56         19  H    CARTESIAN Y     1.817840     -0.234995  KCAL/ANGSTROM
     57         19  H    CARTESIAN Z    -1.289322      0.084939  KCAL/ANGSTROM
     58         20  H    CARTESIAN X    -0.937264     -0.183456  KCAL/ANGSTROM
     59         20  H    CARTESIAN Y     1.358322     -0.086404  KCAL/ANGSTROM
     60         20  H    CARTESIAN Z     1.367513      0.057611  KCAL/ANGSTROM
     61         21  H    CARTESIAN X    -0.977159      0.162670  KCAL/ANGSTROM
     62         21  H    CARTESIAN Y     2.807328     -0.019748  KCAL/ANGSTROM
     63         21  H    CARTESIAN Z     0.376026     -0.178531  KCAL/ANGSTROM
     64         22  H    CARTESIAN X     0.105003     -0.008828  KCAL/ANGSTROM
     65         22  H    CARTESIAN Y     1.022030     -0.196246  KCAL/ANGSTROM
     66         22  H    CARTESIAN Z    -1.465709     -0.139694  KCAL/ANGSTROM
     67         23  H    CARTESIAN X     1.043622     -0.038007  KCAL/ANGSTROM
     68         23  H    CARTESIAN Y     2.106624     -0.066358  KCAL/ANGSTROM
     69         23  H    CARTESIAN Z    -0.439951      0.326070  KCAL/ANGSTROM




   ATOM   CHEMICAL          X               Y               Z
  NUMBER   SYMBOL      (ANGSTROMS)     (ANGSTROMS)     (ANGSTROMS)

     1       C          2.52626160  *   0.25230748  *   0.33720780  *
     2       C          1.00605414  *   0.03870487  *   0.26343267  *
     3       C          0.69538680  *  -1.22294689  *  -0.48698267  *
     4       C         -0.52265083  *  -1.75720252  *  -0.61356242  *
     5       C         -1.77232570  *  -1.13160239  *  -0.07437146  *
     6       O         -2.10734859  *  -0.07168853  *  -0.96289849  *
     7       C         -2.21502330  *   1.21058031  *  -0.38930529  *
     8       C         -0.94636009  *   1.70173558  *   0.31676674  *
     9       C          0.33289487  *   1.26068712  *  -0.40664578  *
    10       H          3.02468649  *  -0.60252182  *   0.80734440  *
    11       H          2.77569470  *   1.14015741  *   0.92894051  *
    12       H          2.95989565  *   0.38275415  *  -0.66100494  *
    13       H          0.62090773  *  -0.06658034  *   1.31016127  *
    14       H          1.55829268  *  -1.71012883  *  -0.94370147  *
    15       H         -0.67654076  *  -2.67861163  *  -1.17192743  *
    16       H         -1.65579016  *  -0.79315424  *   0.96880350  *
    17       H         -2.64223042  *  -1.81484598  *  -0.12836221  *
    18       H         -3.08685717  *   1.23301114  *   0.28774691  *
    19       H         -2.44034007  *   1.81784023  *  -1.28932152  *
    20       H         -0.93726369  *   1.35832242  *   1.36751329  *
    21       H         -0.97715869  *   2.80732840  *   0.37602567  *
    22       H          0.10500291  *   1.02202961  *  -1.46570878  *
    23       H          1.04362182  *   2.10662385  *  -0.43995095  *

                             CARTESIAN COORDINATES

   1    C        2.526261596     0.252307481     0.337207801
   2    C        1.006054139     0.038704865     0.263432665
   3    C        0.695386804    -1.222946886    -0.486982672
   4    C       -0.522650834    -1.757202520    -0.613562421
   5    C       -1.772325698    -1.131602389    -0.074371461
   6    O       -2.107348590    -0.071688528    -0.962898491
   7    C       -2.215023300     1.210580307    -0.389305289
   8    C       -0.946360094     1.701735580     0.316766741
   9    C        0.332894871     1.260687124    -0.406645779
  10    H        3.024686485    -0.602521815     0.807344402
  11    H        2.775694702     1.140157411     0.928940505
  12    H        2.959895652     0.382754149    -0.661004944
  13    H        0.620907730    -0.066580335     1.310161272
  14    H        1.558292681    -1.710128825    -0.943701466
  15    H       -0.676540756    -2.678611627    -1.171927426
  16    H       -1.655790158    -0.793154238     0.968803498
  17    H       -2.642230419    -1.814845985    -0.128362214
  18    H       -3.086857165     1.233011144     0.287746908
  19    H       -2.440340070     1.817840227    -1.289321520
  20    H       -0.937263694     1.358322421     1.367513292
  21    H       -0.977158692     2.807328396     0.376025674
  22    H        0.105002905     1.022029609    -1.465708777
  23    H        1.043621820     2.106623853    -0.439950946


           Empirical Formula: C8 H14 O  =    23 atoms



      MOLECULAR POINT GROUP   :   C1  


                  EIGENVALUES  
 -30.29357 -28.66084 -27.35460 -25.81687 -23.78922 -22.95802 -20.67332 -19.93147
 -18.07253 -16.86122 -16.35598 -16.02020 -15.20259 -14.77674 -14.19903 -13.95942
 -13.02132 -12.94223 -12.45194 -12.15965 -12.06651 -11.59862 -11.30154 -10.97425
  -9.91103  -9.53804   1.02091   2.76159   3.84827   4.10740   4.24404   4.37703
   4.55938   4.78338   5.06260   5.43536   5.71582   5.77608   5.78937   5.84263
   5.96144   6.08166   6.12578   6.21156   6.28651   6.37182   6.49399   6.55369
   6.81121   6.98521


              NET ATOMIC CHARGES AND DIPOLE CONTRIBUTIONS

  ATOM NO.   TYPE          CHARGE      No. of ELECS.   s-Pop       p-Pop       
    1          C          -0.456867        4.4569     1.05815     3.39872
    2          C          -0.091399        4.0914     1.05754     3.03385
    3          C          -0.139939        4.1399     1.09853     3.04141
    4          C          -0.207600        4.2076     1.09180     3.11580
    5          C          -0.041655        4.0417     1.08020     2.96146
    6          O          -0.386068        6.3861     1.87905     4.50702
    7          C          -0.040138        4.0401     1.08735     2.95278
    8          C          -0.319317        4.3193     1.06591     3.25340
    9          C          -0.263215        4.2632     1.06281     3.20040
   10          H           0.144812        0.8552     0.85519
   11          H           0.144230        0.8558     0.85577
   12          H           0.147685        0.8523     0.85232
   13          H           0.140814        0.8592     0.85919
   14          H           0.143595        0.8564     0.85640
   15          H           0.147127        0.8529     0.85287
   16          H           0.124079        0.8759     0.87592
   17          H           0.127391        0.8726     0.87261
   18          H           0.111077        0.8889     0.88892
   19          H           0.139699        0.8603     0.86030
   20          H           0.139247        0.8608     0.86075
   21          H           0.140525        0.8595     0.85947
   22          H           0.161958        0.8380     0.83804
   23          H           0.133958        0.8660     0.86604
 DIPOLE           X         Y         Z       TOTAL
 POINT-CHG.     0.510     0.699     1.663     1.875
 HYBRID         0.100     0.068    -0.103     0.159
 SUM            0.611     0.767     1.559     1.842


          ATOMIC ORBITAL ELECTRON POPULATIONS

     Atom    s        px        py        pz   
    1  C   1.05815   1.05034   1.17210   1.17628
    2  C   1.05754   0.97659   0.97815   1.07911
    3  C   1.09853   1.04421   1.00017   0.99703
    4  C   1.09180   0.99253   1.06826   1.05501
    5  C   1.08020   1.02781   0.92591   1.00774
    6  O   1.87905   1.91435   1.21778   1.37489
    7  C   1.08735   1.01660   0.85585   1.08033
    8  C   1.06591   1.01887   1.13178   1.10275
    9  C   1.06281   1.02820   1.05618   1.11602
   10  H   0.85519
   11  H   0.85577
   12  H   0.85232
   13  H   0.85919
   14  H   0.85640
   15  H   0.85287
   16  H   0.87592
   17  H   0.87261
   18  H   0.88892
   19  H   0.86030
   20  H   0.86075
   21  H   0.85947
   22  H   0.83804
   23  H   0.86604

 **********************
 *                    *
 * JOB ENDED NORMALLY *
 *                    *
 **********************



 TOTAL JOB TIME:             1.21 SECONDS

 == MOPAC DONE ==
