 *******************************************************************************
 **                                                                           **
 **                              MOPAC v23.2                                  **
 **                                                                           **
 *******************************************************************************
 **          Digital Object Identifier (DOI): 10.5281/zenodo.6511958          **
 **    Visit the DOI location for information on how to cite this program.    **
 *******************************************************************************

                              PM7 CALCULATION RESULTS

 *******************************************************************************
 *  CALCULATION DONE: (MAX THREADS = 40)             Fri Sep 19 21:27:14 2025  *
 *  PM7        - The PM7 Hamiltonian to be used
 *  1SCF       - DO 1 SCF AND THEN STOP 
 *  T=         - A TIME OF 172800.0 SECONDS REQUESTED
 *  DUMP=N     - RESTART FILE WRITTEN EVERY 7200.0 SECONDS REQUESTED
 *  RELSCF     - DEFAULT SCF CRITERION MULTIPLIED BY 0.0001
 *              (DEFAULT SCF CRITERION = 0.00010)
 *  GRADIENTS  - ALL GRADIENTS TO BE PRINTED
 *  DISP       - PRINT DISPERSION AND HYDROGEN BOND ENERGIES
 *******************************************************************************
PM7 1SCF GRADIENTS DISP RELSCF=0.0001
 Title: ASE calculation

   ATOM   CHEMICAL          X               Y               Z
  NUMBER   SYMBOL      (ANGSTROMS)     (ANGSTROMS)     (ANGSTROMS)

     1       O         -1.20351650  *   1.17175094  *   1.87370943  *
     2       C         -0.80482870  *   0.21297051  *   0.96891526  *
     3       C         -1.62582850  *  -1.10316863  *   1.15325001  *
     4       O         -1.44527384  *  -1.78836100  *  -0.10335168  *
     5       C         -0.61221223  *  -0.95333321  *  -0.93222418  *
     6       C         -1.10430096  *   0.47032550  *  -0.54530256  *
     7       C          0.79250856  *  -1.04948344  *  -0.30345631  *
     8       C          1.59732460  *   0.21254108  *  -0.11245842  *
     9       C          0.66819512  *  -0.22598908  *   0.99494617  *
    10       H         -0.64073916  *   1.97313398  *   1.80538969  *
    11       H         -1.24706412  *  -1.76364701  *   1.94137842  *
    12       H         -2.70248664  *  -0.92468484  *   1.27301352  *
    13       H         -0.73824588  *  -1.30342457  *  -1.95654861  *
    14       H         -2.16908465  *   0.63110373  *  -0.75021604  *
    15       H         -0.56165698  *   1.30067522  *  -0.99495480  *
    16       H          1.26997442  *  -2.01764663  *  -0.36814026  *
    17       H          2.67064797  *   0.12182689  *   0.05027311  *
    18       H          1.40105912  *   1.10251533  *  -0.70141600  *
    19       H          1.05977974  *  -0.52146434  *   1.95850691  *



          CARTESIAN COORDINATES 

    NO.       ATOM           X           Y           Z

     1         O         -1.2035      1.1718      1.8737
     2         C         -0.8048      0.2130      0.9689
     3         C         -1.6258     -1.1032      1.1533
     4         O         -1.4453     -1.7884     -0.1034
     5         C         -0.6122     -0.9533     -0.9322
     6         C         -1.1043      0.4703     -0.5453
     7         C          0.7925     -1.0495     -0.3035
     8         C          1.5973      0.2125     -0.1125
     9         C          0.6682     -0.2260      0.9949
    10         H         -0.6407      1.9731      1.8054
    11         H         -1.2471     -1.7636      1.9414
    12         H         -2.7025     -0.9247      1.2730
    13         H         -0.7382     -1.3034     -1.9565
    14         H         -2.1691      0.6311     -0.7502
    15         H         -0.5617      1.3007     -0.9950
    16         H          1.2700     -2.0176     -0.3681
    17         H          2.6706      0.1218      0.0503
    18         H          1.4011      1.1025     -0.7014
    19         H          1.0598     -0.5215      1.9585

 General Reference for PM7:
 "Optimization of Parameters for Semiempirical Methods VI: More Modifications to the 
 NDDO Approximations and Re-optimization of Parameters", J. J. P. Stewart, J. Mol. Mod., 1:32, 19 (2013)
 https://link.springer.com/article/10.1007/s00894-012-1667-x

           Empirical Formula: C7 H10 O2  =    19 atoms



      MOLECULAR POINT GROUP   :   C1  


      RHF CALCULATION, NO. OF DOUBLY OCCUPIED LEVELS = 25

  SCF CRITERION =    0.1000E-07

 -------------------------------------------------------------------------------
 PM7 1SCF GRADIENTS DISP RELSCF=0.0001
 Title: ASE calculation



     1SCF WAS SPECIFIED, SO BFGS WAS NOT USED                 
     SCF FIELD WAS ACHIEVED                                   


                              PM7 CALCULATION
                                                       MOPAC v23.2 Linux
                                                       Fri Sep 19 21:27:14 2025




          FINAL HEAT OF FORMATION =        -44.24421 KCAL/MOL =    -185.11776 KJ/MOL

          TOTAL ENERGY            =     -36525.23374 KCAL/MOL = ELECTRONIC ENERGY + CORE-CORE REPULSION
          ENERGY OF ATOMS         =      36482.50324 KCAL/MOL
                              SUM =        -42.73050 KCAL/MOL
          DISPERSION ENERGY       =         -1.51371 KCAL/MOL
                              SUM =        -44.24421 KCAL/MOL = FINAL HEAT OF FORMATION



          TOTAL ENERGY            =      -1583.88404 EV
          ELECTRONIC ENERGY       =      -7943.38428 EV 
          CORE-CORE REPULSION     =       6359.50024 EV
          COSMO AREA              =        150.09 SQUARE ANGSTROMS
          COSMO VOLUME            =        151.50 CUBIC ANGSTROMS

          GRADIENT NORM           =          0.77879          =       0.17867 PER ATOM
          IONIZATION POTENTIAL    =          9.986849 EV
          HOMO LUMO ENERGIES (EV) =         -9.987  1.803
          NO. OF FILLED LEVELS    =         25
          MOLECULAR WEIGHT        =        126.1548         POINT GROUP:  C1  

          MOLECULAR DIMENSIONS (Angstroms)

            Atom       Atom       Distance
            H    17    H    12     5.60900
            H    10    H    13     4.98841
            H    15    H    11     3.86909


          SCF CALCULATIONS        =          1

          WALL-CLOCK TIME         =      0.570 SECONDS
          COMPUTATION TIME        =      0.142 SECONDS

          LARGEST ATOMIC GRADIENTS

          Atom     Label                     Cartesian Gradients           Cartesian Coordinates       |Gradient|
                                           X          Y          Z        X          Y          Z

            13       H                  -0.179     -0.082     -0.264   -0.73825   -1.30342   -1.95655      0.330
            15       H                   0.065      0.020      0.254   -0.56166    1.30068   -0.99495      0.263
            12       H                   0.059     -0.034     -0.239   -2.70249   -0.92468    1.27301      0.249
            14       H                   0.166      0.123      0.121   -2.16908    0.63110   -0.75022      0.239
            17       H                  -0.224     -0.029     -0.008    2.67065    0.12183    0.05027      0.226
            10       H                  -0.141      0.005     -0.167   -0.64074    1.97313    1.80539      0.219
             9       C                   0.012      0.197      0.065    0.66820   -0.22599    0.99495      0.208
             6       C                   0.095     -0.070      0.165   -1.10430    0.47033   -0.54530      0.203
            11       H                   0.042      0.145      0.057   -1.24706   -1.76365    1.94138      0.161
             1       O                   0.105     -0.032     -0.105   -1.20352    1.17175    1.87371      0.152



       FINAL  POINT  AND  DERIVATIVES

   PARAMETER     ATOM    TYPE            VALUE        GRADIENT
      1          1  O    CARTESIAN X    -1.203517      0.105065  KCAL/ANGSTROM
      2          1  O    CARTESIAN Y     1.171751     -0.031748  KCAL/ANGSTROM
      3          1  O    CARTESIAN Z     1.873709     -0.104917  KCAL/ANGSTROM
      4          2  C    CARTESIAN X    -0.804829      0.026406  KCAL/ANGSTROM
      5          2  C    CARTESIAN Y     0.212971     -0.101491  KCAL/ANGSTROM
      6          2  C    CARTESIAN Z     0.968915      0.020065  KCAL/ANGSTROM
      7          3  C    CARTESIAN X    -1.625829      0.041303  KCAL/ANGSTROM
      8          3  C    CARTESIAN Y    -1.103169      0.027565  KCAL/ANGSTROM
      9          3  C    CARTESIAN Z     1.153250      0.051305  KCAL/ANGSTROM
     10          4  O    CARTESIAN X    -1.445274      0.065404  KCAL/ANGSTROM
     11          4  O    CARTESIAN Y    -1.788361     -0.032536  KCAL/ANGSTROM
     12          4  O    CARTESIAN Z    -0.103352      0.060716  KCAL/ANGSTROM
     13          5  C    CARTESIAN X    -0.612212      0.078268  KCAL/ANGSTROM
     14          5  C    CARTESIAN Y    -0.953333     -0.108566  KCAL/ANGSTROM
     15          5  C    CARTESIAN Z    -0.932224     -0.037716  KCAL/ANGSTROM
     16          6  C    CARTESIAN X    -1.104301      0.094895  KCAL/ANGSTROM
     17          6  C    CARTESIAN Y     0.470325     -0.070231  KCAL/ANGSTROM
     18          6  C    CARTESIAN Z    -0.545303      0.164818  KCAL/ANGSTROM
     19          7  C    CARTESIAN X     0.792509      0.016603  KCAL/ANGSTROM
     20          7  C    CARTESIAN Y    -1.049483      0.003231  KCAL/ANGSTROM
     21          7  C    CARTESIAN Z    -0.303456      0.080037  KCAL/ANGSTROM
     22          8  C    CARTESIAN X     1.597325     -0.086491  KCAL/ANGSTROM
     23          8  C    CARTESIAN Y     0.212541      0.034337  KCAL/ANGSTROM
     24          8  C    CARTESIAN Z    -0.112458     -0.019224  KCAL/ANGSTROM
     25          9  C    CARTESIAN X     0.668195      0.012372  KCAL/ANGSTROM
     26          9  C    CARTESIAN Y    -0.225989      0.197428  KCAL/ANGSTROM
     27          9  C    CARTESIAN Z     0.994946      0.065266  KCAL/ANGSTROM
     28         10  H    CARTESIAN X    -0.640739     -0.141012  KCAL/ANGSTROM
     29         10  H    CARTESIAN Y     1.973134      0.004737  KCAL/ANGSTROM
     30         10  H    CARTESIAN Z     1.805390     -0.166861  KCAL/ANGSTROM
     31         11  H    CARTESIAN X    -1.247064      0.041677  KCAL/ANGSTROM
     32         11  H    CARTESIAN Y    -1.763647      0.144832  KCAL/ANGSTROM
     33         11  H    CARTESIAN Z     1.941378      0.057188  KCAL/ANGSTROM
     34         12  H    CARTESIAN X    -2.702487      0.058525  KCAL/ANGSTROM
     35         12  H    CARTESIAN Y    -0.924685     -0.034081  KCAL/ANGSTROM
     36         12  H    CARTESIAN Z     1.273014     -0.239122  KCAL/ANGSTROM
     37         13  H    CARTESIAN X    -0.738246     -0.178975  KCAL/ANGSTROM
     38         13  H    CARTESIAN Y    -1.303425     -0.081687  KCAL/ANGSTROM
     39         13  H    CARTESIAN Z    -1.956549     -0.264398  KCAL/ANGSTROM
     40         14  H    CARTESIAN X    -2.169085      0.166069  KCAL/ANGSTROM
     41         14  H    CARTESIAN Y     0.631104      0.122696  KCAL/ANGSTROM
     42         14  H    CARTESIAN Z    -0.750216      0.121066  KCAL/ANGSTROM
     43         15  H    CARTESIAN X    -0.561657      0.064965  KCAL/ANGSTROM
     44         15  H    CARTESIAN Y     1.300675      0.020337  KCAL/ANGSTROM
     45         15  H    CARTESIAN Z    -0.994955      0.254073  KCAL/ANGSTROM
     46         16  H    CARTESIAN X     1.269974     -0.061917  KCAL/ANGSTROM
     47         16  H    CARTESIAN Y    -2.017647     -0.032483  KCAL/ANGSTROM
     48         16  H    CARTESIAN Z    -0.368140     -0.061151  KCAL/ANGSTROM
     49         17  H    CARTESIAN X     2.670648     -0.224324  KCAL/ANGSTROM
     50         17  H    CARTESIAN Y     0.121827     -0.029174  KCAL/ANGSTROM
     51         17  H    CARTESIAN Z     0.050273     -0.007614  KCAL/ANGSTROM
     52         18  H    CARTESIAN X     1.401059     -0.065279  KCAL/ANGSTROM
     53         18  H    CARTESIAN Y     1.102515      0.011329  KCAL/ANGSTROM
     54         18  H    CARTESIAN Z    -0.701416      0.036112  KCAL/ANGSTROM
     55         19  H    CARTESIAN X     1.059780     -0.013559  KCAL/ANGSTROM
     56         19  H    CARTESIAN Y    -0.521464     -0.044500  KCAL/ANGSTROM
     57         19  H    CARTESIAN Z     1.958507     -0.009646  KCAL/ANGSTROM




   ATOM   CHEMICAL          X               Y               Z
  NUMBER   SYMBOL      (ANGSTROMS)     (ANGSTROMS)     (ANGSTROMS)

     1       O         -1.20351650  *   1.17175094  *   1.87370943  *
     2       C         -0.80482870  *   0.21297051  *   0.96891526  *
     3       C         -1.62582850  *  -1.10316863  *   1.15325001  *
     4       O         -1.44527384  *  -1.78836100  *  -0.10335168  *
     5       C         -0.61221223  *  -0.95333321  *  -0.93222418  *
     6       C         -1.10430096  *   0.47032550  *  -0.54530256  *
     7       C          0.79250856  *  -1.04948344  *  -0.30345631  *
     8       C          1.59732460  *   0.21254108  *  -0.11245842  *
     9       C          0.66819512  *  -0.22598908  *   0.99494617  *
    10       H         -0.64073916  *   1.97313398  *   1.80538969  *
    11       H         -1.24706412  *  -1.76364701  *   1.94137842  *
    12       H         -2.70248664  *  -0.92468484  *   1.27301352  *
    13       H         -0.73824588  *  -1.30342457  *  -1.95654861  *
    14       H         -2.16908465  *   0.63110373  *  -0.75021604  *
    15       H         -0.56165698  *   1.30067522  *  -0.99495480  *
    16       H          1.26997442  *  -2.01764663  *  -0.36814026  *
    17       H          2.67064797  *   0.12182689  *   0.05027311  *
    18       H          1.40105912  *   1.10251533  *  -0.70141600  *
    19       H          1.05977974  *  -0.52146434  *   1.95850691  *

                             CARTESIAN COORDINATES

   1    O       -1.203516504     1.171750940     1.873709428
   2    C       -0.804828697     0.212970508     0.968915263
   3    C       -1.625828503    -1.103168631     1.153250012
   4    O       -1.445273842    -1.788361004    -0.103351677
   5    C       -0.612212231    -0.953333215    -0.932224176
   6    C       -1.104300961     0.470325500    -0.545302558
   7    C        0.792508559    -1.049483441    -0.303456305
   8    C        1.597324603     0.212541084    -0.112458421
   9    C        0.668195117    -0.225989082     0.994946168
  10    H       -0.640739163     1.973133977     1.805389686
  11    H       -1.247064123    -1.763647008     1.941378417
  12    H       -2.702486645    -0.924684839     1.273013518
  13    H       -0.738245881    -1.303424567    -1.956548614
  14    H       -2.169084651     0.631103725    -0.750216043
  15    H       -0.561656979     1.300675218    -0.994954800
  16    H        1.269974419    -2.017646633    -0.368140259
  17    H        2.670647972     0.121826890     0.050273106
  18    H        1.401059120     1.102515333    -0.701415997
  19    H        1.059779739    -0.521464345     1.958506913


           Empirical Formula: C7 H10 O2  =    19 atoms



      MOLECULAR POINT GROUP   :   C1  


                  EIGENVALUES  
 -33.06072 -29.74090 -29.09605 -25.87206 -25.21191 -22.42818 -21.58261 -19.62727
 -18.92331 -18.35666 -17.19052 -16.42105 -15.56425 -14.98814 -14.09770 -14.02312
 -13.38776 -13.25461 -12.56640 -12.55058 -12.34210 -11.44428 -11.17191 -10.65413
  -9.98685   1.80302   1.95628   2.72096   3.10383   3.28080   3.46633   3.69579
   4.02176   4.21641   4.39139   4.50411   5.24320   5.57329   5.65220   5.70796
   5.81506   5.95146   6.00554   6.02806   6.13621   6.38353


              NET ATOMIC CHARGES AND DIPOLE CONTRIBUTIONS

  ATOM NO.   TYPE          CHARGE      No. of ELECS.   s-Pop       p-Pop       
    1          O          -0.525378        6.5254     1.84003     4.68535
    2          C           0.275418        3.7246     1.08650     2.63808
    3          C          -0.073261        4.0733     1.10281     2.97046
    4          O          -0.397846        6.3978     1.89494     4.50290
    5          C           0.130708        3.8693     1.09901     2.77028
    6          C          -0.396682        4.3967     1.08605     3.31063
    7          C          -0.201240        4.2012     1.07034     3.13090
    8          C          -0.311453        4.3115     1.05291     3.25855
    9          C          -0.242489        4.2425     1.07063     3.17186
   10          H           0.327556        0.6724     0.67244
   11          H           0.141261        0.8587     0.85874
   12          H           0.146361        0.8536     0.85364
   13          H           0.148824        0.8512     0.85118
   14          H           0.167684        0.8323     0.83232
   15          H           0.153979        0.8460     0.84602
   16          H           0.167858        0.8321     0.83214
   17          H           0.160586        0.8394     0.83941
   18          H           0.159498        0.8405     0.84050
   19          H           0.168616        0.8314     0.83138
 DIPOLE           X         Y         Z       TOTAL
 POINT-CHG.     1.663     1.281    -0.794     2.245
 HYBRID         0.166     0.302     0.124     0.367
 SUM            1.830     1.584    -0.669     2.511


          ATOMIC ORBITAL ELECTRON POPULATIONS

     Atom    s        px        py        pz   
    1  O   1.84003   1.65077   1.39452   1.64006
    2  C   1.08650   0.91956   0.86391   0.85461
    3  C   1.10281   1.10384   0.97562   0.89099
    4  O   1.89494   1.72244   1.46132   1.31914
    5  C   1.09901   0.88774   0.89602   0.98652
    6  C   1.08605   1.17314   1.07346   1.06403
    7  C   1.07034   1.04147   1.04100   1.04842
    8  C   1.05291   1.08397   1.07598   1.09860
    9  C   1.07063   1.02546   1.13114   1.01526
   10  H   0.67244
   11  H   0.85874
   12  H   0.85364
   13  H   0.85118
   14  H   0.83232
   15  H   0.84602
   16  H   0.83214
   17  H   0.83941
   18  H   0.84050
   19  H   0.83138

 **********************
 *                    *
 * JOB ENDED NORMALLY *
 *                    *
 **********************



 TOTAL JOB TIME:             0.91 SECONDS

 == MOPAC DONE ==
