 *******************************************************************************
 **                                                                           **
 **                              MOPAC v23.2                                  **
 **                                                                           **
 *******************************************************************************
 **          Digital Object Identifier (DOI): 10.5281/zenodo.6511958          **
 **    Visit the DOI location for information on how to cite this program.    **
 *******************************************************************************

                              PM7 CALCULATION RESULTS

 *******************************************************************************
 *  CALCULATION DONE: (MAX THREADS = 40)             Fri Sep 19 21:55:20 2025  *
 *  PM7        - The PM7 Hamiltonian to be used
 *  1SCF       - DO 1 SCF AND THEN STOP 
 *  T=         - A TIME OF 172800.0 SECONDS REQUESTED
 *  DUMP=N     - RESTART FILE WRITTEN EVERY 7200.0 SECONDS REQUESTED
 *  RELSCF     - DEFAULT SCF CRITERION MULTIPLIED BY 0.0001
 *              (DEFAULT SCF CRITERION = 0.00010)
 *  GRADIENTS  - ALL GRADIENTS TO BE PRINTED
 *  DISP       - PRINT DISPERSION AND HYDROGEN BOND ENERGIES
 *******************************************************************************
PM7 1SCF GRADIENTS DISP RELSCF=0.0001
 Title: ASE calculation

   ATOM   CHEMICAL          X               Y               Z
  NUMBER   SYMBOL      (ANGSTROMS)     (ANGSTROMS)     (ANGSTROMS)

     1       C          2.61154932  *  -0.72269482  *  -0.07868938  *
     2       C          1.61346154  *   0.37098888  *   0.19737219  *
     3       C          0.32389942  *   0.18530863  *   0.95534902  *
     4       O         -0.80224315  *  -0.63868555  *   0.95893331  *
     5       C         -1.68597443  *   0.12849197  *   0.03348721  *
     6       C         -2.58225824  *   1.06281307  *   0.81037301  *
     7       C         -2.38855574  *  -0.90364433  *  -0.81470055  *
     8       O         -0.82343138  *   1.00360555  *  -0.81101791  *
     9       C          0.39803259  *   0.34072524  *  -0.68139075  *
    10       H          3.32178588  *  -0.81859752  *   0.75590757  *
    11       H          2.13277083  *  -1.70474882  *  -0.20035381  *
    12       H          3.19014209  *  -0.51871901  *  -0.99060929  *
    13       H          2.10672205  *   1.32097028  *   0.47572081  *
    14       H          0.11712146  *   1.03732579  *   1.61413584  *
    15       H         -3.19570824  *   0.50716149  *   1.53160891  *
    16       H         -2.00127761  *   1.80560871  *   1.37432826  *
    17       H         -3.25178256  *   1.62004282  *   0.14164035  *
    18       H         -1.67293143  *  -1.54311063  *  -1.34911688  *
    19       H         -3.01240299  *  -1.56598512  *  -0.19918397  *
    20       H         -3.03041688  *  -0.42422235  *  -1.56567594  *
    21       H          0.37929457  *  -0.53064419  *  -1.34783068  *



          CARTESIAN COORDINATES 

    NO.       ATOM           X           Y           Z

     1         C          2.6115     -0.7227     -0.0787
     2         C          1.6135      0.3710      0.1974
     3         C          0.3239      0.1853      0.9553
     4         O         -0.8022     -0.6387      0.9589
     5         C         -1.6860      0.1285      0.0335
     6         C         -2.5823      1.0628      0.8104
     7         C         -2.3886     -0.9036     -0.8147
     8         O         -0.8234      1.0036     -0.8110
     9         C          0.3980      0.3407     -0.6814
    10         H          3.3218     -0.8186      0.7559
    11         H          2.1328     -1.7047     -0.2004
    12         H          3.1901     -0.5187     -0.9906
    13         H          2.1067      1.3210      0.4757
    14         H          0.1171      1.0373      1.6141
    15         H         -3.1957      0.5072      1.5316
    16         H         -2.0013      1.8056      1.3743
    17         H         -3.2518      1.6200      0.1416
    18         H         -1.6729     -1.5431     -1.3491
    19         H         -3.0124     -1.5660     -0.1992
    20         H         -3.0304     -0.4242     -1.5657
    21         H          0.3793     -0.5306     -1.3478

 General Reference for PM7:
 "Optimization of Parameters for Semiempirical Methods VI: More Modifications to the 
 NDDO Approximations and Re-optimization of Parameters", J. J. P. Stewart, J. Mol. Mod., 1:32, 19 (2013)
 https://link.springer.com/article/10.1007/s00894-012-1667-x

           Empirical Formula: C7 H12 O2  =    21 atoms



      MOLECULAR POINT GROUP   :   C1  


      RHF CALCULATION, NO. OF DOUBLY OCCUPIED LEVELS = 26

  SCF CRITERION =    0.1000E-07

 -------------------------------------------------------------------------------
 PM7 1SCF GRADIENTS DISP RELSCF=0.0001
 Title: ASE calculation



     1SCF WAS SPECIFIED, SO BFGS WAS NOT USED                 
     SCF FIELD WAS ACHIEVED                                   


                              PM7 CALCULATION
                                                       MOPAC v23.2 Linux
                                                       Fri Sep 19 21:55:21 2025




          FINAL HEAT OF FORMATION =          1.56781 KCAL/MOL =       6.55973 KJ/MOL

          TOTAL ENERGY            =     -37093.82605 KCAL/MOL = ELECTRONIC ENERGY + CORE-CORE REPULSION
          ENERGY OF ATOMS         =      37097.27293 KCAL/MOL
                              SUM =          3.44688 KCAL/MOL
          DISPERSION ENERGY       =         -1.87907 KCAL/MOL
                              SUM =          1.56781 KCAL/MOL = FINAL HEAT OF FORMATION



          TOTAL ENERGY            =      -1608.54054 EV
          ELECTRONIC ENERGY       =      -8174.81503 EV 
          CORE-CORE REPULSION     =       6566.27449 EV
          COSMO AREA              =        167.29 SQUARE ANGSTROMS
          COSMO VOLUME            =        167.55 CUBIC ANGSTROMS

          GRADIENT NORM           =          1.15120          =       0.25121 PER ATOM
          IONIZATION POTENTIAL    =          8.879182 EV
          HOMO LUMO ENERGIES (EV) =         -8.879  0.301
          NO. OF FILLED LEVELS    =         26
          MOLECULAR WEIGHT        =        128.1706         POINT GROUP:  C1  

          MOLECULAR DIMENSIONS (Angstroms)

            Atom       Atom       Distance
            H    17    H    10     7.03819
            H    13    H    19     4.50015
            H    15    H    21     3.20380


          SCF CALCULATIONS        =          1

          WALL-CLOCK TIME         =      0.922 SECONDS
          COMPUTATION TIME        =      0.425 SECONDS

          LARGEST ATOMIC GRADIENTS

          Atom     Label                     Cartesian Gradients           Cartesian Coordinates       |Gradient|
                                           X          Y          Z        X          Y          Z

            20       H                  -0.299      0.203      0.231   -3.03042   -0.42422   -1.56568      0.429
             1       C                   0.336     -0.147     -0.095    2.61155   -0.72269   -0.07869      0.379
            12       H                   0.056      0.160     -0.333    3.19014   -0.51872   -0.99061      0.373
            10       H                   0.166      0.162      0.291    3.32179   -0.81860    0.75591      0.372
             8       O                   0.257      0.201     -0.083   -0.82343    1.00361   -0.81102      0.337
             9       C                   0.123     -0.128     -0.219    0.39803    0.34073   -0.68139      0.282
            21       H                   0.146     -0.018     -0.224    0.37929   -0.53064   -1.34783      0.268
             2       C                  -0.183     -0.188      0.006    1.61346    0.37099    0.19737      0.262
             3       C                  -0.095      0.008      0.213    0.32390    0.18531    0.95535      0.233
            15       H                   0.010     -0.088     -0.205   -3.19571    0.50716    1.53161      0.224



       FINAL  POINT  AND  DERIVATIVES

   PARAMETER     ATOM    TYPE            VALUE        GRADIENT
      1          1  C    CARTESIAN X     2.611549      0.336032  KCAL/ANGSTROM
      2          1  C    CARTESIAN Y    -0.722695     -0.146894  KCAL/ANGSTROM
      3          1  C    CARTESIAN Z    -0.078689     -0.094779  KCAL/ANGSTROM
      4          2  C    CARTESIAN X     1.613462     -0.183217  KCAL/ANGSTROM
      5          2  C    CARTESIAN Y     0.370989     -0.187858  KCAL/ANGSTROM
      6          2  C    CARTESIAN Z     0.197372      0.005746  KCAL/ANGSTROM
      7          3  C    CARTESIAN X     0.323899     -0.094692  KCAL/ANGSTROM
      8          3  C    CARTESIAN Y     0.185309      0.008315  KCAL/ANGSTROM
      9          3  C    CARTESIAN Z     0.955349      0.212977  KCAL/ANGSTROM
     10          4  O    CARTESIAN X    -0.802243      0.002857  KCAL/ANGSTROM
     11          4  O    CARTESIAN Y    -0.638686     -0.127461  KCAL/ANGSTROM
     12          4  O    CARTESIAN Z     0.958933      0.181248  KCAL/ANGSTROM
     13          5  C    CARTESIAN X    -1.685974     -0.060246  KCAL/ANGSTROM
     14          5  C    CARTESIAN Y     0.128492     -0.001100  KCAL/ANGSTROM
     15          5  C    CARTESIAN Z     0.033487     -0.041081  KCAL/ANGSTROM
     16          6  C    CARTESIAN X    -2.582258      0.092603  KCAL/ANGSTROM
     17          6  C    CARTESIAN Y     1.062813      0.123285  KCAL/ANGSTROM
     18          6  C    CARTESIAN Z     0.810373     -0.108339  KCAL/ANGSTROM
     19          7  C    CARTESIAN X    -2.388556     -0.025925  KCAL/ANGSTROM
     20          7  C    CARTESIAN Y    -0.903644     -0.061697  KCAL/ANGSTROM
     21          7  C    CARTESIAN Z    -0.814701      0.028314  KCAL/ANGSTROM
     22          8  O    CARTESIAN X    -0.823431      0.257168  KCAL/ANGSTROM
     23          8  O    CARTESIAN Y     1.003606      0.201451  KCAL/ANGSTROM
     24          8  O    CARTESIAN Z    -0.811018     -0.083312  KCAL/ANGSTROM
     25          9  C    CARTESIAN X     0.398033      0.123339  KCAL/ANGSTROM
     26          9  C    CARTESIAN Y     0.340725     -0.127827  KCAL/ANGSTROM
     27          9  C    CARTESIAN Z    -0.681391     -0.218713  KCAL/ANGSTROM
     28         10  H    CARTESIAN X     3.321786      0.165994  KCAL/ANGSTROM
     29         10  H    CARTESIAN Y    -0.818598      0.161712  KCAL/ANGSTROM
     30         10  H    CARTESIAN Z     0.755908      0.290711  KCAL/ANGSTROM
     31         11  H    CARTESIAN X     2.132771     -0.150719  KCAL/ANGSTROM
     32         11  H    CARTESIAN Y    -1.704749      0.041373  KCAL/ANGSTROM
     33         11  H    CARTESIAN Z    -0.200354      0.024131  KCAL/ANGSTROM
     34         12  H    CARTESIAN X     3.190142      0.055945  KCAL/ANGSTROM
     35         12  H    CARTESIAN Y    -0.518719      0.159826  KCAL/ANGSTROM
     36         12  H    CARTESIAN Z    -0.990609     -0.332647  KCAL/ANGSTROM
     37         13  H    CARTESIAN X     2.106722     -0.175167  KCAL/ANGSTROM
     38         13  H    CARTESIAN Y     1.320970     -0.021972  KCAL/ANGSTROM
     39         13  H    CARTESIAN Z     0.475721      0.081179  KCAL/ANGSTROM
     40         14  H    CARTESIAN X     0.117121     -0.080093  KCAL/ANGSTROM
     41         14  H    CARTESIAN Y     1.037326     -0.011534  KCAL/ANGSTROM
     42         14  H    CARTESIAN Z     1.614136      0.147176  KCAL/ANGSTROM
     43         15  H    CARTESIAN X    -3.195708      0.010291  KCAL/ANGSTROM
     44         15  H    CARTESIAN Y     0.507161     -0.088349  KCAL/ANGSTROM
     45         15  H    CARTESIAN Z     1.531609     -0.205481  KCAL/ANGSTROM
     46         16  H    CARTESIAN X    -2.001278      0.029967  KCAL/ANGSTROM
     47         16  H    CARTESIAN Y     1.805609      0.088655  KCAL/ANGSTROM
     48         16  H    CARTESIAN Z     1.374328      0.122471  KCAL/ANGSTROM
     49         17  H    CARTESIAN X    -3.251783     -0.067071  KCAL/ANGSTROM
     50         17  H    CARTESIAN Y     1.620043      0.095700  KCAL/ANGSTROM
     51         17  H    CARTESIAN Z     0.141640     -0.053817  KCAL/ANGSTROM
     52         18  H    CARTESIAN X    -1.672931      0.022202  KCAL/ANGSTROM
     53         18  H    CARTESIAN Y    -1.543111     -0.148504  KCAL/ANGSTROM
     54         18  H    CARTESIAN Z    -1.349117      0.037325  KCAL/ANGSTROM
     55         19  H    CARTESIAN X    -3.012403     -0.106189  KCAL/ANGSTROM
     56         19  H    CARTESIAN Y    -1.565985     -0.141999  KCAL/ANGSTROM
     57         19  H    CARTESIAN Z    -0.199184     -0.000771  KCAL/ANGSTROM
     58         20  H    CARTESIAN X    -3.030417     -0.299081  KCAL/ANGSTROM
     59         20  H    CARTESIAN Y    -0.424222      0.203278  KCAL/ANGSTROM
     60         20  H    CARTESIAN Z    -1.565676      0.231246  KCAL/ANGSTROM
     61         21  H    CARTESIAN X     0.379295      0.146005  KCAL/ANGSTROM
     62         21  H    CARTESIAN Y    -0.530644     -0.018403  KCAL/ANGSTROM
     63         21  H    CARTESIAN Z    -1.347831     -0.223588  KCAL/ANGSTROM




   ATOM   CHEMICAL          X               Y               Z
  NUMBER   SYMBOL      (ANGSTROMS)     (ANGSTROMS)     (ANGSTROMS)

     1       C          2.61154932  *  -0.72269482  *  -0.07868938  *
     2       C          1.61346154  *   0.37098888  *   0.19737219  *
     3       C          0.32389942  *   0.18530863  *   0.95534902  *
     4       O         -0.80224315  *  -0.63868555  *   0.95893331  *
     5       C         -1.68597443  *   0.12849197  *   0.03348721  *
     6       C         -2.58225824  *   1.06281307  *   0.81037301  *
     7       C         -2.38855574  *  -0.90364433  *  -0.81470055  *
     8       O         -0.82343138  *   1.00360555  *  -0.81101791  *
     9       C          0.39803259  *   0.34072524  *  -0.68139075  *
    10       H          3.32178588  *  -0.81859752  *   0.75590757  *
    11       H          2.13277083  *  -1.70474882  *  -0.20035381  *
    12       H          3.19014209  *  -0.51871901  *  -0.99060929  *
    13       H          2.10672205  *   1.32097028  *   0.47572081  *
    14       H          0.11712146  *   1.03732579  *   1.61413584  *
    15       H         -3.19570824  *   0.50716149  *   1.53160891  *
    16       H         -2.00127761  *   1.80560871  *   1.37432826  *
    17       H         -3.25178256  *   1.62004282  *   0.14164035  *
    18       H         -1.67293143  *  -1.54311063  *  -1.34911688  *
    19       H         -3.01240299  *  -1.56598512  *  -0.19918397  *
    20       H         -3.03041688  *  -0.42422235  *  -1.56567594  *
    21       H          0.37929457  *  -0.53064419  *  -1.34783068  *

                             CARTESIAN COORDINATES

   1    C        2.611549317    -0.722694821    -0.078689382
   2    C        1.613461545     0.370988881     0.197372194
   3    C        0.323899424     0.185308625     0.955349015
   4    O       -0.802243152    -0.638685551     0.958933306
   5    C       -1.685974426     0.128491974     0.033487214
   6    C       -2.582258238     1.062813068     0.810373012
   7    C       -2.388555741    -0.903644329    -0.814700550
   8    O       -0.823431377     1.003605552    -0.811017910
   9    C        0.398032594     0.340725240    -0.681390749
  10    H        3.321785881    -0.818597516     0.755907572
  11    H        2.132770826    -1.704748819    -0.200353809
  12    H        3.190142086    -0.518719015    -0.990609292
  13    H        2.106722054     1.320970282     0.475720807
  14    H        0.117121458     1.037325792     1.614135845
  15    H       -3.195708241     0.507161489     1.531608912
  16    H       -2.001277608     1.805608708     1.374328260
  17    H       -3.251782564     1.620042817     0.141640346
  18    H       -1.672931431    -1.543110629    -1.349116880
  19    H       -3.012402989    -1.565985125    -0.199183974
  20    H       -3.030416884    -0.424222349    -1.565675939
  21    H        0.379294566    -0.530644187    -1.347830677


           Empirical Formula: C7 H12 O2  =    21 atoms



      MOLECULAR POINT GROUP   :   C1  


                  EIGENVALUES  
 -31.81755 -29.28331 -28.02760 -27.16858 -24.69746 -24.44107 -20.81075 -19.85462
 -19.36450 -17.83449 -16.08092 -15.69625 -15.57052 -14.97008 -14.65290 -14.25433
 -13.61692 -13.42916 -12.97623 -12.85440 -12.82064 -12.48935 -11.94164 -10.63536
  -9.87843  -8.87918   0.30116   2.33647   2.93436   3.38439   3.42066   3.75252
   3.88864   4.09816   4.47621   4.79031   5.26352   5.43504   5.53839   5.55532
   5.56339   5.59576   5.66634   5.85144   6.01176   6.57539   6.69041   6.82882


              NET ATOMIC CHARGES AND DIPOLE CONTRIBUTIONS

  ATOM NO.   TYPE          CHARGE      No. of ELECS.   s-Pop       p-Pop       
    1          C          -0.439055        4.4391     1.05086     3.38820
    2          C          -0.063150        4.0631     1.07163     2.99152
    3          C          -0.095583        4.0956     1.08065     3.01494
    4          O          -0.371047        6.3710     1.89999     4.47105
    5          C           0.456976        3.5430     1.12298     2.42004
    6          C          -0.502335        4.5023     1.06033     3.44201
    7          C          -0.502995        4.5030     1.06024     3.44275
    8          O          -0.380012        6.3800     1.89939     4.48062
    9          C          -0.072533        4.0725     1.08483     2.98771
   10          H           0.161116        0.8389     0.83888
   11          H           0.161793        0.8382     0.83821
   12          H           0.159324        0.8407     0.84068
   13          H           0.169364        0.8306     0.83064
   14          H           0.151621        0.8484     0.84838
   15          H           0.169065        0.8309     0.83094
   16          H           0.168740        0.8313     0.83126
   17          H           0.168350        0.8317     0.83165
   18          H           0.167991        0.8320     0.83201
   19          H           0.169118        0.8309     0.83088
   20          H           0.169194        0.8308     0.83081
   21          H           0.154058        0.8459     0.84594
 DIPOLE           X         Y         Z       TOTAL
 POINT-CHG.     0.592    -0.180    -0.052     0.621
 HYBRID        -0.342    -0.045    -0.040     0.347
 SUM            0.250    -0.224    -0.092     0.348


          ATOMIC ORBITAL ELECTRON POPULATIONS

     Atom    s        px        py        pz   
    1  C   1.05086   1.11021   1.09998   1.17800
    2  C   1.07163   0.93907   1.06878   0.98367
    3  C   1.08065   0.99206   1.02175   1.00112
    4  O   1.89999   1.29891   1.48525   1.68690
    5  C   1.12298   0.82064   0.82157   0.77783
    6  C   1.06033   1.14446   1.14202   1.15553
    7  C   1.06024   1.16463   1.12966   1.14846
    8  O   1.89939   1.23908   1.52650   1.71504
    9  C   1.08483   0.96604   1.05624   0.96543
   10  H   0.83888
   11  H   0.83821
   12  H   0.84068
   13  H   0.83064
   14  H   0.84838
   15  H   0.83094
   16  H   0.83126
   17  H   0.83165
   18  H   0.83201
   19  H   0.83088
   20  H   0.83081
   21  H   0.84594

 **********************
 *                    *
 * JOB ENDED NORMALLY *
 *                    *
 **********************



 TOTAL JOB TIME:             1.34 SECONDS

 == MOPAC DONE ==
