 *******************************************************************************
 **                                                                           **
 **                              MOPAC v23.2                                  **
 **                                                                           **
 *******************************************************************************
 **          Digital Object Identifier (DOI): 10.5281/zenodo.6511958          **
 **    Visit the DOI location for information on how to cite this program.    **
 *******************************************************************************

                              PM7 CALCULATION RESULTS

 *******************************************************************************
 *  CALCULATION DONE: (MAX THREADS = 40)             Fri Sep 19 21:32:52 2025  *
 *  PM7        - The PM7 Hamiltonian to be used
 *
 *
 *
 *                 CHARGE ON SYSTEM = +1
 *
 *
 *
 *  1SCF       - DO 1 SCF AND THEN STOP 
 *  T=         - A TIME OF 172800.0 SECONDS REQUESTED
 *  DUMP=N     - RESTART FILE WRITTEN EVERY 7200.0 SECONDS REQUESTED
 *  RELSCF     - DEFAULT SCF CRITERION MULTIPLIED BY 0.0001
 *              (DEFAULT SCF CRITERION = 0.00010)
 *  GRADIENTS  - ALL GRADIENTS TO BE PRINTED
 *  DISP       - PRINT DISPERSION AND HYDROGEN BOND ENERGIES
 *******************************************************************************
PM7 1SCF GRADIENTS DISP RELSCF=0.0001 CHARGE=1
 Title: ASE calculation

   ATOM   CHEMICAL          X               Y               Z
  NUMBER   SYMBOL      (ANGSTROMS)     (ANGSTROMS)     (ANGSTROMS)

     1       C         -1.96783526  *  -1.08770235  *   0.08488933  *
     2       C         -0.71604703  *  -0.34321291  *  -0.37603384  *
     3       C         -0.42653644  *   0.79855443  *   0.61481918  *
     4       C          0.82635145  *   1.53628903  *   0.23585879  *
     5       O          1.08119473  *   2.63347149  *   0.71492444  *
     6       C          1.78910482  *   0.87352480  *  -0.71140762  *
     7       C          1.83170577  *  -0.61415961  *  -0.29206132  *
     8       O          2.12191001  *  -0.50907390  *   1.08814999  *
     9       C          0.47937728  *  -1.30747750  *  -0.47238095  *
    10       H         -1.86392324  *  -1.51057486  *   1.09287339  *
    11       H         -2.85808481  *  -0.44352968  *   0.08831571  *
    12       H         -2.19871627  *  -1.93074862  *  -0.58538202  *
    13       H         -0.91740497  *   0.09361587  *  -1.38802115  *
    14       H         -1.29761449  *   1.49010653  *   0.70076163  *
    15       H         -0.26885588  *   0.37284890  *   1.64814026  *
    16       H          1.44724726  *   0.98881641  *  -1.76823778  *
    17       H          2.80795718  *   1.32708604  *  -0.65358389  *
    18       H          2.65741232  *  -1.14833591  *  -0.81898136  *
    19       H          2.49127560  *  -1.33906057  *   1.46119233  *
    20       H          0.44327728  *  -1.84709161  *  -1.44262763  *
    21       H          0.38489423  *  -2.11248657  *   0.29140265  *



          CARTESIAN COORDINATES 

    NO.       ATOM           X           Y           Z

     1         C         -1.9678     -1.0877      0.0849
     2         C         -0.7160     -0.3432     -0.3760
     3         C         -0.4265      0.7986      0.6148
     4         C          0.8264      1.5363      0.2359
     5         O          1.0812      2.6335      0.7149
     6         C          1.7891      0.8735     -0.7114
     7         C          1.8317     -0.6142     -0.2921
     8         O          2.1219     -0.5091      1.0881
     9         C          0.4794     -1.3075     -0.4724
    10         H         -1.8639     -1.5106      1.0929
    11         H         -2.8581     -0.4435      0.0883
    12         H         -2.1987     -1.9307     -0.5854
    13         H         -0.9174      0.0936     -1.3880
    14         H         -1.2976      1.4901      0.7008
    15         H         -0.2689      0.3728      1.6481
    16         H          1.4472      0.9888     -1.7682
    17         H          2.8080      1.3271     -0.6536
    18         H          2.6574     -1.1483     -0.8190
    19         H          2.4913     -1.3391      1.4612
    20         H          0.4433     -1.8471     -1.4426
    21         H          0.3849     -2.1125      0.2914

 General Reference for PM7:
 "Optimization of Parameters for Semiempirical Methods VI: More Modifications to the 
 NDDO Approximations and Re-optimization of Parameters", J. J. P. Stewart, J. Mol. Mod., 1:32, 19 (2013)
 https://link.springer.com/article/10.1007/s00894-012-1667-x

           Empirical Formula: C7 H12 O2  =    21 atoms



      MOLECULAR POINT GROUP   :   C1  


          UHF CALCULATION, NO. OF ALPHA ELECTRONS =   26
                           NO. OF BETA  ELECTRONS =   25
  SCF CRITERION =    0.1000E-07

 -------------------------------------------------------------------------------
 PM7 1SCF GRADIENTS DISP RELSCF=0.0001 CHARGE=1
 Title: ASE calculation



     1SCF WAS SPECIFIED, SO BFGS WAS NOT USED                 
     SCF FIELD WAS ACHIEVED                                   


                              PM7 CALCULATION
                                                       MOPAC v23.2 Linux
                                                       Fri Sep 19 21:32:53 2025




          FINAL HEAT OF FORMATION =        106.30716 KCAL/MOL =     444.78917 KJ/MOL

          TOTAL ENERGY            =     -36988.90255 KCAL/MOL = ELECTRONIC ENERGY + CORE-CORE REPULSION
          ENERGY OF ATOMS         =      37097.27293 KCAL/MOL
                              SUM =        108.37038 KCAL/MOL
          DISPERSION ENERGY       =         -2.06322 KCAL/MOL
                              SUM =        106.30716 KCAL/MOL = FINAL HEAT OF FORMATION



          TOTAL ENERGY            =      -1603.99063 EV
          ELECTRONIC ENERGY       =      -8081.97293 EV 
          CORE-CORE REPULSION     =       6477.98231 EV
          COSMO AREA              =        163.45 SQUARE ANGSTROMS
          COSMO VOLUME            =        166.58 CUBIC ANGSTROMS

          GRADIENT NORM           =          1.08297          =       0.23632 PER ATOM
          IONIZATION POTENTIAL    =         15.126675 EV
          ALPHA SOMO LUMO (EV)    =        -15.127 -5.836
          BETA  SOMO LUMO (EV)    =        -15.135 -8.392
          NO. OF ALPHA ELECTRONS  =         26
          NO. OF BETA  ELECTRONS  =         25
          MOLECULAR WEIGHT        =        128.1706         POINT GROUP:  C1  

          MOLECULAR DIMENSIONS (Angstroms)

            Atom       Atom       Distance
            H    17    H    11     5.98243
            O     5    H    20     4.72999
            H    16    H    19     4.07666


          SCF CALCULATIONS        =          1

          WALL-CLOCK TIME         =      0.531 SECONDS
          COMPUTATION TIME        =      0.520 SECONDS

          LARGEST ATOMIC GRADIENTS

          Atom     Label                     Cartesian Gradients           Cartesian Coordinates       |Gradient|
                                           X          Y          Z        X          Y          Z

             5       O                   0.074     -0.451     -0.020    1.08119    2.63347    0.71492      0.458
             7       C                   0.186      0.025      0.388    1.83171   -0.61416   -0.29206      0.430
            14       H                  -0.120      0.313     -0.148   -1.29761    1.49011    0.70076      0.366
            19       H                  -0.251      0.112     -0.156    2.49128   -1.33906    1.46119      0.316
            12       H                   0.170     -0.128      0.199   -2.19872   -1.93075   -0.58538      0.291
            18       H                   0.159      0.058     -0.221    2.65741   -1.14834   -0.81898      0.278
             9       C                  -0.071      0.175      0.180    0.47938   -1.30748   -0.47238      0.261
             3       C                   0.147     -0.190      0.027   -0.42654    0.79855    0.61482      0.242
            20       H                   0.062     -0.156     -0.130    0.44328   -1.84709   -1.44263      0.213
            21       H                   0.065     -0.136     -0.105    0.38489   -2.11249    0.29140      0.183



       FINAL  POINT  AND  DERIVATIVES

   PARAMETER     ATOM    TYPE            VALUE        GRADIENT
      1          1  C    CARTESIAN X    -1.967835     -0.056930  KCAL/ANGSTROM
      2          1  C    CARTESIAN Y    -1.087702      0.079248  KCAL/ANGSTROM
      3          1  C    CARTESIAN Z     0.084889      0.031501  KCAL/ANGSTROM
      4          2  C    CARTESIAN X    -0.716047     -0.002625  KCAL/ANGSTROM
      5          2  C    CARTESIAN Y    -0.343213      0.031414  KCAL/ANGSTROM
      6          2  C    CARTESIAN Z    -0.376034     -0.103334  KCAL/ANGSTROM
      7          3  C    CARTESIAN X    -0.426536      0.147131  KCAL/ANGSTROM
      8          3  C    CARTESIAN Y     0.798554     -0.189984  KCAL/ANGSTROM
      9          3  C    CARTESIAN Z     0.614819      0.027497  KCAL/ANGSTROM
     10          4  C    CARTESIAN X     0.826351      0.088671  KCAL/ANGSTROM
     11          4  C    CARTESIAN Y     1.536289      0.138951  KCAL/ANGSTROM
     12          4  C    CARTESIAN Z     0.235859     -0.055579  KCAL/ANGSTROM
     13          5  O    CARTESIAN X     1.081195      0.074121  KCAL/ANGSTROM
     14          5  O    CARTESIAN Y     2.633471     -0.451072  KCAL/ANGSTROM
     15          5  O    CARTESIAN Z     0.714924     -0.019900  KCAL/ANGSTROM
     16          6  C    CARTESIAN X     1.789105     -0.048730  KCAL/ANGSTROM
     17          6  C    CARTESIAN Y     0.873525     -0.025832  KCAL/ANGSTROM
     18          6  C    CARTESIAN Z    -0.711408      0.033704  KCAL/ANGSTROM
     19          7  C    CARTESIAN X     1.831706      0.185795  KCAL/ANGSTROM
     20          7  C    CARTESIAN Y    -0.614160      0.024699  KCAL/ANGSTROM
     21          7  C    CARTESIAN Z    -0.292061      0.387516  KCAL/ANGSTROM
     22          8  O    CARTESIAN X     2.121910     -0.151135  KCAL/ANGSTROM
     23          8  O    CARTESIAN Y    -0.509074      0.035702  KCAL/ANGSTROM
     24          8  O    CARTESIAN Z     1.088150     -0.009848  KCAL/ANGSTROM
     25          9  C    CARTESIAN X     0.479377     -0.071365  KCAL/ANGSTROM
     26          9  C    CARTESIAN Y    -1.307477      0.175466  KCAL/ANGSTROM
     27          9  C    CARTESIAN Z    -0.472381      0.179933  KCAL/ANGSTROM
     28         10  H    CARTESIAN X    -1.863923      0.094621  KCAL/ANGSTROM
     29         10  H    CARTESIAN Y    -1.510575     -0.105426  KCAL/ANGSTROM
     30         10  H    CARTESIAN Z     1.092873     -0.050347  KCAL/ANGSTROM
     31         11  H    CARTESIAN X    -2.858085     -0.005022  KCAL/ANGSTROM
     32         11  H    CARTESIAN Y    -0.443530      0.108654  KCAL/ANGSTROM
     33         11  H    CARTESIAN Z     0.088316      0.021217  KCAL/ANGSTROM
     34         12  H    CARTESIAN X    -2.198716      0.169991  KCAL/ANGSTROM
     35         12  H    CARTESIAN Y    -1.930749     -0.127623  KCAL/ANGSTROM
     36         12  H    CARTESIAN Z    -0.585382      0.198732  KCAL/ANGSTROM
     37         13  H    CARTESIAN X    -0.917405     -0.061589  KCAL/ANGSTROM
     38         13  H    CARTESIAN Y     0.093616      0.055886  KCAL/ANGSTROM
     39         13  H    CARTESIAN Z    -1.388021      0.033399  KCAL/ANGSTROM
     40         14  H    CARTESIAN X    -1.297614     -0.119880  KCAL/ANGSTROM
     41         14  H    CARTESIAN Y     1.490107      0.313028  KCAL/ANGSTROM
     42         14  H    CARTESIAN Z     0.700762     -0.147553  KCAL/ANGSTROM
     43         15  H    CARTESIAN X    -0.268856     -0.060554  KCAL/ANGSTROM
     44         15  H    CARTESIAN Y     0.372849      0.072380  KCAL/ANGSTROM
     45         15  H    CARTESIAN Z     1.648140      0.010961  KCAL/ANGSTROM
     46         16  H    CARTESIAN X     1.447247     -0.094146  KCAL/ANGSTROM
     47         16  H    CARTESIAN Y     0.988816      0.072390  KCAL/ANGSTROM
     48         16  H    CARTESIAN Z    -1.768238     -0.010196  KCAL/ANGSTROM
     49         17  H    CARTESIAN X     2.807957     -0.123774  KCAL/ANGSTROM
     50         17  H    CARTESIAN Y     1.327086     -0.085587  KCAL/ANGSTROM
     51         17  H    CARTESIAN Z    -0.653584      0.083887  KCAL/ANGSTROM
     52         18  H    CARTESIAN X     2.657412      0.158910  KCAL/ANGSTROM
     53         18  H    CARTESIAN Y    -1.148336      0.057621  KCAL/ANGSTROM
     54         18  H    CARTESIAN Z    -0.818981     -0.220597  KCAL/ANGSTROM
     55         19  H    CARTESIAN X     2.491276     -0.250559  KCAL/ANGSTROM
     56         19  H    CARTESIAN Y    -1.339061      0.112350  KCAL/ANGSTROM
     57         19  H    CARTESIAN Z     1.461192     -0.156420  KCAL/ANGSTROM
     58         20  H    CARTESIAN X     0.443277      0.062227  KCAL/ANGSTROM
     59         20  H    CARTESIAN Y    -1.847092     -0.156138  KCAL/ANGSTROM
     60         20  H    CARTESIAN Z    -1.442628     -0.130044  KCAL/ANGSTROM
     61         21  H    CARTESIAN X     0.384894      0.064841  KCAL/ANGSTROM
     62         21  H    CARTESIAN Y    -2.112487     -0.136132  KCAL/ANGSTROM
     63         21  H    CARTESIAN Z     0.291403     -0.104532  KCAL/ANGSTROM




   ATOM   CHEMICAL          X               Y               Z
  NUMBER   SYMBOL      (ANGSTROMS)     (ANGSTROMS)     (ANGSTROMS)

     1       C         -1.96783526  *  -1.08770235  *   0.08488933  *
     2       C         -0.71604703  *  -0.34321291  *  -0.37603384  *
     3       C         -0.42653644  *   0.79855443  *   0.61481918  *
     4       C          0.82635145  *   1.53628903  *   0.23585879  *
     5       O          1.08119473  *   2.63347149  *   0.71492444  *
     6       C          1.78910482  *   0.87352480  *  -0.71140762  *
     7       C          1.83170577  *  -0.61415961  *  -0.29206132  *
     8       O          2.12191001  *  -0.50907390  *   1.08814999  *
     9       C          0.47937728  *  -1.30747750  *  -0.47238095  *
    10       H         -1.86392324  *  -1.51057486  *   1.09287339  *
    11       H         -2.85808481  *  -0.44352968  *   0.08831571  *
    12       H         -2.19871627  *  -1.93074862  *  -0.58538202  *
    13       H         -0.91740497  *   0.09361587  *  -1.38802115  *
    14       H         -1.29761449  *   1.49010653  *   0.70076163  *
    15       H         -0.26885588  *   0.37284890  *   1.64814026  *
    16       H          1.44724726  *   0.98881641  *  -1.76823778  *
    17       H          2.80795718  *   1.32708604  *  -0.65358389  *
    18       H          2.65741232  *  -1.14833591  *  -0.81898136  *
    19       H          2.49127560  *  -1.33906057  *   1.46119233  *
    20       H          0.44327728  *  -1.84709161  *  -1.44262763  *
    21       H          0.38489423  *  -2.11248657  *   0.29140265  *

                             CARTESIAN COORDINATES

   1    C       -1.967835261    -1.087702352     0.084889333
   2    C       -0.716047030    -0.343212909    -0.376033841
   3    C       -0.426536443     0.798554429     0.614819182
   4    C        0.826351447     1.536289031     0.235858792
   5    O        1.081194731     2.633471489     0.714924436
   6    C        1.789104818     0.873524803    -0.711407616
   7    C        1.831705770    -0.614159613    -0.292061322
   8    O        2.121910010    -0.509073899     1.088149990
   9    C        0.479377276    -1.307477497    -0.472380951
  10    H       -1.863923235    -1.510574858     1.092873391
  11    H       -2.858084808    -0.443529683     0.088315709
  12    H       -2.198716267    -1.930748622    -0.585382020
  13    H       -0.917404965     0.093615875    -1.388021151
  14    H       -1.297614490     1.490106528     0.700761631
  15    H       -0.268855877     0.372848895     1.648140265
  16    H        1.447247260     0.988816414    -1.768237779
  17    H        2.807957176     1.327086040    -0.653583891
  18    H        2.657412316    -1.148335914    -0.818981361
  19    H        2.491275597    -1.339060572     1.461192330
  20    H        0.443277284    -1.847091612    -1.442627630
  21    H        0.384894234    -2.112486571     0.291402655


           Empirical Formula: C7 H12 O2  =    21 atoms



      MOLECULAR POINT GROUP   :   C1  


          ALPHA EIGENVALUES  
 -40.47198 -35.85088 -33.30559 -31.85403 -30.56798 -28.31638 -26.19886 -25.38892
 -23.38079 -22.89833 -22.26376 -21.79446 -20.95816 -20.16808 -19.70021 -19.32006
 -18.47119 -18.13208 -18.02102 -17.85662 -17.27206 -16.80384 -16.49872 -16.00936
 -15.83795 -15.12667  -5.83618  -3.02177  -2.61578  -2.29427  -1.72225  -1.34455
  -1.05936  -0.68991  -0.22765   0.04582   0.18499   0.34058   0.70195   0.95323
   0.99360   1.30110   1.57279   1.83633   2.06491   2.11712   2.30189   3.26096


           BETA EIGENVALUES 
 -37.70675 -35.54784 -33.25060 -31.65734 -30.28048 -28.21373 -25.87805 -25.02814
 -23.31221 -22.66965 -21.70046 -21.03821 -20.61837 -19.80374 -19.51459 -18.85176
 -18.31240 -17.97207 -17.83514 -17.40628 -16.80747 -16.56986 -15.97172 -15.83370
 -15.13507  -8.39209  -5.66710  -2.73363  -2.16560  -2.00427  -1.70203  -1.26869
  -0.99372  -0.68319  -0.21729   0.06656   0.20002   0.35643   0.71151   0.95883
   1.00098   1.30193   1.57392   1.83679   2.06800   2.11837   2.30205   3.26175


              NET ATOMIC CHARGES AND DIPOLE CONTRIBUTIONS

  ATOM NO.   TYPE          CHARGE      No. of ELECS.   s-Pop       p-Pop       
    1          C          -0.457314        4.4573     1.05611     3.40120
    2          C          -0.061343        4.0613     1.06159     2.99976
    3          C          -0.303404        4.3034     1.08983     3.21358
    4          C           0.356898        3.6431     1.18815     2.45495
    5          O           0.136385        5.8636     1.90526     3.95836
    6          C          -0.322493        4.3225     1.09045     3.23204
    7          C           0.187432        3.8126     1.09097     2.72160
    8          O          -0.604104        6.6041     1.84515     4.75896
    9          C          -0.361468        4.3615     1.07449     3.28698
   10          H           0.165318        0.8347     0.83468
   11          H           0.167745        0.8323     0.83225
   12          H           0.177394        0.8226     0.82261
   13          H           0.151617        0.8484     0.84838
   14          H           0.206331        0.7937     0.79367
   15          H           0.235650        0.7643     0.76435
   16          H           0.220534        0.7795     0.77947
   17          H           0.215599        0.7844     0.78440
   18          H           0.159614        0.8404     0.84039
   19          H           0.364954        0.6350     0.63505
   20          H           0.178647        0.8214     0.82135
   21          H           0.186006        0.8140     0.81399
 DIPOLE           X         Y         Z       TOTAL
 POINT-CHG.     0.054     1.033    -1.819     2.092
 HYBRID         0.376     0.647     0.721     1.040
 SUM            0.430     1.680    -1.097     2.052


          ATOMIC ORBITAL ELECTRON POPULATIONS

     Atom    s        px        py        pz   
    1  C   1.05611   1.05694   1.15691   1.18736
    2  C   1.06159   0.99625   0.95877   1.04473
    3  C   1.08983   0.96857   1.08578   1.15923
    4  C   1.18815   0.90136   0.81040   0.74320
    5  O   1.90526   1.27238   1.29153   1.39445
    6  C   1.09045   1.09067   1.07166   1.06971
    7  C   1.09097   1.02332   0.91039   0.78789
    8  O   1.84515   1.89079   1.53360   1.33457
    9  C   1.07449   0.98716   1.09064   1.20918
   10  H   0.83468
   11  H   0.83225
   12  H   0.82261
   13  H   0.84838
   14  H   0.79367
   15  H   0.76435
   16  H   0.77947
   17  H   0.78440
   18  H   0.84039
   19  H   0.63505
   20  H   0.82135
   21  H   0.81399


                    (SZ)    =    0.500000
                    (S**2)  =    0.766409


          ATOMIC ORBITAL SPIN POPULATIONS

    Atom   Total    s     px     py     pz   
         Atomic
    1  C  0.0081  0.001  0.004  0.003  0.000
    2  C -0.0025 -0.001  0.001 -0.001 -0.003
    3  C  0.1245  0.007  0.073  0.033  0.011
    4  C -0.1215 -0.021 -0.015 -0.041 -0.045
    5  O  0.8737  0.017  0.579  0.028  0.249
    6  C  0.1305  0.009  0.043  0.032  0.046
    7  C -0.0050 -0.001  0.001 -0.003 -0.002
    8  O  0.0021 -0.000  0.000  0.000  0.002
    9  C  0.0016  0.000  0.001  0.000  0.000
   10  H -0.0002 -0.000
   11  H -0.0003 -0.000
   12  H  0.0007  0.001
   13  H  0.0002  0.000
   14  H -0.0036 -0.004
   15  H -0.0056 -0.006
   16  H -0.0044 -0.004
   17  H -0.0035 -0.003
   18  H  0.0059  0.006
   19  H -0.0003 -0.000
   20  H -0.0002 -0.000
   21  H -0.0002 -0.000

 **********************
 *                    *
 * JOB ENDED NORMALLY *
 *                    *
 **********************



 TOTAL JOB TIME:             0.92 SECONDS

 == MOPAC DONE ==
