 *******************************************************************************
 **                                                                           **
 **                              MOPAC v23.2                                  **
 **                                                                           **
 *******************************************************************************
 **          Digital Object Identifier (DOI): 10.5281/zenodo.6511958          **
 **    Visit the DOI location for information on how to cite this program.    **
 *******************************************************************************

                              PM7 CALCULATION RESULTS

 *******************************************************************************
 *  CALCULATION DONE: (MAX THREADS = 40)             Fri Sep 19 21:33:07 2025  *
 *  PM7        - The PM7 Hamiltonian to be used
 *
 *
 *
 *                 CHARGE ON SYSTEM = +1
 *
 *
 *
 *  1SCF       - DO 1 SCF AND THEN STOP 
 *  T=         - A TIME OF 172800.0 SECONDS REQUESTED
 *  DUMP=N     - RESTART FILE WRITTEN EVERY 7200.0 SECONDS REQUESTED
 *  RELSCF     - DEFAULT SCF CRITERION MULTIPLIED BY 0.0001
 *              (DEFAULT SCF CRITERION = 0.00010)
 *  GRADIENTS  - ALL GRADIENTS TO BE PRINTED
 *  DISP       - PRINT DISPERSION AND HYDROGEN BOND ENERGIES
 *******************************************************************************
PM7 1SCF GRADIENTS DISP RELSCF=0.0001 CHARGE=1
 Title: ASE calculation

   ATOM   CHEMICAL          X               Y               Z
  NUMBER   SYMBOL      (ANGSTROMS)     (ANGSTROMS)     (ANGSTROMS)

     1       C          3.13357614  *   2.05141116  *   0.51081443  *
     2       C          1.90635917  *   1.81340380  *   0.14054801  *
     3       C          0.63781676  *   1.54269624  *  -0.19270501  *
     4       C         -0.44075659  *   0.90957876  *   0.61082420  *
     5       C         -0.30587108  *  -0.51801729  *   0.51958818  *
     6       C         -0.20948944  *  -1.72356296  *   0.46455895  *
     7       C         -1.84062730  *   1.39500491  *   0.08715176  *
     8       C         -2.98168087  *   0.53505331  *   0.57468887  *
     9       O         -1.71098286  *   1.38405842  *  -1.32298007  *
    10       H          4.11448469  *   2.23967595  *   0.79688405  *
    11       H          0.40809929  *   1.36460265  *  -1.54681475  *
    12       H          0.19064316  *   2.21355739  *  -1.31145653  *
    13       H         -0.35028777  *   1.22641313  *   1.69818450  *
    14       H         -0.12895410  *  -2.75623874  *   0.41985118  *
    15       H         -1.99022647  *   2.47487983  *   0.33289432  *
    16       H         -2.85987221  *  -0.52633147  *   0.31045017  *
    17       H         -3.08868943  *   0.57150086  *   1.67068226  *
    18       H         -3.94759924  *   0.86634059  *   0.15980517  *
    19       H         -2.34526168  *   0.78093957  *  -1.76744873  *



          CARTESIAN COORDINATES 

    NO.       ATOM           X           Y           Z

     1         C          3.1336      2.0514      0.5108
     2         C          1.9064      1.8134      0.1405
     3         C          0.6378      1.5427     -0.1927
     4         C         -0.4408      0.9096      0.6108
     5         C         -0.3059     -0.5180      0.5196
     6         C         -0.2095     -1.7236      0.4646
     7         C         -1.8406      1.3950      0.0872
     8         C         -2.9817      0.5351      0.5747
     9         O         -1.7110      1.3841     -1.3230
    10         H          4.1145      2.2397      0.7969
    11         H          0.4081      1.3646     -1.5468
    12         H          0.1906      2.2136     -1.3115
    13         H         -0.3503      1.2264      1.6982
    14         H         -0.1290     -2.7562      0.4199
    15         H         -1.9902      2.4749      0.3329
    16         H         -2.8599     -0.5263      0.3105
    17         H         -3.0887      0.5715      1.6707
    18         H         -3.9476      0.8663      0.1598
    19         H         -2.3453      0.7809     -1.7674

 General Reference for PM7:
 "Optimization of Parameters for Semiempirical Methods VI: More Modifications to the 
 NDDO Approximations and Re-optimization of Parameters", J. J. P. Stewart, J. Mol. Mod., 1:32, 19 (2013)
 https://link.springer.com/article/10.1007/s00894-012-1667-x

           Empirical Formula: C8 H10 O  =    19 atoms



      MOLECULAR POINT GROUP   :   C1  


          UHF CALCULATION, NO. OF ALPHA ELECTRONS =   24
                           NO. OF BETA  ELECTRONS =   23
  SCF CRITERION =    0.1000E-07

 -------------------------------------------------------------------------------
 PM7 1SCF GRADIENTS DISP RELSCF=0.0001 CHARGE=1
 Title: ASE calculation



     1SCF WAS SPECIFIED, SO BFGS WAS NOT USED                 
     SCF FIELD WAS ACHIEVED                                   


                              PM7 CALCULATION
                                                       MOPAC v23.2 Linux
                                                       Fri Sep 19 21:33:08 2025




          FINAL HEAT OF FORMATION =        262.73820 KCAL/MOL =    1099.29665 KJ/MOL

          TOTAL ENERGY            =     -32301.66349 KCAL/MOL = ELECTRONIC ENERGY + CORE-CORE REPULSION
          ENERGY OF ATOMS         =      32552.68886 KCAL/MOL
                              SUM =        251.02536 KCAL/MOL
          DISPERSION ENERGY       =         -2.03513 KCAL/MOL
                              SUM =        248.99023 KCAL/MOL = FINAL HEAT OF FORMATION

     *    WARNING - An energy term is incorrect or missing!

     *    FINAL HEAT OF FORMATION     =    262.73821 KCAL/MOL
     *    SUM OF CONTRIBUTIONS TO HoF =    248.99023 KCAL/MOL
     *                     DIFFERENCE =     13.74797 KCAL/MOL



          TOTAL ENERGY            =      -1400.73270 EV
          ELECTRONIC ENERGY       =      -6647.58718 EV 
          CORE-CORE REPULSION     =       5246.85448 EV
          COSMO AREA              =        180.07 SQUARE ANGSTROMS
          COSMO VOLUME            =        177.93 CUBIC ANGSTROMS

          GRADIENT NORM           =          1.44811          =       0.33222 PER ATOM
          IONIZATION POTENTIAL    =         14.505052 EV
          ALPHA SOMO LUMO (EV)    =        -14.505 -5.045
          BETA  SOMO LUMO (EV)    =        -14.557 -6.549
          NO. OF ALPHA ELECTRONS  =         24
          NO. OF BETA  ELECTRONS  =         23
          MOLECULAR WEIGHT        =        122.1664         POINT GROUP:  C1  

          MOLECULAR DIMENSIONS (Angstroms)

            Atom       Atom       Distance
            H    18    H    10     8.20299
            H    14    H    15     5.46940
            H    19    H    17     3.48720


          SCF CALCULATIONS        =          1

          WALL-CLOCK TIME         =      0.891 SECONDS
          COMPUTATION TIME        =      0.373 SECONDS

          LARGEST ATOMIC GRADIENTS

          Atom     Label                     Cartesian Gradients           Cartesian Coordinates       |Gradient|
                                           X          Y          Z        X          Y          Z

            16       H                   0.445      0.064      0.064   -2.85987   -0.52633    0.31045      0.454
             5       C                   0.083      0.328      0.287   -0.30587   -0.51802    0.51959      0.444
            15       H                  -0.305     -0.199     -0.201   -1.99023    2.47488    0.33289      0.416
             1       C                   0.334      0.044      0.217    3.13358    2.05141    0.51081      0.401
             7       C                  -0.359      0.068     -0.102   -1.84063    1.39500    0.08715      0.379
            11       H                   0.306      0.117     -0.168    0.40810    1.36460   -1.54681      0.368
            10       H                   0.275     -0.148     -0.173    4.11448    2.23968    0.79688      0.357
             3       C                   0.082     -0.333      0.074    0.63782    1.54270   -0.19271      0.351
            14       H                  -0.266      0.225     -0.029   -0.12895   -2.75624    0.41985      0.350
             9       O                   0.230      0.111      0.236   -1.71098    1.38406   -1.32298      0.348



       FINAL  POINT  AND  DERIVATIVES

   PARAMETER     ATOM    TYPE            VALUE        GRADIENT
      1          1  C    CARTESIAN X     3.133576      0.333830  KCAL/ANGSTROM
      2          1  C    CARTESIAN Y     2.051411      0.044127  KCAL/ANGSTROM
      3          1  C    CARTESIAN Z     0.510814      0.217425  KCAL/ANGSTROM
      4          2  C    CARTESIAN X     1.906359     -0.245370  KCAL/ANGSTROM
      5          2  C    CARTESIAN Y     1.813404     -0.067864  KCAL/ANGSTROM
      6          2  C    CARTESIAN Z     0.140548     -0.234054  KCAL/ANGSTROM
      7          3  C    CARTESIAN X     0.637817      0.082208  KCAL/ANGSTROM
      8          3  C    CARTESIAN Y     1.542696     -0.333009  KCAL/ANGSTROM
      9          3  C    CARTESIAN Z    -0.192705      0.074484  KCAL/ANGSTROM
     10          4  C    CARTESIAN X    -0.440757     -0.209802  KCAL/ANGSTROM
     11          4  C    CARTESIAN Y     0.909579      0.229948  KCAL/ANGSTROM
     12          4  C    CARTESIAN Z     0.610824     -0.027992  KCAL/ANGSTROM
     13          5  C    CARTESIAN X    -0.305871      0.082617  KCAL/ANGSTROM
     14          5  C    CARTESIAN Y    -0.518017      0.327974  KCAL/ANGSTROM
     15          5  C    CARTESIAN Z     0.519588      0.286939  KCAL/ANGSTROM
     16          6  C    CARTESIAN X    -0.209489     -0.256892  KCAL/ANGSTROM
     17          6  C    CARTESIAN Y    -1.723563      0.098384  KCAL/ANGSTROM
     18          6  C    CARTESIAN Z     0.464559     -0.099467  KCAL/ANGSTROM
     19          7  C    CARTESIAN X    -1.840627     -0.359212  KCAL/ANGSTROM
     20          7  C    CARTESIAN Y     1.395005      0.067863  KCAL/ANGSTROM
     21          7  C    CARTESIAN Z     0.087152     -0.101746  KCAL/ANGSTROM
     22          8  C    CARTESIAN X    -2.981681     -0.048518  KCAL/ANGSTROM
     23          8  C    CARTESIAN Y     0.535053     -0.075302  KCAL/ANGSTROM
     24          8  C    CARTESIAN Z     0.574689      0.091934  KCAL/ANGSTROM
     25          9  O    CARTESIAN X    -1.710983      0.230317  KCAL/ANGSTROM
     26          9  O    CARTESIAN Y     1.384058      0.110604  KCAL/ANGSTROM
     27          9  O    CARTESIAN Z    -1.322980      0.235636  KCAL/ANGSTROM
     28         10  H    CARTESIAN X     4.114485      0.274803  KCAL/ANGSTROM
     29         10  H    CARTESIAN Y     2.239676     -0.147845  KCAL/ANGSTROM
     30         10  H    CARTESIAN Z     0.796884     -0.173322  KCAL/ANGSTROM
     31         11  H    CARTESIAN X     0.408099      0.305525  KCAL/ANGSTROM
     32         11  H    CARTESIAN Y     1.364603      0.117127  KCAL/ANGSTROM
     33         11  H    CARTESIAN Z    -1.546815     -0.168366  KCAL/ANGSTROM
     34         12  H    CARTESIAN X     0.190643     -0.152897  KCAL/ANGSTROM
     35         12  H    CARTESIAN Y     2.213557      0.200162  KCAL/ANGSTROM
     36         12  H    CARTESIAN Z    -1.311457      0.147487  KCAL/ANGSTROM
     37         13  H    CARTESIAN X    -0.350288      0.052660  KCAL/ANGSTROM
     38         13  H    CARTESIAN Y     1.226413     -0.149783  KCAL/ANGSTROM
     39         13  H    CARTESIAN Z     1.698185      0.035686  KCAL/ANGSTROM
     40         14  H    CARTESIAN X    -0.128954     -0.266402  KCAL/ANGSTROM
     41         14  H    CARTESIAN Y    -2.756239      0.224683  KCAL/ANGSTROM
     42         14  H    CARTESIAN Z     0.419851     -0.029224  KCAL/ANGSTROM
     43         15  H    CARTESIAN X    -1.990226     -0.304635  KCAL/ANGSTROM
     44         15  H    CARTESIAN Y     2.474880     -0.199481  KCAL/ANGSTROM
     45         15  H    CARTESIAN Z     0.332894     -0.201321  KCAL/ANGSTROM
     46         16  H    CARTESIAN X    -2.859872      0.444754  KCAL/ANGSTROM
     47         16  H    CARTESIAN Y    -0.526331      0.064400  KCAL/ANGSTROM
     48         16  H    CARTESIAN Z     0.310450      0.063540  KCAL/ANGSTROM
     49         17  H    CARTESIAN X    -3.088689     -0.059771  KCAL/ANGSTROM
     50         17  H    CARTESIAN Y     0.571501     -0.073088  KCAL/ANGSTROM
     51         17  H    CARTESIAN Z     1.670682      0.042618  KCAL/ANGSTROM
     52         18  H    CARTESIAN X    -3.947599      0.135392  KCAL/ANGSTROM
     53         18  H    CARTESIAN Y     0.866341     -0.302063  KCAL/ANGSTROM
     54         18  H    CARTESIAN Z     0.159805     -0.041182  KCAL/ANGSTROM
     55         19  H    CARTESIAN X    -2.345262     -0.038608  KCAL/ANGSTROM
     56         19  H    CARTESIAN Y     0.780940     -0.136839  KCAL/ANGSTROM
     57         19  H    CARTESIAN Z    -1.767449     -0.119078  KCAL/ANGSTROM




   ATOM   CHEMICAL          X               Y               Z
  NUMBER   SYMBOL      (ANGSTROMS)     (ANGSTROMS)     (ANGSTROMS)

     1       C          3.13357614  *   2.05141116  *   0.51081443  *
     2       C          1.90635917  *   1.81340380  *   0.14054801  *
     3       C          0.63781676  *   1.54269624  *  -0.19270501  *
     4       C         -0.44075659  *   0.90957876  *   0.61082420  *
     5       C         -0.30587108  *  -0.51801729  *   0.51958818  *
     6       C         -0.20948944  *  -1.72356296  *   0.46455895  *
     7       C         -1.84062730  *   1.39500491  *   0.08715176  *
     8       C         -2.98168087  *   0.53505331  *   0.57468887  *
     9       O         -1.71098286  *   1.38405842  *  -1.32298007  *
    10       H          4.11448469  *   2.23967595  *   0.79688405  *
    11       H          0.40809929  *   1.36460265  *  -1.54681475  *
    12       H          0.19064316  *   2.21355739  *  -1.31145653  *
    13       H         -0.35028777  *   1.22641313  *   1.69818450  *
    14       H         -0.12895410  *  -2.75623874  *   0.41985118  *
    15       H         -1.99022647  *   2.47487983  *   0.33289432  *
    16       H         -2.85987221  *  -0.52633147  *   0.31045017  *
    17       H         -3.08868943  *   0.57150086  *   1.67068226  *
    18       H         -3.94759924  *   0.86634059  *   0.15980517  *
    19       H         -2.34526168  *   0.78093957  *  -1.76744873  *

                             CARTESIAN COORDINATES

   1    C        3.133576139     2.051411158     0.510814425
   2    C        1.906359174     1.813403800     0.140548013
   3    C        0.637816765     1.542696241    -0.192705006
   4    C       -0.440756593     0.909578761     0.610824205
   5    C       -0.305871078    -0.518017294     0.519588180
   6    C       -0.209489442    -1.723562959     0.464558953
   7    C       -1.840627298     1.395004910     0.087151765
   8    C       -2.981680874     0.535053309     0.574688873
   9    O       -1.710982860     1.384058421    -1.322980074
  10    H        4.114484693     2.239675948     0.796884047
  11    H        0.408099287     1.364602652    -1.546814747
  12    H        0.190643156     2.213557391    -1.311456535
  13    H       -0.350287765     1.226413132     1.698184502
  14    H       -0.128954099    -2.756238743     0.419851185
  15    H       -1.990226466     2.474879832     0.332894316
  16    H       -2.859872215    -0.526331473     0.310450168
  17    H       -3.088689434     0.571500858     1.670682261
  18    H       -3.947599236     0.866340589     0.159805174
  19    H       -2.345261675     0.780939572    -1.767448735


           Empirical Formula: C8 H10 O  =    19 atoms



      MOLECULAR POINT GROUP   :   C1  


          ALPHA EIGENVALUES  
 -35.06329 -33.07539 -31.38704 -29.99020 -29.78066 -27.65323 -25.64138 -24.29682
 -22.49908 -21.61242 -21.19278 -20.42154 -20.05733 -19.40937 -18.59350 -17.54849
 -16.89133 -16.83749 -16.57759 -15.92610 -15.51835 -14.93079 -14.58935 -14.50505
  -5.04455  -4.05738  -3.50649  -2.47005  -2.32225  -1.69155  -1.56606  -1.09032
  -1.00815  -0.62786   0.00613   0.11209   0.29677   1.10982   1.28365   1.49695
   1.88626   2.03363   2.11099   2.33495   3.23093   3.25241


           BETA EIGENVALUES 
 -34.99207 -33.01542 -31.32577 -29.81486 -29.75489 -27.55223 -25.59626 -24.19237
 -22.39132 -21.52093 -21.14379 -20.39781 -19.99457 -19.24403 -18.44223 -16.92702
 -16.85297 -16.72321 -16.58040 -15.88499 -15.44815 -14.87309 -14.55653  -6.54918
  -4.76659  -3.38826  -3.18044  -2.40848  -2.30149  -1.56528  -1.40658  -0.98560
  -0.95762  -0.55253   0.04035   0.21912   0.33347   1.12349   1.28530   1.59810
   1.88642   2.03371   2.11128   2.33503   3.22967   3.25229


              NET ATOMIC CHARGES AND DIPOLE CONTRIBUTIONS

  ATOM NO.   TYPE          CHARGE      No. of ELECS.   s-Pop       p-Pop       
    1          C           0.142511        3.8575     1.19841     2.65908
    2          C          -0.199268        4.1993     1.07756     3.12171
    3          C           0.051647        3.9484     1.07043     2.87792
    4          C          -0.129616        4.1296     1.05338     3.07624
    5          C          -0.178208        4.1782     1.08334     3.09487
    6          C          -0.070234        4.0702     1.15298     2.91725
    7          C           0.209208        3.7908     1.09533     2.69546
    8          C          -0.506802        4.5068     1.05970     3.44710
    9          O          -0.670850        6.6709     1.83844     4.83241
   10          H           0.230603        0.7694     0.76940
   11          H           0.303005        0.6970     0.69700
   12          H           0.303727        0.6963     0.69627
   13          H           0.216210        0.7838     0.78379
   14          H           0.211852        0.7881     0.78815
   15          H           0.152919        0.8471     0.84708
   16          H           0.178215        0.8218     0.82178
   17          H           0.186845        0.8132     0.81316
   18          H           0.184985        0.8150     0.81501
   19          H           0.383251        0.6167     0.61675
 DIPOLE           X         Y         Z       TOTAL
 POINT-CHG.     3.955     2.360    -0.536     4.637
 HYBRID        -0.043    -0.106    -1.111     1.117
 SUM            3.912     2.254    -1.647     4.806


          ATOMIC ORBITAL ELECTRON POPULATIONS

     Atom    s        px        py        pz   
    1  C   1.19841   0.98318   0.83513   0.84076
    2  C   1.07756   0.97120   1.02099   1.12952
    3  C   1.07043   0.99658   1.09916   0.78218
    4  C   1.05338   0.98655   0.98022   1.10947
    5  C   1.08334   1.06602   0.96462   1.06423
    6  C   1.15298   0.93696   1.03268   0.94761
    7  C   1.09533   0.91230   1.06607   0.71710
    8  C   1.05970   1.09752   1.15204   1.19755
    9  O   1.83844   1.72088   1.76817   1.34335
   10  H   0.76940
   11  H   0.69700
   12  H   0.69627
   13  H   0.78379
   14  H   0.78815
   15  H   0.84708
   16  H   0.82178
   17  H   0.81316
   18  H   0.81501
   19  H   0.61675


                    (SZ)    =    0.500000
                    (S**2)  =    0.837639


          ATOMIC ORBITAL SPIN POPULATIONS

    Atom   Total    s     px     py     pz   
         Atomic
    1  C  0.7103  0.019  0.059  0.477  0.156
    2  C -0.3834 -0.019 -0.040 -0.201 -0.123
    3  C  0.6693  0.019  0.071  0.515  0.065
    4  C -0.0293 -0.003 -0.013 -0.006 -0.007
    5  C  0.0270  0.009  0.002  0.013  0.003
    6  C -0.0039 -0.000 -0.001 -0.000 -0.003
    7  C  0.0057  0.001  0.004  0.001  0.001
    8  C -0.0004 -0.000 -0.000 -0.000 -0.000
    9  O  0.0005 -0.000  0.000  0.000 -0.000
   10  H -0.0174 -0.017
   11  H  0.0111  0.011
   12  H  0.0027  0.003
   13  H  0.0072  0.007
   14  H  0.0006  0.001
   15  H -0.0000 -0.000
   16  H  0.0000  0.000
   17  H  0.0000  0.000
   18  H  0.0001  0.000
   19  H -0.0002 -0.000

 **********************
 *                    *
 * JOB ENDED NORMALLY *
 *                    *
 **********************



 TOTAL JOB TIME:             1.22 SECONDS

 == MOPAC DONE ==
