 *******************************************************************************
 **                                                                           **
 **                              MOPAC v23.2                                  **
 **                                                                           **
 *******************************************************************************
 **          Digital Object Identifier (DOI): 10.5281/zenodo.6511958          **
 **    Visit the DOI location for information on how to cite this program.    **
 *******************************************************************************

                              PM7 CALCULATION RESULTS

 *******************************************************************************
 *  CALCULATION DONE: (MAX THREADS = 40)             Fri Sep 19 21:32:23 2025  *
 *  PM7        - The PM7 Hamiltonian to be used
 *
 *
 *
 *                 CHARGE ON SYSTEM = +1
 *
 *
 *
 *  1SCF       - DO 1 SCF AND THEN STOP 
 *  T=         - A TIME OF 172800.0 SECONDS REQUESTED
 *  DUMP=N     - RESTART FILE WRITTEN EVERY 7200.0 SECONDS REQUESTED
 *  RELSCF     - DEFAULT SCF CRITERION MULTIPLIED BY 0.0001
 *              (DEFAULT SCF CRITERION = 0.00010)
 *  GRADIENTS  - ALL GRADIENTS TO BE PRINTED
 *  DISP       - PRINT DISPERSION AND HYDROGEN BOND ENERGIES
 *******************************************************************************
PM7 1SCF GRADIENTS DISP RELSCF=0.0001 CHARGE=1
 Title: ASE calculation

   ATOM   CHEMICAL          X               Y               Z
  NUMBER   SYMBOL      (ANGSTROMS)     (ANGSTROMS)     (ANGSTROMS)

     1       C         -1.90466219  *   0.88752192  *  -0.63989064  *
     2       C         -0.45548222  *   0.77933485  *  -0.23980353  *
     3       C         -0.19491397  *   0.23235373  *   1.21530487  *
     4       C         -0.54452924  *  -1.30912894  *   1.05428553  *
     5       N          0.31078002  *  -1.47396950  *  -0.12215710  *
     6       C          0.33981187  *  -0.30539282  *  -1.00231656  *
     7       C          1.55208545  *  -0.73359701  *  -0.04402070  *
     8       C          1.38493135  *   0.14394343  *   1.26177429  *
     9       O          1.88204910  *   1.39893391  *   0.97594201  *
    10       H         -2.45121470  *   1.59456471  *   0.00855365  *
    11       H         -2.45120123  *  -0.06222229  *  -0.60584751  *
    12       H         -2.01611262  *   1.27880248  *  -1.66598274  *
    13       H          0.04898195  *   1.77672073  *  -0.37064493  *
    14       H         -0.68720173  *   0.76244296  *   2.03129528  *
    15       H         -0.24182821  *  -1.94124908  *   1.91351717  *
    16       H         -1.61945693  *  -1.50532720  *   0.85213694  *
    17       H          0.39239903  *  -0.35554340  *  -2.08757680  *
    18       H          2.52176087  *  -1.04811197  *  -0.41526794  *
    19       H          1.80491722  *  -0.31235228  *   2.17309670  *
    20       H          2.71455430  *   1.60591835  *   1.47792404  *



          CARTESIAN COORDINATES 

    NO.       ATOM           X           Y           Z

     1         C         -1.9047      0.8875     -0.6399
     2         C         -0.4555      0.7793     -0.2398
     3         C         -0.1949      0.2324      1.2153
     4         C         -0.5445     -1.3091      1.0543
     5         N          0.3108     -1.4740     -0.1222
     6         C          0.3398     -0.3054     -1.0023
     7         C          1.5521     -0.7336     -0.0440
     8         C          1.3849      0.1439      1.2618
     9         O          1.8820      1.3989      0.9759
    10         H         -2.4512      1.5946      0.0086
    11         H         -2.4512     -0.0622     -0.6058
    12         H         -2.0161      1.2788     -1.6660
    13         H          0.0490      1.7767     -0.3706
    14         H         -0.6872      0.7624      2.0313
    15         H         -0.2418     -1.9412      1.9135
    16         H         -1.6195     -1.5053      0.8521
    17         H          0.3924     -0.3555     -2.0876
    18         H          2.5218     -1.0481     -0.4153
    19         H          1.8049     -0.3124      2.1731
    20         H          2.7146      1.6059      1.4779

 General Reference for PM7:
 "Optimization of Parameters for Semiempirical Methods VI: More Modifications to the 
 NDDO Approximations and Re-optimization of Parameters", J. J. P. Stewart, J. Mol. Mod., 1:32, 19 (2013)
 https://link.springer.com/article/10.1007/s00894-012-1667-x

           Empirical Formula: C7 H11 N O  =    20 atoms



      MOLECULAR POINT GROUP   :   C1  


          UHF CALCULATION, NO. OF ALPHA ELECTRONS =   25
                           NO. OF BETA  ELECTRONS =   24
  SCF CRITERION =    0.1000E-07

 -------------------------------------------------------------------------------
 PM7 1SCF GRADIENTS DISP RELSCF=0.0001 CHARGE=1
 Title: ASE calculation



     1SCF WAS SPECIFIED, SO BFGS WAS NOT USED                 
     SCF FIELD WAS ACHIEVED                                   


                              PM7 CALCULATION
                                                       MOPAC v23.2 Linux
                                                       Fri Sep 19 21:32:24 2025




          FINAL HEAT OF FORMATION =        212.95412 KCAL/MOL =     891.00006 KJ/MOL

          TOTAL ENERGY            =     -34109.21825 KCAL/MOL = ELECTRONIC ENERGY + CORE-CORE REPULSION
          ENERGY OF ATOMS         =      34323.93363 KCAL/MOL
                              SUM =        214.71538 KCAL/MOL
          DISPERSION ENERGY       =         -1.76126 KCAL/MOL
                              SUM =        212.95412 KCAL/MOL = FINAL HEAT OF FORMATION



          TOTAL ENERGY            =      -1479.11570 EV
          ELECTRONIC ENERGY       =      -7746.91490 EV 
          CORE-CORE REPULSION     =       6267.79921 EV
          COSMO AREA              =        155.58 SQUARE ANGSTROMS
          COSMO VOLUME            =        156.96 CUBIC ANGSTROMS

          GRADIENT NORM           =          0.93991          =       0.21017 PER ATOM
          IONIZATION POTENTIAL    =         15.438399 EV
          ALPHA SOMO LUMO (EV)    =        -15.451 -4.088
          BETA  SOMO LUMO (EV)    =        -15.438 -7.957
          NO. OF ALPHA ELECTRONS  =         25
          NO. OF BETA  ELECTRONS  =         24
          MOLECULAR WEIGHT        =        125.1700         POINT GROUP:  C1  

          MOLECULAR DIMENSIONS (Angstroms)

            Atom       Atom       Distance
            H    20    H    11     5.81462
            H    12    H    15     4.75230
            H    18    H    14     4.17673


          SCF CALCULATIONS        =          1

          WALL-CLOCK TIME         =      0.750 SECONDS
          COMPUTATION TIME        =      0.887 SECONDS

          LARGEST ATOMIC GRADIENTS

          Atom     Label                     Cartesian Gradients           Cartesian Coordinates       |Gradient|
                                           X          Y          Z        X          Y          Z

            18       H                  -0.074      0.343     -0.263    2.52176   -1.04811   -0.41527      0.438
            16       H                  -0.274     -0.162      0.002   -1.61946   -1.50533    0.85214      0.318
            20       H                   0.225      0.146      0.139    2.71455    1.60592    1.47792      0.302
             3       C                  -0.240     -0.122     -0.137   -0.19491    0.23235    1.21530      0.302
            19       H                   0.208     -0.038      0.181    1.80492   -0.31235    2.17310      0.278
             4       C                  -0.205      0.096     -0.064   -0.54453   -1.30913    1.05429      0.235
            13       H                   0.014     -0.183      0.086    0.04898    1.77672   -0.37064      0.203
            17       H                  -0.033     -0.175      0.068    0.39240   -0.35554   -2.08758      0.191
            11       H                   0.148      0.090     -0.056   -2.45120   -0.06222   -0.60585      0.182
             7       C                   0.039      0.023      0.161    1.55209   -0.73360   -0.04402      0.167



       FINAL  POINT  AND  DERIVATIVES

   PARAMETER     ATOM    TYPE            VALUE        GRADIENT
      1          1  C    CARTESIAN X    -1.904662      0.004484  KCAL/ANGSTROM
      2          1  C    CARTESIAN Y     0.887522      0.066494  KCAL/ANGSTROM
      3          1  C    CARTESIAN Z    -0.639891      0.031970  KCAL/ANGSTROM
      4          2  C    CARTESIAN X    -0.455482     -0.077491  KCAL/ANGSTROM
      5          2  C    CARTESIAN Y     0.779335     -0.109168  KCAL/ANGSTROM
      6          2  C    CARTESIAN Z    -0.239804     -0.013175  KCAL/ANGSTROM
      7          3  C    CARTESIAN X    -0.194914     -0.239654  KCAL/ANGSTROM
      8          3  C    CARTESIAN Y     0.232354     -0.122215  KCAL/ANGSTROM
      9          3  C    CARTESIAN Z     1.215305     -0.136698  KCAL/ANGSTROM
     10          4  C    CARTESIAN X    -0.544529     -0.205066  KCAL/ANGSTROM
     11          4  C    CARTESIAN Y    -1.309129      0.096048  KCAL/ANGSTROM
     12          4  C    CARTESIAN Z     1.054286     -0.064392  KCAL/ANGSTROM
     13          5  N    CARTESIAN X     0.310780      0.083346  KCAL/ANGSTROM
     14          5  N    CARTESIAN Y    -1.473969      0.084541  KCAL/ANGSTROM
     15          5  N    CARTESIAN Z    -0.122157     -0.016196  KCAL/ANGSTROM
     16          6  C    CARTESIAN X     0.339812     -0.099594  KCAL/ANGSTROM
     17          6  C    CARTESIAN Y    -0.305393     -0.082039  KCAL/ANGSTROM
     18          6  C    CARTESIAN Z    -1.002317     -0.027348  KCAL/ANGSTROM
     19          7  C    CARTESIAN X     1.552085      0.038651  KCAL/ANGSTROM
     20          7  C    CARTESIAN Y    -0.733597      0.022755  KCAL/ANGSTROM
     21          7  C    CARTESIAN Z    -0.044021      0.160676  KCAL/ANGSTROM
     22          8  C    CARTESIAN X     1.384931      0.089410  KCAL/ANGSTROM
     23          8  C    CARTESIAN Y     0.143943     -0.011159  KCAL/ANGSTROM
     24          8  C    CARTESIAN Z     1.261774      0.074832  KCAL/ANGSTROM
     25          9  O    CARTESIAN X     1.882049     -0.000743  KCAL/ANGSTROM
     26          9  O    CARTESIAN Y     1.398934     -0.026348  KCAL/ANGSTROM
     27          9  O    CARTESIAN Z     0.975942     -0.087187  KCAL/ANGSTROM
     28         10  H    CARTESIAN X    -2.451215     -0.006181  KCAL/ANGSTROM
     29         10  H    CARTESIAN Y     1.594565      0.051306  KCAL/ANGSTROM
     30         10  H    CARTESIAN Z     0.008554     -0.025183  KCAL/ANGSTROM
     31         11  H    CARTESIAN X    -2.451201      0.147712  KCAL/ANGSTROM
     32         11  H    CARTESIAN Y    -0.062222      0.090130  KCAL/ANGSTROM
     33         11  H    CARTESIAN Z    -0.605848     -0.055510  KCAL/ANGSTROM
     34         12  H    CARTESIAN X    -2.016113      0.097063  KCAL/ANGSTROM
     35         12  H    CARTESIAN Y     1.278802     -0.099325  KCAL/ANGSTROM
     36         12  H    CARTESIAN Z    -1.665983      0.073767  KCAL/ANGSTROM
     37         13  H    CARTESIAN X     0.048982      0.014297  KCAL/ANGSTROM
     38         13  H    CARTESIAN Y     1.776721     -0.183149  KCAL/ANGSTROM
     39         13  H    CARTESIAN Z    -0.370645      0.086234  KCAL/ANGSTROM
     40         14  H    CARTESIAN X    -0.687202      0.091086  KCAL/ANGSTROM
     41         14  H    CARTESIAN Y     0.762443     -0.010368  KCAL/ANGSTROM
     42         14  H    CARTESIAN Z     2.031295     -0.058437  KCAL/ANGSTROM
     43         15  H    CARTESIAN X    -0.241828      0.010780  KCAL/ANGSTROM
     44         15  H    CARTESIAN Y    -1.941249      0.118224  KCAL/ANGSTROM
     45         15  H    CARTESIAN Z     1.913517     -0.071201  KCAL/ANGSTROM
     46         16  H    CARTESIAN X    -1.619457     -0.273968  KCAL/ANGSTROM
     47         16  H    CARTESIAN Y    -1.505327     -0.161564  KCAL/ANGSTROM
     48         16  H    CARTESIAN Z     0.852137      0.002454  KCAL/ANGSTROM
     49         17  H    CARTESIAN X     0.392399     -0.033114  KCAL/ANGSTROM
     50         17  H    CARTESIAN Y    -0.355543     -0.175370  KCAL/ANGSTROM
     51         17  H    CARTESIAN Z    -2.087577      0.068197  KCAL/ANGSTROM
     52         18  H    CARTESIAN X     2.521761     -0.074095  KCAL/ANGSTROM
     53         18  H    CARTESIAN Y    -1.048112      0.343109  KCAL/ANGSTROM
     54         18  H    CARTESIAN Z    -0.415268     -0.262729  KCAL/ANGSTROM
     55         19  H    CARTESIAN X     1.804917      0.207583  KCAL/ANGSTROM
     56         19  H    CARTESIAN Y    -0.312352     -0.037586  KCAL/ANGSTROM
     57         19  H    CARTESIAN Z     2.173097      0.181403  KCAL/ANGSTROM
     58         20  H    CARTESIAN X     2.714554      0.225493  KCAL/ANGSTROM
     59         20  H    CARTESIAN Y     1.605918      0.145680  KCAL/ANGSTROM
     60         20  H    CARTESIAN Z     1.477924      0.138518  KCAL/ANGSTROM




   ATOM   CHEMICAL          X               Y               Z
  NUMBER   SYMBOL      (ANGSTROMS)     (ANGSTROMS)     (ANGSTROMS)

     1       C         -1.90466219  *   0.88752192  *  -0.63989064  *
     2       C         -0.45548222  *   0.77933485  *  -0.23980353  *
     3       C         -0.19491397  *   0.23235373  *   1.21530487  *
     4       C         -0.54452924  *  -1.30912894  *   1.05428553  *
     5       N          0.31078002  *  -1.47396950  *  -0.12215710  *
     6       C          0.33981187  *  -0.30539282  *  -1.00231656  *
     7       C          1.55208545  *  -0.73359701  *  -0.04402070  *
     8       C          1.38493135  *   0.14394343  *   1.26177429  *
     9       O          1.88204910  *   1.39893391  *   0.97594201  *
    10       H         -2.45121470  *   1.59456471  *   0.00855365  *
    11       H         -2.45120123  *  -0.06222229  *  -0.60584751  *
    12       H         -2.01611262  *   1.27880248  *  -1.66598274  *
    13       H          0.04898195  *   1.77672073  *  -0.37064493  *
    14       H         -0.68720173  *   0.76244296  *   2.03129528  *
    15       H         -0.24182821  *  -1.94124908  *   1.91351717  *
    16       H         -1.61945693  *  -1.50532720  *   0.85213694  *
    17       H          0.39239903  *  -0.35554340  *  -2.08757680  *
    18       H          2.52176087  *  -1.04811197  *  -0.41526794  *
    19       H          1.80491722  *  -0.31235228  *   2.17309670  *
    20       H          2.71455430  *   1.60591835  *   1.47792404  *

                             CARTESIAN COORDINATES

   1    C       -1.904662192     0.887521924    -0.639890639
   2    C       -0.455482223     0.779334849    -0.239803525
   3    C       -0.194913975     0.232353732     1.215304867
   4    C       -0.544529240    -1.309128936     1.054285525
   5    N        0.310780018    -1.473969496    -0.122157099
   6    C        0.339811872    -0.305392816    -1.002316556
   7    C        1.552085450    -0.733597012    -0.044020702
   8    C        1.384931355     0.143943434     1.261774290
   9    O        1.882049105     1.398933911     0.975942005
  10    H       -2.451214704     1.594564706     0.008553650
  11    H       -2.451201233    -0.062222293    -0.605847506
  12    H       -2.016112618     1.278802482    -1.665982739
  13    H        0.048981949     1.776720732    -0.370644928
  14    H       -0.687201727     0.762442955     2.031295284
  15    H       -0.241828212    -1.941249084     1.913517166
  16    H       -1.619456927    -1.505327199     0.852136936
  17    H        0.392399034    -0.355543400    -2.087576795
  18    H        2.521760873    -1.048111973    -0.415267943
  19    H        1.804917218    -0.312352279     2.173096705
  20    H        2.714554299     1.605918354     1.477924042


           Empirical Formula: C7 H11 N O  =    20 atoms



      MOLECULAR POINT GROUP   :   C1  


          ALPHA EIGENVALUES  
 -44.37899 -34.84636 -33.12823 -31.67209 -30.70420 -27.57071 -25.79715 -24.99977
 -24.43715 -23.07718 -22.74981 -22.01718 -20.91012 -19.37763 -19.02425 -18.78082
 -18.69221 -18.43006 -18.12857 -17.57441 -17.11654 -16.54582 -16.36866 -16.11396
 -15.45121  -4.08790  -3.92132  -2.69956  -2.41906  -2.27499  -2.00648  -1.83525
  -1.66322  -1.52458  -1.08036  -0.13436   0.18536   0.34130   0.39608   0.43576
   0.69120   1.18891   1.26239   1.41908   1.72571   1.74971   2.90977


           BETA EIGENVALUES 
 -43.47832 -34.66334 -32.87208 -31.48941 -30.44069 -27.45293 -25.48541 -24.84918
 -24.28312 -22.71469 -22.29175 -21.82356 -20.75845 -19.17927 -18.94475 -18.57882
 -18.36997 -18.30343 -17.97618 -17.16392 -16.83231 -16.46526 -16.09804 -15.43840
  -7.95676  -3.64544  -3.52079  -2.50207  -2.34769  -2.09938  -1.88706  -1.70818
  -1.60663  -1.23129  -0.99267  -0.12106   0.20123   0.39231   0.43746   0.46726
   0.71781   1.20623   1.27068   1.42610   1.72590   1.75219   2.91028


              NET ATOMIC CHARGES AND DIPOLE CONTRIBUTIONS

  ATOM NO.   TYPE          CHARGE      No. of ELECS.   s-Pop       p-Pop       
    1          C          -0.463934        4.4639     1.05115     3.41279
    2          C          -0.104125        4.1041     1.08378     3.02034
    3          C          -0.147015        4.1470     1.11956     3.02745
    4          C          -0.173358        4.1734     1.10437     3.06899
    5          N          -0.010890        5.0109     1.64582     3.36507
    6          C           0.003266        3.9967     1.13770     2.85903
    7          C          -0.092238        4.0922     1.14401     2.94823
    8          C           0.134530        3.8655     1.11207     2.75340
    9          O          -0.491344        6.4913     1.84537     4.64598
   10          H           0.186963        0.8130     0.81304
   11          H           0.161332        0.8387     0.83867
   12          H           0.184538        0.8155     0.81546
   13          H           0.213127        0.7869     0.78687
   14          H           0.202158        0.7978     0.79784
   15          H           0.201886        0.7981     0.79811
   16          H           0.209292        0.7907     0.79071
   17          H           0.227722        0.7723     0.77228
   18          H           0.234151        0.7658     0.76585
   19          H           0.164639        0.8354     0.83536
   20          H           0.359299        0.6407     0.64070
 DIPOLE           X         Y         Z       TOTAL
 POINT-CHG.     0.500    -1.611     0.816     1.874
 HYBRID         0.326    -0.560    -0.149     0.665
 SUM            0.827    -2.171     0.667     2.417


          ATOMIC ORBITAL ELECTRON POPULATIONS

     Atom    s        px        py        pz   
    1  C   1.05115   1.00304   1.20344   1.20631
    2  C   1.08378   1.03337   1.06554   0.92143
    3  C   1.11956   1.00011   0.93958   1.08776
    4  C   1.10437   1.09612   1.03191   0.94096
    5  N   1.64582   1.17606   1.00982   1.17919
    6  C   1.13770   0.95641   0.84272   1.05990
    7  C   1.14401   0.97512   0.89879   1.07432
    8  C   1.11207   0.95396   0.82204   0.97740
    9  O   1.84537   1.54856   1.36480   1.73261
   10  H   0.81304
   11  H   0.83867
   12  H   0.81546
   13  H   0.78687
   14  H   0.79784
   15  H   0.79811
   16  H   0.79071
   17  H   0.77228
   18  H   0.76585
   19  H   0.83536
   20  H   0.64070


                    (SZ)    =    0.500000
                    (S**2)  =    0.756398


          ATOMIC ORBITAL SPIN POPULATIONS

    Atom   Total    s     px     py     pz   
         Atomic
    1  C  0.0005  0.000  0.000 -0.000  0.000
    2  C  0.0120 -0.000 -0.002  0.013  0.001
    3  C  0.0729  0.004  0.013  0.054  0.002
    4  C -0.0116 -0.005 -0.012  0.008 -0.003
    5  N  0.7242  0.057  0.032  0.520  0.115
    6  C  0.0696 -0.004  0.048  0.034 -0.008
    7  C  0.0736 -0.006 -0.021  0.101 -0.001
    8  C  0.0155  0.001  0.000  0.006  0.009
    9  O  0.0226  0.001  0.005  0.013  0.003
   10  H  0.0001  0.000
   11  H  0.0004  0.000
   12  H -0.0001 -0.000
   13  H  0.0040  0.004
   14  H  0.0004  0.000
   15  H  0.0012  0.001
   16  H  0.0028  0.003
   17  H  0.0055  0.005
   18  H  0.0083  0.008
   19  H -0.0007 -0.001
   20  H -0.0013 -0.001

 **********************
 *                    *
 * JOB ENDED NORMALLY *
 *                    *
 **********************



 TOTAL JOB TIME:             1.22 SECONDS

 == MOPAC DONE ==
