 *******************************************************************************
 **                                                                           **
 **                              MOPAC v23.2                                  **
 **                                                                           **
 *******************************************************************************
 **          Digital Object Identifier (DOI): 10.5281/zenodo.6511958          **
 **    Visit the DOI location for information on how to cite this program.    **
 *******************************************************************************

                              PM7 CALCULATION RESULTS

 *******************************************************************************
 *  CALCULATION DONE: (MAX THREADS = 40)             Fri Sep 19 21:32:17 2025  *
 *  PM7        - The PM7 Hamiltonian to be used
 *
 *
 *
 *                 CHARGE ON SYSTEM = +1
 *
 *
 *
 *  1SCF       - DO 1 SCF AND THEN STOP 
 *  T=         - A TIME OF 172800.0 SECONDS REQUESTED
 *  DUMP=N     - RESTART FILE WRITTEN EVERY 7200.0 SECONDS REQUESTED
 *  RELSCF     - DEFAULT SCF CRITERION MULTIPLIED BY 0.0001
 *              (DEFAULT SCF CRITERION = 0.00010)
 *  GRADIENTS  - ALL GRADIENTS TO BE PRINTED
 *  DISP       - PRINT DISPERSION AND HYDROGEN BOND ENERGIES
 *******************************************************************************
PM7 1SCF GRADIENTS DISP RELSCF=0.0001 CHARGE=1
 Title: ASE calculation

   ATOM   CHEMICAL          X               Y               Z
  NUMBER   SYMBOL      (ANGSTROMS)     (ANGSTROMS)     (ANGSTROMS)

     1       N          2.32406376  *  -0.33645338  *  -0.05650295  *
     2       C          1.01015614  *  -0.12787037  *   0.09865573  *
     3       N          0.23099326  *  -1.27852294  *   0.10425947  *
     4       C         -1.07337527  *  -1.14800232  *   0.25130668  *
     5       F         -1.76216520  *  -2.26296881  *   0.25316351  *
     6       C         -1.77105900  *   0.11099390  *   0.40917459  *
     7       C         -1.01263699  *   1.26632456  *   0.40460907  *
     8       C          0.37798479  *   1.16904226  *   0.25455665  *
     9       F          1.13119282  *   2.23819867  *   0.25654789  *
    10       H          3.00679715  *   0.41400898  *  -0.07726882  *
    11       H          2.68501548  *  -1.29248575  *  -0.16061767  *
    12       H         -2.86471737  *   0.12568545  *   0.52661609  *
    13       H         -1.48909064  *   2.25736175  *   0.51980714  *



          CARTESIAN COORDINATES 

    NO.       ATOM           X           Y           Z

     1         N          2.3241     -0.3365     -0.0565
     2         C          1.0102     -0.1279      0.0987
     3         N          0.2310     -1.2785      0.1043
     4         C         -1.0734     -1.1480      0.2513
     5         F         -1.7622     -2.2630      0.2532
     6         C         -1.7711      0.1110      0.4092
     7         C         -1.0126      1.2663      0.4046
     8         C          0.3780      1.1690      0.2546
     9         F          1.1312      2.2382      0.2565
    10         H          3.0068      0.4140     -0.0773
    11         H          2.6850     -1.2925     -0.1606
    12         H         -2.8647      0.1257      0.5266
    13         H         -1.4891      2.2574      0.5198

 General Reference for PM7:
 "Optimization of Parameters for Semiempirical Methods VI: More Modifications to the 
 NDDO Approximations and Re-optimization of Parameters", J. J. P. Stewart, J. Mol. Mod., 1:32, 19 (2013)
 https://link.springer.com/article/10.1007/s00894-012-1667-x

           Empirical Formula: C5 H4 N2 F2  =    13 atoms



      MOLECULAR POINT GROUP   :   Cs  


          UHF CALCULATION, NO. OF ALPHA ELECTRONS =   24
                           NO. OF BETA  ELECTRONS =   23
  SCF CRITERION =    0.1000E-07

 -------------------------------------------------------------------------------
 PM7 1SCF GRADIENTS DISP RELSCF=0.0001 CHARGE=1
 Title: ASE calculation



     1SCF WAS SPECIFIED, SO BFGS WAS NOT USED                 
     SCF FIELD WAS ACHIEVED                                   


                              PM7 CALCULATION
                                                       MOPAC v23.2 Linux
                                                       Fri Sep 19 21:32:18 2025




          FINAL HEAT OF FORMATION =        138.10719 KCAL/MOL =     577.84048 KJ/MOL

          TOTAL ENERGY            =     -45267.09081 KCAL/MOL = ELECTRONIC ENERGY + CORE-CORE REPULSION
          ENERGY OF ATOMS         =      45406.55464 KCAL/MOL
                              SUM =        139.46382 KCAL/MOL
          DISPERSION ENERGY       =         -1.35663 KCAL/MOL
                              SUM =        138.10719 KCAL/MOL = FINAL HEAT OF FORMATION



          TOTAL ENERGY            =      -1962.96684 EV
          ELECTRONIC ENERGY       =      -7334.69246 EV 
          CORE-CORE REPULSION     =       5371.72562 EV
          COSMO AREA              =        144.62 SQUARE ANGSTROMS
          COSMO VOLUME            =        135.77 CUBIC ANGSTROMS

          GRADIENT NORM           =          0.96460          =       0.26753 PER ATOM
          IONIZATION POTENTIAL    =         15.257140 EV
          ALPHA SOMO LUMO (EV)    =        -15.257 -6.241
          BETA  SOMO LUMO (EV)    =        -16.197 -7.936
          NO. OF ALPHA ELECTRONS  =         24
          NO. OF BETA  ELECTRONS  =         23
          MOLECULAR WEIGHT        =        130.0968         POINT GROUP:  Cs  

          MOLECULAR DIMENSIONS (Angstroms)

            Atom       Atom       Distance
            H    12    H    10     5.90953
            H    13    F     5     4.51256
            F     9    H    11     0.02131


          SCF CALCULATIONS        =          1

          WALL-CLOCK TIME         =      0.875 SECONDS
          COMPUTATION TIME        =      0.887 SECONDS

          LARGEST ATOMIC GRADIENTS

          Atom     Label                     Cartesian Gradients           Cartesian Coordinates       |Gradient|
                                           X          Y          Z        X          Y          Z

             4       C                  -0.128     -0.155     -0.324   -1.07338   -1.14800    0.25131      0.382
            10       H                  -0.309      0.096      0.078    3.00680    0.41401   -0.07727      0.333
             7       C                  -0.139      0.181     -0.227   -1.01264    1.26632    0.40461      0.322
             3       N                   0.259      0.134      0.100    0.23099   -1.27852    0.10426      0.308
             6       C                  -0.027     -0.015      0.295   -1.77106    0.11099    0.40917      0.297
             9       F                  -0.074     -0.140      0.242    1.13119    2.23820    0.25655      0.290
             2       C                   0.273      0.078     -0.007    1.01016   -0.12787    0.09866      0.284
             1       N                   0.171     -0.163     -0.122    2.32406   -0.33645   -0.05650      0.266
             8       C                   0.106      0.140     -0.174    0.37798    1.16904    0.25456      0.247
             5       F                  -0.164     -0.111      0.131   -1.76217   -2.26297    0.25316      0.237



       FINAL  POINT  AND  DERIVATIVES

   PARAMETER     ATOM    TYPE            VALUE        GRADIENT
      1          1  N    CARTESIAN X     2.324064      0.170854  KCAL/ANGSTROM
      2          1  N    CARTESIAN Y    -0.336453     -0.163457  KCAL/ANGSTROM
      3          1  N    CARTESIAN Z    -0.056503     -0.121538  KCAL/ANGSTROM
      4          2  C    CARTESIAN X     1.010156      0.273291  KCAL/ANGSTROM
      5          2  C    CARTESIAN Y    -0.127870      0.078313  KCAL/ANGSTROM
      6          2  C    CARTESIAN Z     0.098656     -0.006582  KCAL/ANGSTROM
      7          3  N    CARTESIAN X     0.230993      0.258699  KCAL/ANGSTROM
      8          3  N    CARTESIAN Y    -1.278523      0.133545  KCAL/ANGSTROM
      9          3  N    CARTESIAN Z     0.104259      0.100145  KCAL/ANGSTROM
     10          4  C    CARTESIAN X    -1.073375     -0.127595  KCAL/ANGSTROM
     11          4  C    CARTESIAN Y    -1.148002     -0.155265  KCAL/ANGSTROM
     12          4  C    CARTESIAN Z     0.251307     -0.324452  KCAL/ANGSTROM
     13          5  F    CARTESIAN X    -1.762165     -0.163544  KCAL/ANGSTROM
     14          5  F    CARTESIAN Y    -2.262969     -0.110966  KCAL/ANGSTROM
     15          5  F    CARTESIAN Z     0.253164      0.131297  KCAL/ANGSTROM
     16          6  C    CARTESIAN X    -1.771059     -0.027161  KCAL/ANGSTROM
     17          6  C    CARTESIAN Y     0.110994     -0.015446  KCAL/ANGSTROM
     18          6  C    CARTESIAN Z     0.409175      0.295213  KCAL/ANGSTROM
     19          7  C    CARTESIAN X    -1.012637     -0.138940  KCAL/ANGSTROM
     20          7  C    CARTESIAN Y     1.266325      0.180940  KCAL/ANGSTROM
     21          7  C    CARTESIAN Z     0.404609     -0.227213  KCAL/ANGSTROM
     22          8  C    CARTESIAN X     0.377985      0.105625  KCAL/ANGSTROM
     23          8  C    CARTESIAN Y     1.169042      0.140104  KCAL/ANGSTROM
     24          8  C    CARTESIAN Z     0.254557     -0.173691  KCAL/ANGSTROM
     25          9  F    CARTESIAN X     1.131193     -0.074396  KCAL/ANGSTROM
     26          9  F    CARTESIAN Y     2.238199     -0.140385  KCAL/ANGSTROM
     27          9  F    CARTESIAN Z     0.256548      0.242204  KCAL/ANGSTROM
     28         10  H    CARTESIAN X     3.006797     -0.309185  KCAL/ANGSTROM
     29         10  H    CARTESIAN Y     0.414009      0.096344  KCAL/ANGSTROM
     30         10  H    CARTESIAN Z    -0.077269      0.077939  KCAL/ANGSTROM
     31         11  H    CARTESIAN X     2.685015     -0.049102  KCAL/ANGSTROM
     32         11  H    CARTESIAN Y    -1.292486     -0.117911  KCAL/ANGSTROM
     33         11  H    CARTESIAN Z    -0.160618      0.001208  KCAL/ANGSTROM
     34         12  H    CARTESIAN X    -2.864717      0.072002  KCAL/ANGSTROM
     35         12  H    CARTESIAN Y     0.125685     -0.031341  KCAL/ANGSTROM
     36         12  H    CARTESIAN Z     0.526616      0.023167  KCAL/ANGSTROM
     37         13  H    CARTESIAN X    -1.489091      0.009452  KCAL/ANGSTROM
     38         13  H    CARTESIAN Y     2.257362      0.105527  KCAL/ANGSTROM
     39         13  H    CARTESIAN Z     0.519807     -0.017700  KCAL/ANGSTROM




   ATOM   CHEMICAL          X               Y               Z
  NUMBER   SYMBOL      (ANGSTROMS)     (ANGSTROMS)     (ANGSTROMS)

     1       N          2.32406376  *  -0.33645338  *  -0.05650295  *
     2       C          1.01015614  *  -0.12787037  *   0.09865573  *
     3       N          0.23099326  *  -1.27852294  *   0.10425947  *
     4       C         -1.07337527  *  -1.14800232  *   0.25130668  *
     5       F         -1.76216520  *  -2.26296881  *   0.25316351  *
     6       C         -1.77105900  *   0.11099390  *   0.40917459  *
     7       C         -1.01263699  *   1.26632456  *   0.40460907  *
     8       C          0.37798479  *   1.16904226  *   0.25455665  *
     9       F          1.13119282  *   2.23819867  *   0.25654789  *
    10       H          3.00679715  *   0.41400898  *  -0.07726882  *
    11       H          2.68501548  *  -1.29248575  *  -0.16061767  *
    12       H         -2.86471737  *   0.12568545  *   0.52661609  *
    13       H         -1.48909064  *   2.25736175  *   0.51980714  *

                             CARTESIAN COORDINATES

   1    N        2.324063756    -0.336453383    -0.056502953
   2    C        1.010156143    -0.127870367     0.098655730
   3    N        0.230993256    -1.278522938     0.104259467
   4    C       -1.073375270    -1.148002317     0.251306677
   5    F       -1.762165203    -2.262968811     0.253163508
   6    C       -1.771059004     0.110993903     0.409174594
   7    C       -1.012636995     1.266324560     0.404609069
   8    C        0.377984789     1.169042258     0.254556652
   9    F        1.131192823     2.238198669     0.256547890
  10    H        3.006797148     0.414008983    -0.077268816
  11    H        2.685015476    -1.292485745    -0.160617674
  12    H       -2.864717371     0.125685450     0.526616087
  13    H       -1.489090642     2.257361748     0.519807142


           Empirical Formula: C5 H4 N2 F2  =    13 atoms



      MOLECULAR POINT GROUP   :   Cs  


          ALPHA EIGENVALUES  
 -47.25231 -46.69073 -43.94576 -41.39730 -34.28827 -31.46330 -28.23904 -28.13283
 -24.66317 -24.45791 -23.25092 -22.62281 -22.59222 -21.90783 -21.87697 -21.16183
 -20.49292 -20.01114 -19.60412 -19.33449 -18.16100 -16.59194 -16.38312 -15.25714
  -6.24135  -5.54789  -4.03293  -3.65268  -3.43934  -3.14045  -2.45553  -2.18879
  -1.72587  -1.54042  -0.68042  -0.53611  -0.23349   0.39855   0.51199   0.67672


           BETA EIGENVALUES 
 -47.18178 -46.69591 -43.18011 -41.01972 -34.18503 -31.25062 -28.16440 -27.99978
 -24.53544 -24.32963 -23.15829 -22.45014 -22.37115 -21.86773 -21.82302 -21.14082
 -19.96690 -19.86015 -19.60938 -19.27765 -16.92065 -16.26872 -16.19691  -7.93597
  -5.25546  -5.23421  -3.70429  -3.40053  -3.34966  -3.06367  -2.36448  -2.08573
  -1.71482  -1.47313  -0.58741  -0.39972  -0.14336   0.51851   0.56593   0.70281


              NET ATOMIC CHARGES AND DIPOLE CONTRIBUTIONS

  ATOM NO.   TYPE          CHARGE      No. of ELECS.   s-Pop       p-Pop       
    1          N          -0.228090        5.2281     1.50348     3.72461
    2          C           0.277075        3.7229     1.06087     2.66206
    3          N          -0.409323        5.4093     1.74844     3.66088
    4          C           0.404083        3.5959     1.11027     2.48565
    5          F          -0.041050        7.0410     1.96825     5.07280
    6          C          -0.114755        4.1148     1.11732     2.99743
    7          C          -0.130654        4.1307     1.09371     3.03694
    8          C           0.145014        3.8550     1.11833     2.73666
    9          F          -0.065128        7.0651     1.96659     5.09854
   10          H           0.341092        0.6589     0.65891
   11          H           0.354906        0.6451     0.64509
   12          H           0.232155        0.7678     0.76785
   13          H           0.234675        0.7653     0.76533
 DIPOLE           X         Y         Z       TOTAL
 POINT-CHG.     2.926     1.581    -0.225     3.333
 HYBRID         0.632     0.271    -0.047     0.689
 SUM            3.558     1.852    -0.272     4.020


          ATOMIC ORBITAL ELECTRON POPULATIONS

     Atom    s        px        py        pz   
    1  N   1.50348   1.12110   1.25220   1.35131
    2  C   1.06087   0.84204   0.90396   0.91605
    3  N   1.74844   1.13822   1.28101   1.24165
    4  C   1.11027   0.82979   0.87122   0.78463
    5  F   1.96825   1.73783   1.39512   1.93985
    6  C   1.11732   1.12653   0.95067   0.92023
    7  C   1.09371   0.96485   1.10977   0.96232
    8  C   1.11833   0.94277   0.84925   0.94464
    9  F   1.96659   1.71344   1.44230   1.94280
   10  H   0.65891
   11  H   0.64509
   12  H   0.76785
   13  H   0.76533


                    (SZ)    =    0.500000
                    (S**2)  =    0.902234


          ATOMIC ORBITAL SPIN POPULATIONS

    Atom   Total    s     px     py     pz   
         Atomic
    1  N  0.5254  0.023  0.029  0.025  0.449
    2  C -0.1668 -0.012 -0.022 -0.015 -0.117
    3  N  0.0989  0.001  0.005  0.009  0.085
    4  C -0.0880 -0.007 -0.008 -0.008 -0.065
    5  F -0.0018 -0.000  0.000  0.001 -0.003
    6  C  0.4530  0.012  0.020  0.019  0.402
    7  C -0.3057 -0.011 -0.023 -0.015 -0.256
    8  C  0.5095  0.015  0.023  0.018  0.453
    9  F  0.0240  0.000 -0.004 -0.009  0.037
   10  H -0.0220 -0.022
   11  H -0.0222 -0.022
   12  H -0.0129 -0.013
   13  H  0.0087  0.009

 **********************
 *                    *
 * JOB ENDED NORMALLY *
 *                    *
 **********************



 TOTAL JOB TIME:             1.21 SECONDS

 == MOPAC DONE ==
