 *******************************************************************************
 **                                                                           **
 **                              MOPAC v23.2                                  **
 **                                                                           **
 *******************************************************************************
 **          Digital Object Identifier (DOI): 10.5281/zenodo.6511958          **
 **    Visit the DOI location for information on how to cite this program.    **
 *******************************************************************************

                              PM7 CALCULATION RESULTS

 *******************************************************************************
 *  CALCULATION DONE: (MAX THREADS = 40)             Fri Sep 19 21:32:14 2025  *
 *  PM7        - The PM7 Hamiltonian to be used
 *  1SCF       - DO 1 SCF AND THEN STOP 
 *  T=         - A TIME OF 172800.0 SECONDS REQUESTED
 *  DUMP=N     - RESTART FILE WRITTEN EVERY 7200.0 SECONDS REQUESTED
 *  RELSCF     - DEFAULT SCF CRITERION MULTIPLIED BY 0.0001
 *              (DEFAULT SCF CRITERION = 0.00010)
 *  GRADIENTS  - ALL GRADIENTS TO BE PRINTED
 *  DISP       - PRINT DISPERSION AND HYDROGEN BOND ENERGIES
 *******************************************************************************
PM7 1SCF GRADIENTS DISP RELSCF=0.0001
 Title: ASE calculation

   ATOM   CHEMICAL          X               Y               Z
  NUMBER   SYMBOL      (ANGSTROMS)     (ANGSTROMS)     (ANGSTROMS)

     1       C         -2.05801387  *  -1.98184499  *  -0.38037117  *
     2       C         -1.40274666  *  -0.82949711  *   0.37834607  *
     3       C         -0.02364520  *  -0.53212777  *  -0.17049986  *
     4       C          0.97452346  *  -1.65805376  *  -0.02407327  *
     5       C          2.43239877  *  -1.22992373  *  -0.15607906  *
     6       O         -0.01784051  *   0.13050601  *  -1.43870972  *
     7       C          0.42243201  *   0.90198239  *  -0.31685096  *
     8       C         -0.43864822  *   1.98341563  *   0.06977446  *
     9       N         -1.12051968  *   2.86187221  *   0.38588345  *
    10       H         -1.51548312  *  -2.92377610  *  -0.24987672  *
    11       H         -2.10228521  *  -1.77288247  *  -1.45825210  *
    12       H         -3.08646343  *  -2.14656075  *  -0.03670650  *
    13       H         -2.05642815  *   0.06647119  *   0.30819105  *
    14       H         -1.33747727  *  -1.06164597  *   1.46030051  *
    15       H          0.74346035  *  -2.42275830  *  -0.80029898  *
    16       H          0.82442013  *  -2.16734526  *   0.95066892  *
    17       H          2.73119956  *  -0.54628291  *   0.64611717  *
    18       H          3.10298443  *  -2.09699323  *  -0.10536932  *
    19       H          2.62308117  *  -0.73538655  *  -1.11744722  *
    20       H          1.49310089  *   1.16326190  *  -0.33597433  *



          CARTESIAN COORDINATES 

    NO.       ATOM           X           Y           Z

     1         C         -2.0580     -1.9818     -0.3804
     2         C         -1.4027     -0.8295      0.3783
     3         C         -0.0236     -0.5321     -0.1705
     4         C          0.9745     -1.6581     -0.0241
     5         C          2.4324     -1.2299     -0.1561
     6         O         -0.0178      0.1305     -1.4387
     7         C          0.4224      0.9020     -0.3169
     8         C         -0.4386      1.9834      0.0698
     9         N         -1.1205      2.8619      0.3859
    10         H         -1.5155     -2.9238     -0.2499
    11         H         -2.1023     -1.7729     -1.4583
    12         H         -3.0865     -2.1466     -0.0367
    13         H         -2.0564      0.0665      0.3082
    14         H         -1.3375     -1.0616      1.4603
    15         H          0.7435     -2.4228     -0.8003
    16         H          0.8244     -2.1673      0.9507
    17         H          2.7312     -0.5463      0.6461
    18         H          3.1030     -2.0970     -0.1054
    19         H          2.6231     -0.7354     -1.1174
    20         H          1.4931      1.1633     -0.3360

 General Reference for PM7:
 "Optimization of Parameters for Semiempirical Methods VI: More Modifications to the 
 NDDO Approximations and Re-optimization of Parameters", J. J. P. Stewart, J. Mol. Mod., 1:32, 19 (2013)
 https://link.springer.com/article/10.1007/s00894-012-1667-x

           Empirical Formula: C7 H11 N O  =    20 atoms



      MOLECULAR POINT GROUP   :   C1  


      RHF CALCULATION, NO. OF DOUBLY OCCUPIED LEVELS = 25

  SCF CRITERION =    0.1000E-07

 -------------------------------------------------------------------------------
 PM7 1SCF GRADIENTS DISP RELSCF=0.0001
 Title: ASE calculation



     1SCF WAS SPECIFIED, SO BFGS WAS NOT USED                 
     SCF FIELD WAS ACHIEVED                                   


                              PM7 CALCULATION
                                                       MOPAC v23.2 Linux
                                                       Fri Sep 19 21:32:14 2025




          FINAL HEAT OF FORMATION =         -3.64984 KCAL/MOL =     -15.27093 KJ/MOL

          TOTAL ENERGY            =     -34325.50409 KCAL/MOL = ELECTRONIC ENERGY + CORE-CORE REPULSION
          ENERGY OF ATOMS         =      34323.93363 KCAL/MOL
                              SUM =         -1.57045 KCAL/MOL
          DISPERSION ENERGY       =         -2.07939 KCAL/MOL
                              SUM =         -3.64984 KCAL/MOL = FINAL HEAT OF FORMATION



          TOTAL ENERGY            =      -1488.49474 EV
          ELECTRONIC ENERGY       =      -7305.03302 EV 
          CORE-CORE REPULSION     =       5816.53829 EV
          COSMO AREA              =        172.64 SQUARE ANGSTROMS
          COSMO VOLUME            =        172.41 CUBIC ANGSTROMS

          GRADIENT NORM           =          1.28577          =       0.28751 PER ATOM
          IONIZATION POTENTIAL    =         10.916658 EV
          HOMO LUMO ENERGIES (EV) =        -10.917  0.529
          NO. OF FILLED LEVELS    =         25
          MOLECULAR WEIGHT        =        125.1700         POINT GROUP:  C1  

          MOLECULAR DIMENSIONS (Angstroms)

            Atom       Atom       Distance
            H    18    N     9     6.53220
            H    12    H    20     5.63872
            H    14    H    11     2.95262


          SCF CALCULATIONS        =          1

          WALL-CLOCK TIME         =      0.727 SECONDS
          COMPUTATION TIME        =      0.586 SECONDS

          LARGEST ATOMIC GRADIENTS

          Atom     Label                     Cartesian Gradients           Cartesian Coordinates       |Gradient|
                                           X          Y          Z        X          Y          Z

            17       H                  -0.321     -0.109     -0.309    2.73120   -0.54628    0.64612      0.459
            19       H                   0.094      0.167      0.405    2.62308   -0.73539   -1.11745      0.448
             9       N                   0.015     -0.351     -0.232   -1.12052    2.86187    0.38588      0.421
            15       H                  -0.242      0.240      0.020    0.74346   -2.42276   -0.80030      0.342
            10       H                  -0.089      0.272     -0.186   -1.51548   -2.92378   -0.24988      0.342
             5       C                  -0.222     -0.250     -0.036    2.43240   -1.22992   -0.15608      0.336
             3       C                   0.160      0.220      0.167   -0.02365   -0.53213   -0.17050      0.319
             7       C                   0.173     -0.100     -0.206    0.42243    0.90198   -0.31685      0.287
             6       O                  -0.004     -0.112      0.240   -0.01784    0.13051   -1.43871      0.265
            11       H                  -0.068     -0.244     -0.055   -2.10229   -1.77288   -1.45825      0.259



       FINAL  POINT  AND  DERIVATIVES

   PARAMETER     ATOM    TYPE            VALUE        GRADIENT
      1          1  C    CARTESIAN X    -2.058014      0.008526  KCAL/ANGSTROM
      2          1  C    CARTESIAN Y    -1.981845      0.254018  KCAL/ANGSTROM
      3          1  C    CARTESIAN Z    -0.380371      0.001302  KCAL/ANGSTROM
      4          2  C    CARTESIAN X    -1.402747      0.099815  KCAL/ANGSTROM
      5          2  C    CARTESIAN Y    -0.829497      0.070386  KCAL/ANGSTROM
      6          2  C    CARTESIAN Z     0.378346      0.127550  KCAL/ANGSTROM
      7          3  C    CARTESIAN X    -0.023645      0.159797  KCAL/ANGSTROM
      8          3  C    CARTESIAN Y    -0.532128      0.219984  KCAL/ANGSTROM
      9          3  C    CARTESIAN Z    -0.170500      0.166866  KCAL/ANGSTROM
     10          4  C    CARTESIAN X     0.974523     -0.113514  KCAL/ANGSTROM
     11          4  C    CARTESIAN Y    -1.658054     -0.135581  KCAL/ANGSTROM
     12          4  C    CARTESIAN Z    -0.024073     -0.023334  KCAL/ANGSTROM
     13          5  C    CARTESIAN X     2.432399     -0.222081  KCAL/ANGSTROM
     14          5  C    CARTESIAN Y    -1.229924     -0.250221  KCAL/ANGSTROM
     15          5  C    CARTESIAN Z    -0.156079     -0.035872  KCAL/ANGSTROM
     16          6  O    CARTESIAN X    -0.017841     -0.004193  KCAL/ANGSTROM
     17          6  O    CARTESIAN Y     0.130506     -0.111904  KCAL/ANGSTROM
     18          6  O    CARTESIAN Z    -1.438710      0.239636  KCAL/ANGSTROM
     19          7  C    CARTESIAN X     0.422432      0.172528  KCAL/ANGSTROM
     20          7  C    CARTESIAN Y     0.901982     -0.099593  KCAL/ANGSTROM
     21          7  C    CARTESIAN Z    -0.316851     -0.206458  KCAL/ANGSTROM
     22          8  C    CARTESIAN X    -0.438648      0.020717  KCAL/ANGSTROM
     23          8  C    CARTESIAN Y     1.983416      0.149156  KCAL/ANGSTROM
     24          8  C    CARTESIAN Z     0.069774      0.038288  KCAL/ANGSTROM
     25          9  N    CARTESIAN X    -1.120520      0.015413  KCAL/ANGSTROM
     26          9  N    CARTESIAN Y     2.861872     -0.350554  KCAL/ANGSTROM
     27          9  N    CARTESIAN Z     0.385883     -0.231955  KCAL/ANGSTROM
     28         10  H    CARTESIAN X    -1.515483     -0.088851  KCAL/ANGSTROM
     29         10  H    CARTESIAN Y    -2.923776      0.272186  KCAL/ANGSTROM
     30         10  H    CARTESIAN Z    -0.249877     -0.186350  KCAL/ANGSTROM
     31         11  H    CARTESIAN X    -2.102285     -0.067591  KCAL/ANGSTROM
     32         11  H    CARTESIAN Y    -1.772882     -0.244469  KCAL/ANGSTROM
     33         11  H    CARTESIAN Z    -1.458252     -0.054512  KCAL/ANGSTROM
     34         12  H    CARTESIAN X    -3.086463      0.171016  KCAL/ANGSTROM
     35         12  H    CARTESIAN Y    -2.146561     -0.135417  KCAL/ANGSTROM
     36         12  H    CARTESIAN Z    -0.036707      0.099152  KCAL/ANGSTROM
     37         13  H    CARTESIAN X    -2.056428      0.212154  KCAL/ANGSTROM
     38         13  H    CARTESIAN Y     0.066471     -0.136710  KCAL/ANGSTROM
     39         13  H    CARTESIAN Z     0.308191      0.026397  KCAL/ANGSTROM
     40         14  H    CARTESIAN X    -1.337477     -0.080637  KCAL/ANGSTROM
     41         14  H    CARTESIAN Y    -1.061646     -0.034264  KCAL/ANGSTROM
     42         14  H    CARTESIAN Z     1.460301      0.040289  KCAL/ANGSTROM
     43         15  H    CARTESIAN X     0.743460     -0.242294  KCAL/ANGSTROM
     44         15  H    CARTESIAN Y    -2.422758      0.240369  KCAL/ANGSTROM
     45         15  H    CARTESIAN Z    -0.800299      0.020035  KCAL/ANGSTROM
     46         16  H    CARTESIAN X     0.824420      0.102056  KCAL/ANGSTROM
     47         16  H    CARTESIAN Y    -2.167345     -0.115020  KCAL/ANGSTROM
     48         16  H    CARTESIAN Z     0.950669     -0.134680  KCAL/ANGSTROM
     49         17  H    CARTESIAN X     2.731200     -0.321480  KCAL/ANGSTROM
     50         17  H    CARTESIAN Y    -0.546283     -0.109365  KCAL/ANGSTROM
     51         17  H    CARTESIAN Z     0.646117     -0.308780  KCAL/ANGSTROM
     52         18  H    CARTESIAN X     3.102984      0.100644  KCAL/ANGSTROM
     53         18  H    CARTESIAN Y    -2.096993      0.174063  KCAL/ANGSTROM
     54         18  H    CARTESIAN Z    -0.105369      0.024595  KCAL/ANGSTROM
     55         19  H    CARTESIAN X     2.623081      0.093596  KCAL/ANGSTROM
     56         19  H    CARTESIAN Y    -0.735387      0.167195  KCAL/ANGSTROM
     57         19  H    CARTESIAN Z    -1.117447      0.404842  KCAL/ANGSTROM
     58         20  H    CARTESIAN X     1.493101     -0.015620  KCAL/ANGSTROM
     59         20  H    CARTESIAN Y     1.163262      0.175739  KCAL/ANGSTROM
     60         20  H    CARTESIAN Z    -0.335974     -0.007015  KCAL/ANGSTROM




   ATOM   CHEMICAL          X               Y               Z
  NUMBER   SYMBOL      (ANGSTROMS)     (ANGSTROMS)     (ANGSTROMS)

     1       C         -2.05801387  *  -1.98184499  *  -0.38037117  *
     2       C         -1.40274666  *  -0.82949711  *   0.37834607  *
     3       C         -0.02364520  *  -0.53212777  *  -0.17049986  *
     4       C          0.97452346  *  -1.65805376  *  -0.02407327  *
     5       C          2.43239877  *  -1.22992373  *  -0.15607906  *
     6       O         -0.01784051  *   0.13050601  *  -1.43870972  *
     7       C          0.42243201  *   0.90198239  *  -0.31685096  *
     8       C         -0.43864822  *   1.98341563  *   0.06977446  *
     9       N         -1.12051968  *   2.86187221  *   0.38588345  *
    10       H         -1.51548312  *  -2.92377610  *  -0.24987672  *
    11       H         -2.10228521  *  -1.77288247  *  -1.45825210  *
    12       H         -3.08646343  *  -2.14656075  *  -0.03670650  *
    13       H         -2.05642815  *   0.06647119  *   0.30819105  *
    14       H         -1.33747727  *  -1.06164597  *   1.46030051  *
    15       H          0.74346035  *  -2.42275830  *  -0.80029898  *
    16       H          0.82442013  *  -2.16734526  *   0.95066892  *
    17       H          2.73119956  *  -0.54628291  *   0.64611717  *
    18       H          3.10298443  *  -2.09699323  *  -0.10536932  *
    19       H          2.62308117  *  -0.73538655  *  -1.11744722  *
    20       H          1.49310089  *   1.16326190  *  -0.33597433  *

                             CARTESIAN COORDINATES

   1    C       -2.058013872    -1.981844994    -0.380371171
   2    C       -1.402746664    -0.829497111     0.378346071
   3    C       -0.023645197    -0.532127775    -0.170499862
   4    C        0.974523464    -1.658053758    -0.024073271
   5    C        2.432398771    -1.229923733    -0.156079059
   6    O       -0.017840507     0.130506013    -1.438709717
   7    C        0.422432012     0.901982390    -0.316850955
   8    C       -0.438648220     1.983415628     0.069774464
   9    N       -1.120519680     2.861872207     0.385883446
  10    H       -1.515483124    -2.923776099    -0.249876721
  11    H       -2.102285212    -1.772882470    -1.458252104
  12    H       -3.086463425    -2.146560746    -0.036706505
  13    H       -2.056428153     0.066471188     0.308191047
  14    H       -1.337477271    -1.061645968     1.460300513
  15    H        0.743460345    -2.422758295    -0.800298983
  16    H        0.824420132    -2.167345259     0.950668923
  17    H        2.731199556    -0.546282911     0.646117174
  18    H        3.102984427    -2.096993233    -0.105369318
  19    H        2.623081168    -0.735386550    -1.117447218
  20    H        1.493100890     1.163261904    -0.335974333


           Empirical Formula: C7 H11 N O  =    20 atoms



      MOLECULAR POINT GROUP   :   C1  


                  EIGENVALUES  
 -35.09278 -32.72024 -28.61903 -27.34086 -25.28946 -23.48904 -21.67310 -20.02894
 -18.32858 -16.96927 -16.34979 -15.68736 -15.45098 -14.92013 -14.36810 -13.77469
 -13.72205 -13.56114 -13.30681 -13.10342 -12.64733 -12.35637 -12.08402 -11.36986
 -10.91666   0.52901   0.91072   1.93893   2.27016   2.81039   3.13582   3.47806
   3.56848   3.95318   4.13238   4.78506   4.99170   5.05997   5.36845   5.51458
   5.56329   5.59524   5.65917   5.92521   6.05210   6.56950   6.69772


              NET ATOMIC CHARGES AND DIPOLE CONTRIBUTIONS

  ATOM NO.   TYPE          CHARGE      No. of ELECS.   s-Pop       p-Pop       
    1          C          -0.427212        4.4272     1.05055     3.37666
    2          C          -0.294269        4.2943     1.05916     3.23511
    3          C           0.194655        3.8053     1.08466     2.72068
    4          C          -0.283268        4.2833     1.05731     3.22596
    5          C          -0.435291        4.4353     1.05105     3.38424
    6          O          -0.312238        6.3122     1.92415     4.38809
    7          C          -0.042281        4.0423     1.06654     2.97575
    8          C           0.094794        3.9052     1.11624     2.78897
    9          N          -0.223362        5.2234     1.83025     3.39311
   10          H           0.143144        0.8569     0.85686
   11          H           0.158689        0.8413     0.84131
   12          H           0.150257        0.8497     0.84974
   13          H           0.163742        0.8363     0.83626
   14          H           0.154403        0.8456     0.84560
   15          H           0.164651        0.8353     0.83535
   16          H           0.154754        0.8452     0.84525
   17          H           0.145244        0.8548     0.85476
   18          H           0.149014        0.8510     0.85099
   19          H           0.156254        0.8437     0.84375
   20          H           0.188321        0.8117     0.81168
 DIPOLE           X         Y         Z       TOTAL
 POINT-CHG.     1.881    -3.532     1.607     4.312
 HYBRID         0.115    -0.155    -0.729     0.754
 SUM            1.996    -3.686     0.878     4.283


          ATOMIC ORBITAL ELECTRON POPULATIONS

     Atom    s        px        py        pz   
    1  C   1.05055   1.14567   1.08110   1.14989
    2  C   1.05916   1.01756   1.10827   1.10929
    3  C   1.08466   0.97670   0.89219   0.85179
    4  C   1.05731   0.99088   1.06052   1.17456
    5  C   1.05105   1.03321   1.17213   1.17889
    6  O   1.92415   1.87443   1.37444   1.13923
    7  C   1.06654   1.05443   0.93363   0.98768
    8  C   1.11624   0.92847   0.92840   0.93210
    9  N   1.83025   1.12997   1.16908   1.09407
   10  H   0.85686
   11  H   0.84131
   12  H   0.84974
   13  H   0.83626
   14  H   0.84560
   15  H   0.83535
   16  H   0.84525
   17  H   0.85476
   18  H   0.85099
   19  H   0.84375
   20  H   0.81168

 **********************
 *                    *
 * JOB ENDED NORMALLY *
 *                    *
 **********************



 TOTAL JOB TIME:             1.19 SECONDS

 == MOPAC DONE ==
