 *******************************************************************************
 **                                                                           **
 **                              MOPAC v23.2                                  **
 **                                                                           **
 *******************************************************************************
 **          Digital Object Identifier (DOI): 10.5281/zenodo.6511958          **
 **    Visit the DOI location for information on how to cite this program.    **
 *******************************************************************************

                              PM7 CALCULATION RESULTS

 *******************************************************************************
 *  CALCULATION DONE: (MAX THREADS = 40)             Fri Sep 19 21:35:10 2025  *
 *  PM7        - The PM7 Hamiltonian to be used
 *  1SCF       - DO 1 SCF AND THEN STOP 
 *  T=         - A TIME OF 172800.0 SECONDS REQUESTED
 *  DUMP=N     - RESTART FILE WRITTEN EVERY 7200.0 SECONDS REQUESTED
 *  RELSCF     - DEFAULT SCF CRITERION MULTIPLIED BY 0.0001
 *              (DEFAULT SCF CRITERION = 0.00010)
 *  GRADIENTS  - ALL GRADIENTS TO BE PRINTED
 *  DISP       - PRINT DISPERSION AND HYDROGEN BOND ENERGIES
 *******************************************************************************
PM7 1SCF GRADIENTS DISP RELSCF=0.0001
 Title: ASE calculation

   ATOM   CHEMICAL          X               Y               Z
  NUMBER   SYMBOL      (ANGSTROMS)     (ANGSTROMS)     (ANGSTROMS)

     1       C          1.69845836  *   1.05703746  *  -0.84224972  *
     2       C          1.15584134  *   0.17230364  *   0.25159032  *
     3       C         -0.19667605  *   0.55060445  *   0.91993371  *
     4       C         -0.44490834  *  -0.99223180  *   1.31905160  *
     5       C         -1.85725393  *  -0.97445339  *   0.69835797  *
     6       C         -1.05554901  *  -0.08365874  *  -0.29597800  *
     7       C         -1.61914289  *   0.55852714  *  -1.49379181  *
     8       C          0.24792932  *  -1.02922696  *  -0.13698567  *
     9       H          0.93215098  *   1.33306086  *  -1.57610133  *
    10       H          2.10523244  *   1.98922733  *  -0.43076947  *
    11       H          2.50729849  *   0.55714900  *  -1.38956983  *
    12       H          1.95259584  *  -0.08416493  *   0.96992152  *
    13       H         -0.42208681  *   1.41109056  *   1.48681771  *
    14       H         -0.12501880  *  -1.48849812  *   2.19504014  *
    15       H         -2.64100277  *  -0.48112008  *   1.26945300  *
    16       H         -2.23670468  *  -1.91688032  *   0.30903294  *
    17       H         -2.03368822  *  -0.18855120  *  -2.18852431  *
    18       H         -2.43849723  *   1.24520462  *  -1.22948140  *
    19       H         -0.87448522  *   1.14327734  *  -2.05386423  *
    20       H          0.50285935  *  -1.87582203  *  -0.71214039  *



          CARTESIAN COORDINATES 

    NO.       ATOM           X           Y           Z

     1         C          1.6985      1.0570     -0.8422
     2         C          1.1558      0.1723      0.2516
     3         C         -0.1967      0.5506      0.9199
     4         C         -0.4449     -0.9922      1.3191
     5         C         -1.8573     -0.9745      0.6984
     6         C         -1.0555     -0.0837     -0.2960
     7         C         -1.6191      0.5585     -1.4938
     8         C          0.2479     -1.0292     -0.1370
     9         H          0.9322      1.3331     -1.5761
    10         H          2.1052      1.9892     -0.4308
    11         H          2.5073      0.5571     -1.3896
    12         H          1.9526     -0.0842      0.9699
    13         H         -0.4221      1.4111      1.4868
    14         H         -0.1250     -1.4885      2.1950
    15         H         -2.6410     -0.4811      1.2695
    16         H         -2.2367     -1.9169      0.3090
    17         H         -2.0337     -0.1886     -2.1885
    18         H         -2.4385      1.2452     -1.2295
    19         H         -0.8745      1.1433     -2.0539
    20         H          0.5029     -1.8758     -0.7121

 General Reference for PM7:
 "Optimization of Parameters for Semiempirical Methods VI: More Modifications to the 
 NDDO Approximations and Re-optimization of Parameters", J. J. P. Stewart, J. Mol. Mod., 1:32, 19 (2013)
 https://link.springer.com/article/10.1007/s00894-012-1667-x

           Empirical Formula: C8 H12  =    20 atoms



      MOLECULAR POINT GROUP   :   Cs  


      RHF CALCULATION, NO. OF DOUBLY OCCUPIED LEVELS = 22

  SCF CRITERION =    0.1000E-07

 -------------------------------------------------------------------------------
 PM7 1SCF GRADIENTS DISP RELSCF=0.0001
 Title: ASE calculation



     1SCF WAS SPECIFIED, SO BFGS WAS NOT USED                 
     SCF FIELD WAS ACHIEVED                                   


                              PM7 CALCULATION
                                                       MOPAC v23.2 Linux
                                                       Fri Sep 19 21:35:10 2025




          FINAL HEAT OF FORMATION =         91.19562 KCAL/MOL =     381.56247 KJ/MOL

          TOTAL ENERGY            =     -26306.10090 KCAL/MOL = ELECTRONIC ENERGY + CORE-CORE REPULSION
          ENERGY OF ATOMS         =      26398.86351 KCAL/MOL
                              SUM =         92.76261 KCAL/MOL
          DISPERSION ENERGY       =         -1.56699 KCAL/MOL
                              SUM =         91.19562 KCAL/MOL = FINAL HEAT OF FORMATION



          TOTAL ENERGY            =      -1140.74050 EV
          ELECTRONIC ENERGY       =      -6043.54011 EV 
          CORE-CORE REPULSION     =       4902.79961 EV
          COSMO AREA              =        153.99 SQUARE ANGSTROMS
          COSMO VOLUME            =        152.91 CUBIC ANGSTROMS

          GRADIENT NORM           =          1.10196          =       0.24641 PER ATOM
          IONIZATION POTENTIAL    =         10.437334 EV
          HOMO LUMO ENERGIES (EV) =        -10.437  2.483
          NO. OF FILLED LEVELS    =         22
          MOLECULAR WEIGHT        =        108.1828         POINT GROUP:  Cs  

          MOLECULAR DIMENSIONS (Angstroms)

            Atom       Atom       Distance
            H    16    H    10     5.88705
            H    14    H    17     4.95464
            H    20    H    13     3.80398


          SCF CALCULATIONS        =          1

          WALL-CLOCK TIME         =      0.531 SECONDS
          COMPUTATION TIME        =      1.076 SECONDS

          LARGEST ATOMIC GRADIENTS

          Atom     Label                     Cartesian Gradients           Cartesian Coordinates       |Gradient|
                                           X          Y          Z        X          Y          Z

            19       H                   0.056      0.231     -0.324   -0.87449    1.14328   -2.05386      0.402
            11       H                   0.074      0.329      0.177    2.50730    0.55715   -1.38957      0.381
            10       H                   0.222     -0.226     -0.198    2.10523    1.98923   -0.43077      0.374
            17       H                  -0.221     -0.203      0.105   -2.03369   -0.18855   -2.18852      0.318
            18       H                  -0.242     -0.103      0.170   -2.43850    1.24520   -1.22948      0.313
            13       H                   0.224     -0.163      0.032   -0.42209    1.41109    1.48682      0.279
            20       H                   0.147      0.107      0.209    0.50286   -1.87582   -0.71214      0.277
            14       H                   0.025      0.142     -0.205   -0.12502   -1.48850    2.19504      0.251
             9       H                  -0.133     -0.141      0.146    0.93215    1.33306   -1.57610      0.242
             7       C                   0.008      0.119     -0.172   -1.61914    0.55853   -1.49379      0.209



       FINAL  POINT  AND  DERIVATIVES

   PARAMETER     ATOM    TYPE            VALUE        GRADIENT
      1          1  C    CARTESIAN X     1.698458     -0.140356  KCAL/ANGSTROM
      2          1  C    CARTESIAN Y     1.057037     -0.105451  KCAL/ANGSTROM
      3          1  C    CARTESIAN Z    -0.842250      0.098194  KCAL/ANGSTROM
      4          2  C    CARTESIAN X     1.155841     -0.022974  KCAL/ANGSTROM
      5          2  C    CARTESIAN Y     0.172304     -0.072541  KCAL/ANGSTROM
      6          2  C    CARTESIAN Z     0.251590      0.097601  KCAL/ANGSTROM
      7          3  C    CARTESIAN X    -0.196676      0.018743  KCAL/ANGSTROM
      8          3  C    CARTESIAN Y     0.550604     -0.150529  KCAL/ANGSTROM
      9          3  C    CARTESIAN Z     0.919934      0.132309  KCAL/ANGSTROM
     10          4  C    CARTESIAN X    -0.444908      0.074380  KCAL/ANGSTROM
     11          4  C    CARTESIAN Y    -0.992232      0.075245  KCAL/ANGSTROM
     12          4  C    CARTESIAN Z     1.319052     -0.083383  KCAL/ANGSTROM
     13          5  C    CARTESIAN X    -1.857254      0.013656  KCAL/ANGSTROM
     14          5  C    CARTESIAN Y    -0.974453     -0.021217  KCAL/ANGSTROM
     15          5  C    CARTESIAN Z     0.698358      0.036570  KCAL/ANGSTROM
     16          6  C    CARTESIAN X    -1.055549      0.069102  KCAL/ANGSTROM
     17          6  C    CARTESIAN Y    -0.083659      0.085960  KCAL/ANGSTROM
     18          6  C    CARTESIAN Z    -0.295978     -0.097473  KCAL/ANGSTROM
     19          7  C    CARTESIAN X    -1.619143      0.007654  KCAL/ANGSTROM
     20          7  C    CARTESIAN Y     0.558527      0.118821  KCAL/ANGSTROM
     21          7  C    CARTESIAN Z    -1.493792     -0.171967  KCAL/ANGSTROM
     22          8  C    CARTESIAN X     0.247929     -0.006516  KCAL/ANGSTROM
     23          8  C    CARTESIAN Y    -1.029227     -0.061522  KCAL/ANGSTROM
     24          8  C    CARTESIAN Z    -0.136986      0.190163  KCAL/ANGSTROM
     25          9  H    CARTESIAN X     0.932151     -0.133018  KCAL/ANGSTROM
     26          9  H    CARTESIAN Y     1.333061     -0.140884  KCAL/ANGSTROM
     27          9  H    CARTESIAN Z    -1.576101      0.145741  KCAL/ANGSTROM
     28         10  H    CARTESIAN X     2.105232      0.222363  KCAL/ANGSTROM
     29         10  H    CARTESIAN Y     1.989227     -0.226205  KCAL/ANGSTROM
     30         10  H    CARTESIAN Z    -0.430769     -0.197934  KCAL/ANGSTROM
     31         11  H    CARTESIAN X     2.507298      0.073897  KCAL/ANGSTROM
     32         11  H    CARTESIAN Y     0.557149      0.328659  KCAL/ANGSTROM
     33         11  H    CARTESIAN Z    -1.389570      0.176965  KCAL/ANGSTROM
     34         12  H    CARTESIAN X     1.952596      0.009646  KCAL/ANGSTROM
     35         12  H    CARTESIAN Y    -0.084165      0.048382  KCAL/ANGSTROM
     36         12  H    CARTESIAN Z     0.969922     -0.070743  KCAL/ANGSTROM
     37         13  H    CARTESIAN X    -0.422087      0.223994  KCAL/ANGSTROM
     38         13  H    CARTESIAN Y     1.411091     -0.162910  KCAL/ANGSTROM
     39         13  H    CARTESIAN Z     1.486818      0.031788  KCAL/ANGSTROM
     40         14  H    CARTESIAN X    -0.125019      0.025330  KCAL/ANGSTROM
     41         14  H    CARTESIAN Y    -1.488498      0.142327  KCAL/ANGSTROM
     42         14  H    CARTESIAN Z     2.195040     -0.204759  KCAL/ANGSTROM
     43         15  H    CARTESIAN X    -2.641003     -0.106442  KCAL/ANGSTROM
     44         15  H    CARTESIAN Y    -0.481120      0.119644  KCAL/ANGSTROM
     45         15  H    CARTESIAN Z     1.269453     -0.076591  KCAL/ANGSTROM
     46         16  H    CARTESIAN X    -2.236705     -0.069274  KCAL/ANGSTROM
     47         16  H    CARTESIAN Y    -1.916880     -0.009229  KCAL/ANGSTROM
     48         16  H    CARTESIAN Z     0.309033     -0.165691  KCAL/ANGSTROM
     49         17  H    CARTESIAN X    -2.033688     -0.220775  KCAL/ANGSTROM
     50         17  H    CARTESIAN Y    -0.188551     -0.203208  KCAL/ANGSTROM
     51         17  H    CARTESIAN Z    -2.188524      0.104681  KCAL/ANGSTROM
     52         18  H    CARTESIAN X    -2.438497     -0.242337  KCAL/ANGSTROM
     53         18  H    CARTESIAN Y     1.245205     -0.103010  KCAL/ANGSTROM
     54         18  H    CARTESIAN Z    -1.229481      0.169903  KCAL/ANGSTROM
     55         19  H    CARTESIAN X    -0.874485      0.055951  KCAL/ANGSTROM
     56         19  H    CARTESIAN Y     1.143277      0.230539  KCAL/ANGSTROM
     57         19  H    CARTESIAN Z    -2.053864     -0.324233  KCAL/ANGSTROM
     58         20  H    CARTESIAN X     0.502859      0.146974  KCAL/ANGSTROM
     59         20  H    CARTESIAN Y    -1.875822      0.107125  KCAL/ANGSTROM
     60         20  H    CARTESIAN Z    -0.712140      0.208853  KCAL/ANGSTROM




   ATOM   CHEMICAL          X               Y               Z
  NUMBER   SYMBOL      (ANGSTROMS)     (ANGSTROMS)     (ANGSTROMS)

     1       C          1.69845836  *   1.05703746  *  -0.84224972  *
     2       C          1.15584134  *   0.17230364  *   0.25159032  *
     3       C         -0.19667605  *   0.55060445  *   0.91993371  *
     4       C         -0.44490834  *  -0.99223180  *   1.31905160  *
     5       C         -1.85725393  *  -0.97445339  *   0.69835797  *
     6       C         -1.05554901  *  -0.08365874  *  -0.29597800  *
     7       C         -1.61914289  *   0.55852714  *  -1.49379181  *
     8       C          0.24792932  *  -1.02922696  *  -0.13698567  *
     9       H          0.93215098  *   1.33306086  *  -1.57610133  *
    10       H          2.10523244  *   1.98922733  *  -0.43076947  *
    11       H          2.50729849  *   0.55714900  *  -1.38956983  *
    12       H          1.95259584  *  -0.08416493  *   0.96992152  *
    13       H         -0.42208681  *   1.41109056  *   1.48681771  *
    14       H         -0.12501880  *  -1.48849812  *   2.19504014  *
    15       H         -2.64100277  *  -0.48112008  *   1.26945300  *
    16       H         -2.23670468  *  -1.91688032  *   0.30903294  *
    17       H         -2.03368822  *  -0.18855120  *  -2.18852431  *
    18       H         -2.43849723  *   1.24520462  *  -1.22948140  *
    19       H         -0.87448522  *   1.14327734  *  -2.05386423  *
    20       H          0.50285935  *  -1.87582203  *  -0.71214039  *

                             CARTESIAN COORDINATES

   1    C        1.698458361     1.057037460    -0.842249725
   2    C        1.155841336     0.172303640     0.251590319
   3    C       -0.196676045     0.550604447     0.919933707
   4    C       -0.444908341    -0.992231803     1.319051602
   5    C       -1.857253927    -0.974453388     0.698357974
   6    C       -1.055549006    -0.083658742    -0.295978005
   7    C       -1.619142891     0.558527137    -1.493791810
   8    C        0.247929325    -1.029226964    -0.136985673
   9    H        0.932150976     1.333060860    -1.576101333
  10    H        2.105232441     1.989227327    -0.430769474
  11    H        2.507298486     0.557148995    -1.389569827
  12    H        1.952595841    -0.084164929     0.969921521
  13    H       -0.422086809     1.411090561     1.486817710
  14    H       -0.125018804    -1.488498117     2.195040144
  15    H       -2.641002772    -0.481120083     1.269452996
  16    H       -2.236704681    -1.916880323     0.309032943
  17    H       -2.033688217    -0.188551195    -2.188524309
  18    H       -2.438497227     1.245204624    -1.229481401
  19    H       -0.874485225     1.143277338    -2.053864230
  20    H        0.502859354    -1.875822028    -0.712140388


           Empirical Formula: C8 H12  =    20 atoms



      MOLECULAR POINT GROUP   :   Cs  


                  EIGENVALUES  
 -33.34057 -26.89373 -25.97481 -23.40298 -21.52655 -20.20009 -19.35894 -17.04925
 -16.13977 -15.62569 -15.30007 -14.40827 -14.12142 -13.78490 -13.70760 -12.83400
 -11.55903 -11.20875 -11.06052 -10.88815 -10.52669 -10.43733   2.48338   3.21567
   3.24516   3.31902   3.55439   3.63059   4.53695   4.69696   4.82143   5.44186
   5.63567   5.69367   5.88349   5.93393   6.00831   6.28653   6.35137   6.42456
   6.52698   6.65509   6.83080   7.14872


              NET ATOMIC CHARGES AND DIPOLE CONTRIBUTIONS

  ATOM NO.   TYPE          CHARGE      No. of ELECS.   s-Pop       p-Pop       
    1          C          -0.448211        4.4482     1.04976     3.39845
    2          C          -0.123615        4.1236     1.06930     3.05431
    3          C          -0.168083        4.1681     1.11189     3.05619
    4          C          -0.144029        4.1440     1.10084     3.04319
    5          C          -0.331663        4.3317     1.07506     3.25660
    6          C           0.045091        3.9549     1.08847     2.86644
    7          C          -0.449498        4.4495     1.04464     3.40486
    8          C          -0.168176        4.1682     1.11188     3.05629
    9          H           0.149107        0.8509     0.85089
   10          H           0.147925        0.8521     0.85208
   11          H           0.147918        0.8521     0.85208
   12          H           0.138401        0.8616     0.86160
   13          H           0.146801        0.8532     0.85320
   14          H           0.148908        0.8511     0.85109
   15          H           0.145159        0.8548     0.85484
   16          H           0.145146        0.8549     0.85485
   17          H           0.157830        0.8422     0.84217
   18          H           0.157835        0.8422     0.84217
   19          H           0.156362        0.8436     0.84364
   20          H           0.146793        0.8532     0.85321
 DIPOLE           X         Y         Z       TOTAL
 POINT-CHG.    -0.088     0.327    -0.526     0.626
 HYBRID        -0.064     0.019    -0.056     0.087
 SUM           -0.152     0.346    -0.583     0.695


          ATOMIC ORBITAL ELECTRON POPULATIONS

     Atom    s        px        py        pz   
    1  C   1.04976   1.15961   1.12912   1.10972
    2  C   1.06930   1.01000   1.00763   1.03669
    3  C   1.11189   1.00512   1.01780   1.03327
    4  C   1.10084   0.99350   1.02117   1.02852
    5  C   1.07506   1.03835   1.12786   1.09039
    6  C   1.08847   0.94768   0.97555   0.94321
    7  C   1.04464   1.15969   1.15537   1.08981
    8  C   1.11188   0.99971   1.03658   1.02000
    9  H   0.85089
   10  H   0.85208
   11  H   0.85208
   12  H   0.86160
   13  H   0.85320
   14  H   0.85109
   15  H   0.85484
   16  H   0.85485
   17  H   0.84217
   18  H   0.84217
   19  H   0.84364
   20  H   0.85321

 **********************
 *                    *
 * JOB ENDED NORMALLY *
 *                    *
 **********************



 TOTAL JOB TIME:             0.91 SECONDS

 == MOPAC DONE ==
