 *******************************************************************************
 **                                                                           **
 **                              MOPAC v23.2                                  **
 **                                                                           **
 *******************************************************************************
 **          Digital Object Identifier (DOI): 10.5281/zenodo.6511958          **
 **    Visit the DOI location for information on how to cite this program.    **
 *******************************************************************************

                              PM7 CALCULATION RESULTS

 *******************************************************************************
 *  CALCULATION DONE: (MAX THREADS = 40)             Fri Sep 19 21:31:52 2025  *
 *  PM7        - The PM7 Hamiltonian to be used
 *
 *
 *
 *                 CHARGE ON SYSTEM = +1
 *
 *
 *
 *  EPS=37.5   - USE ANDREAS KLAMT'S COSMO IMPLICIT SOLVATION MODEL
 *  1SCF       - DO 1 SCF AND THEN STOP 
 *  T=         - A TIME OF 172800.0 SECONDS REQUESTED
 *  DUMP=N     - RESTART FILE WRITTEN EVERY 7200.0 SECONDS REQUESTED
 *  RELSCF     - DEFAULT SCF CRITERION MULTIPLIED BY 0.0001
 *              (DEFAULT SCF CRITERION = 0.00010)
 *  GRADIENTS  - ALL GRADIENTS TO BE PRINTED
 *  DISP       - PRINT DISPERSION AND HYDROGEN BOND ENERGIES
 *******************************************************************************
PM7 1SCF GRADIENTS EPS=37.5 DISP RELSCF=0.0001 CHARGE=1
 Title: ASE calculation

   ATOM   CHEMICAL          X               Y               Z
  NUMBER   SYMBOL      (ANGSTROMS)     (ANGSTROMS)     (ANGSTROMS)

     1       C         -3.25801237  *   1.73690676  *  -1.02184060  *
     2       C         -2.60444035  *   0.37997722  *  -0.76415799  *
     3       C         -1.84457331  *   0.39729828  *   0.56912477  *
     4       C         -1.31123545  *  -0.98044710  *   0.96372290  *
     5       C         -0.20895534  *  -1.49794156  *   0.00421788  *
     6       C          0.90006884  *  -0.63073061  *   0.01477668  *
     7       C          1.90922340  *   0.19031119  *   0.04129505  *
     8       C          2.95840551  *   1.05085817  *   0.06793638  *
     9       O          2.91308697  *   2.28946806  *  -0.05638531  *
    10       H         -4.02333442  *   1.96645882  *  -0.26799614  *
    11       H         -2.53070182  *   2.55550360  *  -1.00704268  *
    12       H         -3.75241036  *   1.76078623  *  -2.00305055  *
    13       H         -1.92907593  *   0.12587278  *  -1.60086332  *
    14       H         -3.38299815  *  -0.41031293  *  -0.75098736  *
    15       H         -1.03238988  *   1.14511869  *   0.53468642  *
    16       H         -2.53077297  *   0.75732437  *   1.36938432  *
    17       H         -0.92576643  *  -0.95971265  *   2.00305055  *
    18       H         -2.14450551  *  -1.71762144  *   0.97689244  *
    19       H          0.06398276  *  -2.55550360  *   0.27470876  *
    20       H         -0.65159429  *  -1.59056260  *  -1.03242419  *
    21       H          4.02333442  *   0.66522039  *   0.21850314  *



          CARTESIAN COORDINATES 

    NO.       ATOM           X           Y           Z

     1         C         -3.2580      1.7369     -1.0218
     2         C         -2.6044      0.3800     -0.7642
     3         C         -1.8446      0.3973      0.5691
     4         C         -1.3112     -0.9804      0.9637
     5         C         -0.2090     -1.4979      0.0042
     6         C          0.9001     -0.6307      0.0148
     7         C          1.9092      0.1903      0.0413
     8         C          2.9584      1.0509      0.0679
     9         O          2.9131      2.2895     -0.0564
    10         H         -4.0233      1.9665     -0.2680
    11         H         -2.5307      2.5555     -1.0070
    12         H         -3.7524      1.7608     -2.0031
    13         H         -1.9291      0.1259     -1.6009
    14         H         -3.3830     -0.4103     -0.7510
    15         H         -1.0324      1.1451      0.5347
    16         H         -2.5308      0.7573      1.3694
    17         H         -0.9258     -0.9597      2.0031
    18         H         -2.1445     -1.7176      0.9769
    19         H          0.0640     -2.5555      0.2747
    20         H         -0.6516     -1.5906     -1.0324
    21         H          4.0233      0.6652      0.2185

 General Reference for PM7:
 "Optimization of Parameters for Semiempirical Methods VI: More Modifications to the 
 NDDO Approximations and Re-optimization of Parameters", J. J. P. Stewart, J. Mol. Mod., 1:32, 19 (2013)
 https://link.springer.com/article/10.1007/s00894-012-1667-x

           Empirical Formula: C8 H12 O  =    21 atoms



      MOLECULAR POINT GROUP   :   C1  


          UHF CALCULATION, NO. OF ALPHA ELECTRONS =   25
                           NO. OF BETA  ELECTRONS =   24
  SCF CRITERION =    0.1000E-07

 -------------------------------------------------------------------------------
 PM7 1SCF GRADIENTS EPS=37.5 DISP RELSCF=0.0001 CHARGE=1
 Title: ASE calculation



     1SCF WAS SPECIFIED, SO BFGS WAS NOT USED                 
     SCF FIELD WAS ACHIEVED                                   


                              PM7 CALCULATION
                                                       MOPAC v23.2 Linux
                                                       Fri Sep 19 21:31:53 2025




          FINAL HEAT OF FORMATION =        156.49992 KCAL/MOL =     654.79568 KJ/MOL

          TOTAL ENERGY            =     -33011.05882 KCAL/MOL = ELECTRONIC ENERGY + CORE-CORE REPULSION + SOLVATION ENERGY
          ENERGY OF ATOMS         =      33167.45855 KCAL/MOL
                              SUM =        156.39973 KCAL/MOL
          DISPERSION ENERGY       =         -2.03322 KCAL/MOL
                              SUM =        154.36651 KCAL/MOL = FINAL HEAT OF FORMATION

     *    WARNING - An energy term is incorrect or missing!

     *    FINAL HEAT OF FORMATION     =    156.49992 KCAL/MOL
     *    SUM OF CONTRIBUTIONS TO HoF =    154.36651 KCAL/MOL
     *                     DIFFERENCE =      2.13341 KCAL/MOL

          VAN DER WAALS AREA      =        188.25 SQUARE ANGSTROMS


          TOTAL ENERGY            =      -1431.49500 EV
          ELECTRONIC ENERGY       =      -1915.10372 EV 
          CORE-CORE REPULSION     =        483.60872 EV

          DIELECTRIC ENERGY       =         -2.35997 EV
          COSMO AREA              =        188.25 SQUARE ANGSTROMS
          COSMO VOLUME            =        181.25 CUBIC ANGSTROMS

          GRADIENT NORM           =         36.84470          =       8.04017 PER ATOM
          IONIZATION POTENTIAL    =         11.213753 EV
          ALPHA SOMO LUMO (EV)    =        -11.292 -2.112
          BETA  SOMO LUMO (EV)    =        -11.214 -3.360
          NO. OF ALPHA ELECTRONS  =         25
          NO. OF BETA  ELECTRONS  =         24
          MOLECULAR WEIGHT        =        124.1822         POINT GROUP:  C1  

          MOLECULAR DIMENSIONS (Angstroms)

            Atom       Atom       Distance
            H    21    H    10     8.16571
            H    19    O     9     5.25713
            H    17    H    12     3.60066


          SCF CALCULATIONS        =          2

          WALL-CLOCK TIME         =      1.797 SECONDS
          COMPUTATION TIME        =      0.645 SECONDS

          LARGEST ATOMIC GRADIENTS

          Atom     Label                     Cartesian Gradients           Cartesian Coordinates       |Gradient|
                                           X          Y          Z        X          Y          Z

             7       C                  17.859     13.611      0.883    1.90922    0.19031    0.04130     22.472
             8       C                  -1.949    -17.931      1.261    2.95841    1.05086    0.06794     18.081
             6       C                 -12.802     -8.060     -0.011    0.90007   -0.63073    0.01478     15.128
             9       O                  -1.864     11.825     -1.508    2.91309    2.28947   -0.05639     12.066
             5       C                   7.966     -0.830     -2.257   -0.20896   -1.49794    0.00422      8.322
            21       H                  -4.397      0.001      0.000    4.02333    0.66522    0.21850      4.397
             3       C                   3.444     -0.750     -1.084   -1.84457    0.39730    0.56912      3.688
             1       C                   3.090     -1.116      1.473   -3.25801    1.73691   -1.02184      3.600
             4       C                   0.084      2.241      1.974   -1.31124   -0.98045    0.96372      2.987
            20       H                  -2.395      0.636     -0.269   -0.65159   -1.59056   -1.03242      2.493



       FINAL  POINT  AND  DERIVATIVES

   PARAMETER     ATOM    TYPE            VALUE        GRADIENT
      1          1  C    CARTESIAN X    -3.258012      3.089543  KCAL/ANGSTROM
      2          1  C    CARTESIAN Y     1.736907     -1.116347  KCAL/ANGSTROM
      3          1  C    CARTESIAN Z    -1.021841      1.473167  KCAL/ANGSTROM
      4          2  C    CARTESIAN X    -2.604440      1.783611  KCAL/ANGSTROM
      5          2  C    CARTESIAN Y     0.379977     -1.035598  KCAL/ANGSTROM
      6          2  C    CARTESIAN Z    -0.764158     -0.493050  KCAL/ANGSTROM
      7          3  C    CARTESIAN X    -1.844573      3.444339  KCAL/ANGSTROM
      8          3  C    CARTESIAN Y     0.397298     -0.749616  KCAL/ANGSTROM
      9          3  C    CARTESIAN Z     0.569125     -1.083726  KCAL/ANGSTROM
     10          4  C    CARTESIAN X    -1.311235      0.084357  KCAL/ANGSTROM
     11          4  C    CARTESIAN Y    -0.980447      2.240605  KCAL/ANGSTROM
     12          4  C    CARTESIAN Z     0.963723      1.974045  KCAL/ANGSTROM
     13          5  C    CARTESIAN X    -0.208955      7.966482  KCAL/ANGSTROM
     14          5  C    CARTESIAN Y    -1.497942     -0.830109  KCAL/ANGSTROM
     15          5  C    CARTESIAN Z     0.004218     -2.257164  KCAL/ANGSTROM
     16          6  C    CARTESIAN X     0.900069    -12.802460  KCAL/ANGSTROM
     17          6  C    CARTESIAN Y    -0.630731     -8.060156  KCAL/ANGSTROM
     18          6  C    CARTESIAN Z     0.014777     -0.010687  KCAL/ANGSTROM
     19          7  C    CARTESIAN X     1.909223     17.858936  KCAL/ANGSTROM
     20          7  C    CARTESIAN Y     0.190311     13.610789  KCAL/ANGSTROM
     21          7  C    CARTESIAN Z     0.041295      0.883352  KCAL/ANGSTROM
     22          8  C    CARTESIAN X     2.958406     -1.948697  KCAL/ANGSTROM
     23          8  C    CARTESIAN Y     1.050858    -17.930980  KCAL/ANGSTROM
     24          8  C    CARTESIAN Z     0.067936      1.261364  KCAL/ANGSTROM
     25          9  O    CARTESIAN X     2.913087     -1.863899  KCAL/ANGSTROM
     26          9  O    CARTESIAN Y     2.289468     11.825418  KCAL/ANGSTROM
     27          9  O    CARTESIAN Z    -0.056385     -1.508215  KCAL/ANGSTROM
     28         10  H    CARTESIAN X    -4.023334     -1.145395  KCAL/ANGSTROM
     29         10  H    CARTESIAN Y     1.966459      0.223388  KCAL/ANGSTROM
     30         10  H    CARTESIAN Z    -0.267996      0.094264  KCAL/ANGSTROM
     31         11  H    CARTESIAN X    -2.530702     -1.038542  KCAL/ANGSTROM
     32         11  H    CARTESIAN Y     2.555504      0.600148  KCAL/ANGSTROM
     33         11  H    CARTESIAN Z    -1.007043     -0.314933  KCAL/ANGSTROM
     34         12  H    CARTESIAN X    -3.752410     -0.732329  KCAL/ANGSTROM
     35         12  H    CARTESIAN Y     1.760786      0.237055  KCAL/ANGSTROM
     36         12  H    CARTESIAN Z    -2.003051     -0.710438  KCAL/ANGSTROM
     37         13  H    CARTESIAN X    -1.929076     -1.244516  KCAL/ANGSTROM
     38         13  H    CARTESIAN Y     0.125873      0.700218  KCAL/ANGSTROM
     39         13  H    CARTESIAN Z    -1.600863     -0.657318  KCAL/ANGSTROM
     40         14  H    CARTESIAN X    -3.382998     -1.517380  KCAL/ANGSTROM
     41         14  H    CARTESIAN Y    -0.410313      0.339435  KCAL/ANGSTROM
     42         14  H    CARTESIAN Z    -0.750987     -0.211314  KCAL/ANGSTROM
     43         15  H    CARTESIAN X    -1.032390     -1.083167  KCAL/ANGSTROM
     44         15  H    CARTESIAN Y     1.145119      0.547384  KCAL/ANGSTROM
     45         15  H    CARTESIAN Z     0.534686      0.337440  KCAL/ANGSTROM
     46         16  H    CARTESIAN X    -2.530773     -1.358151  KCAL/ANGSTROM
     47         16  H    CARTESIAN Y     0.757324      0.127635  KCAL/ANGSTROM
     48         16  H    CARTESIAN Z     1.369384      0.378053  KCAL/ANGSTROM
     49         17  H    CARTESIAN X    -0.925766     -0.681878  KCAL/ANGSTROM
     50         17  H    CARTESIAN Y    -0.959713     -0.406132  KCAL/ANGSTROM
     51         17  H    CARTESIAN Z     2.003051      0.328625  KCAL/ANGSTROM
     52         18  H    CARTESIAN X    -2.144506     -1.106408  KCAL/ANGSTROM
     53         18  H    CARTESIAN Y    -1.717621     -0.082789  KCAL/ANGSTROM
     54         18  H    CARTESIAN Z     0.976892      0.340408  KCAL/ANGSTROM
     55         19  H    CARTESIAN X     0.063983     -0.912501  KCAL/ANGSTROM
     56         19  H    CARTESIAN Y    -2.555504     -0.876747  KCAL/ANGSTROM
     57         19  H    CARTESIAN Z     0.274709      0.444545  KCAL/ANGSTROM
     58         20  H    CARTESIAN X    -0.651594     -2.395417  KCAL/ANGSTROM
     59         20  H    CARTESIAN Y    -1.590563      0.635808  KCAL/ANGSTROM
     60         20  H    CARTESIAN Z    -1.032424     -0.268851  KCAL/ANGSTROM
     61         21  H    CARTESIAN X     4.023334     -4.396533  KCAL/ANGSTROM
     62         21  H    CARTESIAN Y     0.665220      0.000588  KCAL/ANGSTROM
     63         21  H    CARTESIAN Z     0.218503      0.000431  KCAL/ANGSTROM




   ATOM   CHEMICAL          X               Y               Z
  NUMBER   SYMBOL      (ANGSTROMS)     (ANGSTROMS)     (ANGSTROMS)

     1       C         -3.25801237  *   1.73690676  *  -1.02184060  *
     2       C         -2.60444035  *   0.37997722  *  -0.76415799  *
     3       C         -1.84457331  *   0.39729828  *   0.56912477  *
     4       C         -1.31123545  *  -0.98044710  *   0.96372290  *
     5       C         -0.20895534  *  -1.49794156  *   0.00421788  *
     6       C          0.90006884  *  -0.63073061  *   0.01477668  *
     7       C          1.90922340  *   0.19031119  *   0.04129505  *
     8       C          2.95840551  *   1.05085817  *   0.06793638  *
     9       O          2.91308697  *   2.28946806  *  -0.05638531  *
    10       H         -4.02333442  *   1.96645882  *  -0.26799614  *
    11       H         -2.53070182  *   2.55550360  *  -1.00704268  *
    12       H         -3.75241036  *   1.76078623  *  -2.00305055  *
    13       H         -1.92907593  *   0.12587278  *  -1.60086332  *
    14       H         -3.38299815  *  -0.41031293  *  -0.75098736  *
    15       H         -1.03238988  *   1.14511869  *   0.53468642  *
    16       H         -2.53077297  *   0.75732437  *   1.36938432  *
    17       H         -0.92576643  *  -0.95971265  *   2.00305055  *
    18       H         -2.14450551  *  -1.71762144  *   0.97689244  *
    19       H          0.06398276  *  -2.55550360  *   0.27470876  *
    20       H         -0.65159429  *  -1.59056260  *  -1.03242419  *
    21       H          4.02333442  *   0.66522039  *   0.21850314  *

                             CARTESIAN COORDINATES

   1    C       -3.258012373     1.736906761    -1.021840600
   2    C       -2.604440350     0.379977224    -0.764157994
   3    C       -1.844573312     0.397298282     0.569124766
   4    C       -1.311235452    -0.980447104     0.963722899
   5    C       -0.208955335    -1.497941562     0.004217876
   6    C        0.900068836    -0.630730605     0.014776683
   7    C        1.909223397     0.190311194     0.041295047
   8    C        2.958405510     1.050858172     0.067936379
   9    O        2.913086968     2.289468064    -0.056385312
  10    H       -4.023334418     1.966458817    -0.267996145
  11    H       -2.530701820     2.555503601    -1.007042683
  12    H       -3.752410361     1.760786226    -2.003050552
  13    H       -1.929075927     0.125872779    -1.600863318
  14    H       -3.382998152    -0.410312934    -0.750987360
  15    H       -1.032389881     1.145118688     0.534686416
  16    H       -2.530772967     0.757324369     1.369384325
  17    H       -0.925766429    -0.959712647     2.003050552
  18    H       -2.144505510    -1.717621443     0.976892436
  19    H        0.063982759    -2.555503601     0.274708760
  20    H       -0.651594287    -1.590562598    -1.032424186
  21    H        4.023334418     0.665220392     0.218503140


           Empirical Formula: C8 H12 O  =    21 atoms



      MOLECULAR POINT GROUP   :   C1  


          ALPHA EIGENVALUES  
 -35.77777 -30.03541 -28.00460 -27.39031 -25.34071 -23.68587 -21.43598 -20.25871
 -19.39351 -18.14874 -16.96265 -16.60213 -16.47790 -15.93340 -14.92320 -14.57217
 -14.05876 -13.84838 -13.11546 -12.62446 -12.29704 -11.91241 -11.63566 -11.40729
 -11.29237  -2.11222  -0.39216   0.68320   1.84416   2.62257   3.21234   3.46687
   3.55283   3.72621   4.20344   4.46371   4.62792   4.74811   5.21926   5.38677
   5.56153   5.70789   5.77379   6.02047   6.08318   6.43328   6.50374   6.93293


           BETA EIGENVALUES 
 -32.42338 -30.04613 -27.93917 -26.92372 -25.10493 -23.45926 -21.39683 -20.07229
 -18.47047 -17.28379 -16.80440 -16.52077 -16.04487 -15.68607 -14.89730 -14.50476
 -13.93650 -13.10918 -12.63020 -12.29350 -11.80506 -11.58009 -11.32096 -11.21375
  -3.36021  -1.95570  -0.31764   0.67555   2.35771   2.77852   3.24550   3.58964
   3.72713   3.82128   4.20309   4.46170   4.62592   4.74484   5.21873   5.38558
   5.55748   5.70662   5.77376   6.02019   6.08273   6.43310   6.50359   6.93293


              NET ATOMIC CHARGES AND DIPOLE CONTRIBUTIONS

  ATOM NO.   TYPE          CHARGE      No. of ELECS.   s-Pop       p-Pop       
    1          C          -0.448994        4.4490     1.05311     3.39589
    2          C          -0.256597        4.2566     1.05588     3.20072
    3          C          -0.291065        4.2911     1.06077     3.23029
    4          C          -0.247344        4.2473     1.06298     3.18436
    5          C          -0.336119        4.3361     1.05377     3.28235
    6          C           0.382131        3.6179     1.16565     2.45222
    7          C          -0.409495        4.4095     1.03943     3.37007
    8          C           0.301337        3.6987     1.14174     2.55693
    9          O           0.185797        5.8142     1.91433     3.89987
   10          H           0.151221        0.8488     0.84878
   11          H           0.145297        0.8547     0.85470
   12          H           0.150890        0.8491     0.84911
   13          H           0.133757        0.8662     0.86624
   14          H           0.145946        0.8541     0.85405
   15          H           0.139315        0.8607     0.86069
   16          H           0.157214        0.8428     0.84279
   17          H           0.157802        0.8422     0.84220
   18          H           0.170233        0.8298     0.82977
   19          H           0.225181        0.7748     0.77482
   20          H           0.234157        0.7658     0.76584
   21          H           0.309336        0.6907     0.69066
 DIPOLE           X         Y         Z       TOTAL
 POINT-CHG.     9.265    -1.016     0.600     9.340
 HYBRID         0.344     0.409    -0.119     0.547
 SUM            9.608    -0.607     0.482     9.640


          ATOMIC ORBITAL ELECTRON POPULATIONS

     Atom    s        px        py        pz   
    1  C   1.05311   1.15287   1.06816   1.17485
    2  C   1.05588   1.10511   1.05025   1.04536
    3  C   1.06077   1.12808   1.02968   1.07253
    4  C   1.06298   1.05208   1.06105   1.07123
    5  C   1.05377   1.00792   1.10283   1.17159
    6  C   1.16565   0.90428   0.89188   0.65605
    7  C   1.03943   1.03743   1.09591   1.23673
    8  C   1.14174   1.04726   0.86841   0.64125
    9  O   1.91433   1.14541   1.21452   1.53995
   10  H   0.84878
   11  H   0.85470
   12  H   0.84911
   13  H   0.86624
   14  H   0.85405
   15  H   0.86069
   16  H   0.84279
   17  H   0.84220
   18  H   0.82977
   19  H   0.77482
   20  H   0.76584
   21  H   0.69066


                    (SZ)    =    0.500000
                    (S**2)  =    0.780156


          ATOMIC ORBITAL SPIN POPULATIONS

    Atom   Total    s     px     py     pz   
         Atomic
    1  C  0.0000  0.000  0.000  0.000  0.000
    2  C -0.0000 -0.000 -0.000 -0.000 -0.000
    3  C  0.0001  0.000  0.000  0.000  0.000
    4  C -0.0047 -0.001 -0.002 -0.000 -0.001
    5  C  0.0054  0.001  0.003  0.002 -0.001
    6  C -0.1131 -0.003 -0.021 -0.024 -0.066
    7  C  0.1325  0.026  0.042  0.034  0.031
    8  C -0.0999 -0.010  0.005 -0.033 -0.061
    9  O  0.9821  0.018  0.825  0.025  0.114
   10  H -0.0000 -0.000
   11  H -0.0000 -0.000
   12  H -0.0000 -0.000
   13  H  0.0000  0.000
   14  H  0.0000  0.000
   15  H -0.0000 -0.000
   16  H -0.0001 -0.000
   17  H  0.0001  0.000
   18  H  0.0000  0.000
   19  H -0.0021 -0.002
   20  H -0.0043 -0.004
   21  H  0.1040  0.104

 **********************
 *                    *
 * JOB ENDED NORMALLY *
 *                    *
 **********************



 TOTAL JOB TIME:             2.12 SECONDS

 == MOPAC DONE ==
