 *******************************************************************************
 **                                                                           **
 **                              MOPAC v23.2                                  **
 **                                                                           **
 *******************************************************************************
 **          Digital Object Identifier (DOI): 10.5281/zenodo.6511958          **
 **    Visit the DOI location for information on how to cite this program.    **
 *******************************************************************************

                              PM7 CALCULATION RESULTS

 *******************************************************************************
 *  CALCULATION DONE: (MAX THREADS = 40)             Fri Sep 19 21:30:08 2025  *
 *  PM7        - The PM7 Hamiltonian to be used
 *  1SCF       - DO 1 SCF AND THEN STOP 
 *  T=         - A TIME OF 172800.0 SECONDS REQUESTED
 *  DUMP=N     - RESTART FILE WRITTEN EVERY 7200.0 SECONDS REQUESTED
 *  RELSCF     - DEFAULT SCF CRITERION MULTIPLIED BY 0.0001
 *              (DEFAULT SCF CRITERION = 0.00010)
 *  GRADIENTS  - ALL GRADIENTS TO BE PRINTED
 *  DISP       - PRINT DISPERSION AND HYDROGEN BOND ENERGIES
 *******************************************************************************
PM7 1SCF GRADIENTS DISP RELSCF=0.0001
 Title: ASE calculation

   ATOM   CHEMICAL          X               Y               Z
  NUMBER   SYMBOL      (ANGSTROMS)     (ANGSTROMS)     (ANGSTROMS)

     1       O         -2.75266151  *  -1.16791338  *  -0.35198519  *
     2       C         -1.58864115  *  -1.48260581  *  -0.41000522  *
     3       C         -0.50962681  *  -0.47587057  *  -0.48559886  *
     4       C          0.78729918  *  -0.80685955  *  -0.56766710  *
     5       C          1.84482296  *   0.24140350  *  -0.66368653  *
     6       C          1.45832070  *   1.53698177  *   0.08311747  *
     7       N          0.08958360  *   1.99200299  *  -0.20918644  *
     8       C         -0.94727252  *   1.71462687  *   0.81111808  *
     9       C         -0.92262812  *   0.94296932  *  -0.49096430  *
    10       H         -1.29677229  *  -2.54197828  *  -0.40939844  *
    11       H          1.13331001  *  -1.83899426  *  -0.59023318  *
    12       H          2.81664535  *  -0.12732686  *  -0.28079285  *
    13       H          2.01778266  *   0.47678541  *  -1.74010258  *
    14       H          1.62967734  *   1.40769972  *   1.17279691  *
    15       H          2.11988283  *   2.37460403  *  -0.24670653  *
    16       H         -0.70307792  *   1.22281704  *   1.74995905  *
    17       H         -1.67780302  *   2.51357798  *   0.95718090  *
    18       H         -1.64351499  *   1.19765539  *  -1.28655708  *



          CARTESIAN COORDINATES 

    NO.       ATOM           X           Y           Z

     1         O         -2.7527     -1.1679     -0.3520
     2         C         -1.5886     -1.4826     -0.4100
     3         C         -0.5096     -0.4759     -0.4856
     4         C          0.7873     -0.8069     -0.5677
     5         C          1.8448      0.2414     -0.6637
     6         C          1.4583      1.5370      0.0831
     7         N          0.0896      1.9920     -0.2092
     8         C         -0.9473      1.7146      0.8111
     9         C         -0.9226      0.9430     -0.4910
    10         H         -1.2968     -2.5420     -0.4094
    11         H          1.1333     -1.8390     -0.5902
    12         H          2.8166     -0.1273     -0.2808
    13         H          2.0178      0.4768     -1.7401
    14         H          1.6297      1.4077      1.1728
    15         H          2.1199      2.3746     -0.2467
    16         H         -0.7031      1.2228      1.7500
    17         H         -1.6778      2.5136      0.9572
    18         H         -1.6435      1.1977     -1.2866

 General Reference for PM7:
 "Optimization of Parameters for Semiempirical Methods VI: More Modifications to the 
 NDDO Approximations and Re-optimization of Parameters", J. J. P. Stewart, J. Mol. Mod., 1:32, 19 (2013)
 https://link.springer.com/article/10.1007/s00894-012-1667-x

           Empirical Formula: C7 H9 N O  =    18 atoms



      MOLECULAR POINT GROUP   :   C1  


      RHF CALCULATION, NO. OF DOUBLY OCCUPIED LEVELS = 24

  SCF CRITERION =    0.1000E-07

 -------------------------------------------------------------------------------
 PM7 1SCF GRADIENTS DISP RELSCF=0.0001
 Title: ASE calculation



     1SCF WAS SPECIFIED, SO BFGS WAS NOT USED                 
     SCF FIELD WAS ACHIEVED                                   


                              PM7 CALCULATION
                                                       MOPAC v23.2 Linux
                                                       Fri Sep 19 21:30:09 2025




          FINAL HEAT OF FORMATION =         17.14083 KCAL/MOL =      71.71722 KJ/MOL

          TOTAL ENERGY            =     -33690.19943 KCAL/MOL = ELECTRONIC ENERGY + CORE-CORE REPULSION
          ENERGY OF ATOMS         =      33709.16394 KCAL/MOL
                              SUM =         18.96450 KCAL/MOL
          DISPERSION ENERGY       =         -1.82368 KCAL/MOL
                              SUM =         17.14083 KCAL/MOL = FINAL HEAT OF FORMATION



          TOTAL ENERGY            =      -1460.94532 EV
          ELECTRONIC ENERGY       =      -6980.29247 EV 
          CORE-CORE REPULSION     =       5519.34715 EV
          COSMO AREA              =        157.54 SQUARE ANGSTROMS
          COSMO VOLUME            =        156.85 CUBIC ANGSTROMS

          GRADIENT NORM           =          1.11333          =       0.26241 PER ATOM
          IONIZATION POTENTIAL    =          9.626758 EV
          HOMO LUMO ENERGIES (EV) =         -9.627 -0.541
          NO. OF FILLED LEVELS    =         24
          MOLECULAR WEIGHT        =        123.1542         POINT GROUP:  C1  

          MOLECULAR DIMENSIONS (Angstroms)

            Atom       Atom       Distance
            H    15    O     1     6.02513
            H    17    H    11     5.39851
            H    18    H    16     3.04872


          SCF CALCULATIONS        =          1

          WALL-CLOCK TIME         =      0.836 SECONDS
          COMPUTATION TIME        =      0.526 SECONDS

          LARGEST ATOMIC GRADIENTS

          Atom     Label                     Cartesian Gradients           Cartesian Coordinates       |Gradient|
                                           X          Y          Z        X          Y          Z

             7       N                  -0.078      0.433     -0.068    0.08958    1.99200   -0.20919      0.445
            17       H                   0.114     -0.327     -0.147   -1.67780    2.51358    0.95718      0.376
             1       O                   0.193      0.084      0.300   -2.75266   -1.16791   -0.35199      0.366
            14       H                  -0.040     -0.253      0.167    1.62968    1.40770    1.17280      0.306
            15       H                   0.090      0.267     -0.100    2.11988    2.37460   -0.24671      0.299
             6       C                  -0.099      0.271      0.014    1.45832    1.53698    0.08312      0.289
            10       H                  -0.210     -0.069     -0.163   -1.29677   -2.54198   -0.40940      0.275
            18       H                  -0.014     -0.056     -0.241   -1.64351    1.19766   -1.28656      0.248
             3       C                  -0.048     -0.087      0.227   -0.50963   -0.47587   -0.48560      0.248
             4       C                  -0.184     -0.133     -0.072    0.78730   -0.80686   -0.56767      0.238



       FINAL  POINT  AND  DERIVATIVES

   PARAMETER     ATOM    TYPE            VALUE        GRADIENT
      1          1  O    CARTESIAN X    -2.752662      0.192938  KCAL/ANGSTROM
      2          1  O    CARTESIAN Y    -1.167913      0.084462  KCAL/ANGSTROM
      3          1  O    CARTESIAN Z    -0.351985      0.299936  KCAL/ANGSTROM
      4          2  C    CARTESIAN X    -1.588641     -0.137199  KCAL/ANGSTROM
      5          2  C    CARTESIAN Y    -1.482606     -0.146205  KCAL/ANGSTROM
      6          2  C    CARTESIAN Z    -0.410005     -0.106604  KCAL/ANGSTROM
      7          3  C    CARTESIAN X    -0.509627     -0.048088  KCAL/ANGSTROM
      8          3  C    CARTESIAN Y    -0.475871     -0.086731  KCAL/ANGSTROM
      9          3  C    CARTESIAN Z    -0.485599      0.226821  KCAL/ANGSTROM
     10          4  C    CARTESIAN X     0.787299     -0.183978  KCAL/ANGSTROM
     11          4  C    CARTESIAN Y    -0.806860     -0.133440  KCAL/ANGSTROM
     12          4  C    CARTESIAN Z    -0.567667     -0.071948  KCAL/ANGSTROM
     13          5  C    CARTESIAN X     1.844823     -0.133744  KCAL/ANGSTROM
     14          5  C    CARTESIAN Y     0.241403     -0.041436  KCAL/ANGSTROM
     15          5  C    CARTESIAN Z    -0.663687     -0.005462  KCAL/ANGSTROM
     16          6  C    CARTESIAN X     1.458321     -0.099238  KCAL/ANGSTROM
     17          6  C    CARTESIAN Y     1.536982      0.271127  KCAL/ANGSTROM
     18          6  C    CARTESIAN Z     0.083117      0.013625  KCAL/ANGSTROM
     19          7  N    CARTESIAN X     0.089584     -0.078239  KCAL/ANGSTROM
     20          7  N    CARTESIAN Y     1.992003      0.433131  KCAL/ANGSTROM
     21          7  N    CARTESIAN Z    -0.209186     -0.068242  KCAL/ANGSTROM
     22          8  C    CARTESIAN X    -0.947273      0.200217  KCAL/ANGSTROM
     23          8  C    CARTESIAN Y     1.714627     -0.087493  KCAL/ANGSTROM
     24          8  C    CARTESIAN Z     0.811118     -0.032196  KCAL/ANGSTROM
     25          9  C    CARTESIAN X    -0.922628     -0.002347  KCAL/ANGSTROM
     26          9  C    CARTESIAN Y     0.942969      0.044976  KCAL/ANGSTROM
     27          9  C    CARTESIAN Z    -0.490964     -0.057023  KCAL/ANGSTROM
     28         10  H    CARTESIAN X    -1.296772     -0.210344  KCAL/ANGSTROM
     29         10  H    CARTESIAN Y    -2.541978     -0.069196  KCAL/ANGSTROM
     30         10  H    CARTESIAN Z    -0.409398     -0.163432  KCAL/ANGSTROM
     31         11  H    CARTESIAN X     1.133310      0.041758  KCAL/ANGSTROM
     32         11  H    CARTESIAN Y    -1.838994     -0.086231  KCAL/ANGSTROM
     33         11  H    CARTESIAN Z    -0.590233      0.033594  KCAL/ANGSTROM
     34         12  H    CARTESIAN X     2.816645      0.073095  KCAL/ANGSTROM
     35         12  H    CARTESIAN Y    -0.127327     -0.042267  KCAL/ANGSTROM
     36         12  H    CARTESIAN Z    -0.280793      0.108493  KCAL/ANGSTROM
     37         13  H    CARTESIAN X     2.017783      0.155936  KCAL/ANGSTROM
     38         13  H    CARTESIAN Y     0.476785      0.137502  KCAL/ANGSTROM
     39         13  H    CARTESIAN Z    -1.740103     -0.031028  KCAL/ANGSTROM
     40         14  H    CARTESIAN X     1.629677     -0.040248  KCAL/ANGSTROM
     41         14  H    CARTESIAN Y     1.407700     -0.253018  KCAL/ANGSTROM
     42         14  H    CARTESIAN Z     1.172797      0.166774  KCAL/ANGSTROM
     43         15  H    CARTESIAN X     2.119883      0.089796  KCAL/ANGSTROM
     44         15  H    CARTESIAN Y     2.374604      0.267282  KCAL/ANGSTROM
     45         15  H    CARTESIAN Z    -0.246707     -0.099530  KCAL/ANGSTROM
     46         16  H    CARTESIAN X    -0.703078      0.079918  KCAL/ANGSTROM
     47         16  H    CARTESIAN Y     1.222817      0.090463  KCAL/ANGSTROM
     48         16  H    CARTESIAN Z     1.749959      0.174604  KCAL/ANGSTROM
     49         17  H    CARTESIAN X    -1.677803      0.113558  KCAL/ANGSTROM
     50         17  H    CARTESIAN Y     2.513578     -0.326709  KCAL/ANGSTROM
     51         17  H    CARTESIAN Z     0.957181     -0.147138  KCAL/ANGSTROM
     52         18  H    CARTESIAN X    -1.643515     -0.013792  KCAL/ANGSTROM
     53         18  H    CARTESIAN Y     1.197655     -0.056216  KCAL/ANGSTROM
     54         18  H    CARTESIAN Z    -1.286557     -0.241247  KCAL/ANGSTROM




   ATOM   CHEMICAL          X               Y               Z
  NUMBER   SYMBOL      (ANGSTROMS)     (ANGSTROMS)     (ANGSTROMS)

     1       O         -2.75266151  *  -1.16791338  *  -0.35198519  *
     2       C         -1.58864115  *  -1.48260581  *  -0.41000522  *
     3       C         -0.50962681  *  -0.47587057  *  -0.48559886  *
     4       C          0.78729918  *  -0.80685955  *  -0.56766710  *
     5       C          1.84482296  *   0.24140350  *  -0.66368653  *
     6       C          1.45832070  *   1.53698177  *   0.08311747  *
     7       N          0.08958360  *   1.99200299  *  -0.20918644  *
     8       C         -0.94727252  *   1.71462687  *   0.81111808  *
     9       C         -0.92262812  *   0.94296932  *  -0.49096430  *
    10       H         -1.29677229  *  -2.54197828  *  -0.40939844  *
    11       H          1.13331001  *  -1.83899426  *  -0.59023318  *
    12       H          2.81664535  *  -0.12732686  *  -0.28079285  *
    13       H          2.01778266  *   0.47678541  *  -1.74010258  *
    14       H          1.62967734  *   1.40769972  *   1.17279691  *
    15       H          2.11988283  *   2.37460403  *  -0.24670653  *
    16       H         -0.70307792  *   1.22281704  *   1.74995905  *
    17       H         -1.67780302  *   2.51357798  *   0.95718090  *
    18       H         -1.64351499  *   1.19765539  *  -1.28655708  *

                             CARTESIAN COORDINATES

   1    O       -2.752661506    -1.167913376    -0.351985188
   2    C       -1.588641151    -1.482605810    -0.410005225
   3    C       -0.509626811    -0.475870571    -0.485598861
   4    C        0.787299175    -0.806859555    -0.567667102
   5    C        1.844822962     0.241403496    -0.663686535
   6    C        1.458320696     1.536981767     0.083117468
   7    N        0.089583602     1.992002992    -0.209186445
   8    C       -0.947272518     1.714626874     0.811118078
   9    C       -0.922628119     0.942969317    -0.490964300
  10    H       -1.296772293    -2.541978279    -0.409398437
  11    H        1.133310012    -1.838994265    -0.590233184
  12    H        2.816645352    -0.127326859    -0.280792850
  13    H        2.017782660     0.476785406    -1.740102581
  14    H        1.629677340     1.407699715     1.172796908
  15    H        2.119882830     2.374604025    -0.246706527
  16    H       -0.703077920     1.222817035     1.749959046
  17    H       -1.677803018     2.513577977     0.957180903
  18    H       -1.643514987     1.197655395    -1.286557082


           Empirical Formula: C7 H9 N O  =    18 atoms



      MOLECULAR POINT GROUP   :   C1  


                  EIGENVALUES  
 -36.42637 -31.13995 -29.07538 -27.22836 -24.08080 -22.56388 -22.07873 -20.81878
 -17.77104 -17.40603 -16.74216 -16.38671 -15.16625 -14.74360 -14.48053 -14.25290
 -13.86294 -13.20616 -12.48849 -12.18103 -11.88406 -10.54373 -10.34303  -9.62676
  -0.54081   1.28318   2.37770   2.50613   3.14460   3.51959   3.70605   3.99481
   4.25411   4.58699   4.70076   4.83565   5.03183   5.22871   5.31571   5.42755
   5.59259   5.79222   5.89904   5.97509   6.03632


              NET ATOMIC CHARGES AND DIPOLE CONTRIBUTIONS

  ATOM NO.   TYPE          CHARGE      No. of ELECS.   s-Pop       p-Pop       
    1          O          -0.409681        6.4097     1.87945     4.53023
    2          C           0.332068        3.6679     1.13367     2.53426
    3          C          -0.200843        4.2008     1.08442     3.11642
    4          C          -0.069145        4.0691     1.09929     2.96986
    5          C          -0.314530        4.3145     1.06011     3.25442
    6          C          -0.117534        4.1175     1.07000     3.04753
    7          N          -0.360807        5.3608     1.75477     3.60604
    8          C          -0.216749        4.2167     1.07260     3.14415
    9          C          -0.035727        4.0357     1.05805     2.97768
   10          H           0.112605        0.8874     0.88739
   11          H           0.149077        0.8509     0.85092
   12          H           0.153786        0.8462     0.84621
   13          H           0.174388        0.8256     0.82561
   14          H           0.132985        0.8670     0.86701
   15          H           0.157991        0.8420     0.84201
   16          H           0.150612        0.8494     0.84939
   17          H           0.172919        0.8271     0.82708
   18          H           0.188583        0.8114     0.81142
 DIPOLE           X         Y         Z       TOTAL
 POINT-CHG.     3.631    -1.599     0.402     3.988
 HYBRID         0.160    -0.478     0.340     0.608
 SUM            3.792    -2.077     0.742     4.387


          ATOMIC ORBITAL ELECTRON POPULATIONS

     Atom    s        px        py        pz   
    1  O   1.87945   1.29542   1.88415   1.35066
    2  C   1.13367   0.85547   0.98528   0.69351
    3  C   1.08442   1.00750   1.02539   1.08353
    4  C   1.09929   0.99149   1.06339   0.91497
    5  C   1.06011   1.07600   1.02607   1.15235
    6  C   1.07000   0.92538   1.02629   1.09586
    7  N   1.75477   1.02807   1.33660   1.24136
    8  C   1.07260   1.05216   1.10908   0.98290
    9  C   1.05805   1.02700   0.89596   1.05471
   10  H   0.88739
   11  H   0.85092
   12  H   0.84621
   13  H   0.82561
   14  H   0.86701
   15  H   0.84201
   16  H   0.84939
   17  H   0.82708
   18  H   0.81142

 **********************
 *                    *
 * JOB ENDED NORMALLY *
 *                    *
 **********************



 TOTAL JOB TIME:             1.44 SECONDS

 == MOPAC DONE ==
