 *******************************************************************************
 **                                                                           **
 **                              MOPAC v23.2                                  **
 **                                                                           **
 *******************************************************************************
 **          Digital Object Identifier (DOI): 10.5281/zenodo.6511958          **
 **    Visit the DOI location for information on how to cite this program.    **
 *******************************************************************************

                              PM7 CALCULATION RESULTS

 *******************************************************************************
 *  CALCULATION DONE: (MAX THREADS = 40)             Fri Sep 19 21:29:01 2025  *
 *  PM7        - The PM7 Hamiltonian to be used
 *
 *
 *
 *                 CHARGE ON SYSTEM = +1
 *
 *
 *
 *  1SCF       - DO 1 SCF AND THEN STOP 
 *  T=         - A TIME OF 172800.0 SECONDS REQUESTED
 *  DUMP=N     - RESTART FILE WRITTEN EVERY 7200.0 SECONDS REQUESTED
 *  RELSCF     - DEFAULT SCF CRITERION MULTIPLIED BY 0.0001
 *              (DEFAULT SCF CRITERION = 0.00010)
 *  GRADIENTS  - ALL GRADIENTS TO BE PRINTED
 *  DISP       - PRINT DISPERSION AND HYDROGEN BOND ENERGIES
 *******************************************************************************
PM7 1SCF GRADIENTS DISP RELSCF=0.0001 CHARGE=1
 Title: ASE calculation

   ATOM   CHEMICAL          X               Y               Z
  NUMBER   SYMBOL      (ANGSTROMS)     (ANGSTROMS)     (ANGSTROMS)

     1       C         -2.20474517  *   0.06386928  *  -0.64700114  *
     2       C         -0.76802413  *   0.10337121  *  -0.36204499  *
     3       C         -0.06139258  *   1.29690571  *  -0.24533041  *
     4       C          1.31435207  *   1.27786722  *  -0.03328560  *
     5       C          1.98290239  *   0.04870835  *  -0.04255191  *
     6       O          0.30905508  *  -1.41643124  *   2.16666057  *
     7       C         -0.38906846  *  -1.74074891  *   1.25792399  *
     8       C         -0.05197862  *  -1.17421553  *  -0.17096428  *
     9       O          1.38615568  *  -1.10065541  *  -0.19247028  *
    10       H         -2.42965027  *   0.42592445  *  -1.67580558  *
    11       H         -2.79609884  *   0.73387955  *   0.01211569  *
    12       H         -2.67030162  *  -0.93304005  *  -0.57607397  *
    13       H         -0.58901839  *   2.25970583  *  -0.33075295  *
    14       H          1.87797555  *   2.21078208  *   0.10774553  *
    15       H          3.07534194  *  -0.10756114  *   0.02077869  *
    16       H         -1.25964286  *  -2.40096063  *   1.30423882  *
    17       H         -0.25366494  *  -1.94094724  *  -0.96582811  *



          CARTESIAN COORDINATES 

    NO.       ATOM           X           Y           Z

     1         C         -2.2047      0.0639     -0.6470
     2         C         -0.7680      0.1034     -0.3620
     3         C         -0.0614      1.2969     -0.2453
     4         C          1.3144      1.2779     -0.0333
     5         C          1.9829      0.0487     -0.0426
     6         O          0.3091     -1.4164      2.1667
     7         C         -0.3891     -1.7407      1.2579
     8         C         -0.0520     -1.1742     -0.1710
     9         O          1.3862     -1.1007     -0.1925
    10         H         -2.4297      0.4259     -1.6758
    11         H         -2.7961      0.7339      0.0121
    12         H         -2.6703     -0.9330     -0.5761
    13         H         -0.5890      2.2597     -0.3308
    14         H          1.8780      2.2108      0.1077
    15         H          3.0753     -0.1076      0.0208
    16         H         -1.2596     -2.4010      1.3042
    17         H         -0.2537     -1.9409     -0.9658

 General Reference for PM7:
 "Optimization of Parameters for Semiempirical Methods VI: More Modifications to the 
 NDDO Approximations and Re-optimization of Parameters", J. J. P. Stewart, J. Mol. Mod., 1:32, 19 (2013)
 https://link.springer.com/article/10.1007/s00894-012-1667-x

           Empirical Formula: C7 H8 O2  =    17 atoms



      MOLECULAR POINT GROUP   :   C1  


          UHF CALCULATION, NO. OF ALPHA ELECTRONS =   24
                           NO. OF BETA  ELECTRONS =   23
  SCF CRITERION =    0.1000E-07

 -------------------------------------------------------------------------------
 PM7 1SCF GRADIENTS DISP RELSCF=0.0001 CHARGE=1
 Title: ASE calculation



     1SCF WAS SPECIFIED, SO BFGS WAS NOT USED                 
     SCF FIELD WAS ACHIEVED                                   


                              PM7 CALCULATION
                                                       MOPAC v23.2 Linux
                                                       Fri Sep 19 21:29:01 2025




          FINAL HEAT OF FORMATION =        136.85320 KCAL/MOL =     572.59380 KJ/MOL

          TOTAL ENERGY            =     -35729.05581 KCAL/MOL = ELECTRONIC ENERGY + CORE-CORE REPULSION
          ENERGY OF ATOMS         =      35867.73354 KCAL/MOL
                              SUM =        138.67773 KCAL/MOL
          DISPERSION ENERGY       =         -1.82453 KCAL/MOL
                              SUM =        136.85320 KCAL/MOL = FINAL HEAT OF FORMATION



          TOTAL ENERGY            =      -1549.35850 EV
          ELECTRONIC ENERGY       =      -7139.86369 EV 
          CORE-CORE REPULSION     =       5590.50519 EV
          COSMO AREA              =        155.17 SQUARE ANGSTROMS
          COSMO VOLUME            =        154.17 CUBIC ANGSTROMS

          GRADIENT NORM           =          0.96407          =       0.23382 PER ATOM
          IONIZATION POTENTIAL    =         13.934019 EV
          ALPHA SOMO LUMO (EV)    =        -13.934 -5.961
          BETA  SOMO LUMO (EV)    =        -14.929 -7.177
          NO. OF ALPHA ELECTRONS  =         24
          NO. OF BETA  ELECTRONS  =         23
          MOLECULAR WEIGHT        =        124.1390         POINT GROUP:  C1  

          MOLECULAR DIMENSIONS (Angstroms)

            Atom       Atom       Distance
            H    15    H    11     5.93143
            H    16    H    14     5.15193
            O     6    H    10     3.39823


          SCF CALCULATIONS        =          1

          WALL-CLOCK TIME         =      0.586 SECONDS
          COMPUTATION TIME        =      0.830 SECONDS

          LARGEST ATOMIC GRADIENTS

          Atom     Label                     Cartesian Gradients           Cartesian Coordinates       |Gradient|
                                           X          Y          Z        X          Y          Z

             2       C                   0.098      0.358      0.105   -0.76802    0.10337   -0.36204      0.386
            11       H                  -0.102     -0.010     -0.353   -2.79610    0.73388    0.01212      0.368
            10       H                  -0.099      0.011      0.280   -2.42965    0.42592   -1.67581      0.297
             3       C                   0.266      0.095     -0.081   -0.06139    1.29691   -0.24533      0.294
             8       C                   0.144     -0.226      0.063   -0.05198   -1.17422   -0.17096      0.275
            13       H                  -0.013     -0.266      0.054   -0.58902    2.25971   -0.33075      0.271
             7       C                   0.221      0.137     -0.019   -0.38907   -1.74075    1.25792      0.261
            14       H                  -0.114     -0.183     -0.109    1.87798    2.21078    0.10775      0.241
             5       C                  -0.063     -0.140      0.164    1.98290    0.04871   -0.04255      0.224
            12       H                  -0.175      0.015     -0.100   -2.67030   -0.93304   -0.57607      0.202



       FINAL  POINT  AND  DERIVATIVES

   PARAMETER     ATOM    TYPE            VALUE        GRADIENT
      1          1  C    CARTESIAN X    -2.204745     -0.006893  KCAL/ANGSTROM
      2          1  C    CARTESIAN Y     0.063869     -0.010469  KCAL/ANGSTROM
      3          1  C    CARTESIAN Z    -0.647001      0.043540  KCAL/ANGSTROM
      4          2  C    CARTESIAN X    -0.768024      0.098308  KCAL/ANGSTROM
      5          2  C    CARTESIAN Y     0.103371      0.358191  KCAL/ANGSTROM
      6          2  C    CARTESIAN Z    -0.362045      0.104870  KCAL/ANGSTROM
      7          3  C    CARTESIAN X    -0.061393      0.265972  KCAL/ANGSTROM
      8          3  C    CARTESIAN Y     1.296906      0.094967  KCAL/ANGSTROM
      9          3  C    CARTESIAN Z    -0.245330     -0.080651  KCAL/ANGSTROM
     10          4  C    CARTESIAN X     1.314352      0.056726  KCAL/ANGSTROM
     11          4  C    CARTESIAN Y     1.277867      0.049257  KCAL/ANGSTROM
     12          4  C    CARTESIAN Z    -0.033286     -0.017696  KCAL/ANGSTROM
     13          5  C    CARTESIAN X     1.982902     -0.063290  KCAL/ANGSTROM
     14          5  C    CARTESIAN Y     0.048708     -0.139973  KCAL/ANGSTROM
     15          5  C    CARTESIAN Z    -0.042552      0.163546  KCAL/ANGSTROM
     16          6  O    CARTESIAN X     0.309055     -0.076315  KCAL/ANGSTROM
     17          6  O    CARTESIAN Y    -1.416431     -0.120698  KCAL/ANGSTROM
     18          6  O    CARTESIAN Z     2.166661     -0.039655  KCAL/ANGSTROM
     19          7  C    CARTESIAN X    -0.389068      0.220663  KCAL/ANGSTROM
     20          7  C    CARTESIAN Y    -1.740749      0.137484  KCAL/ANGSTROM
     21          7  C    CARTESIAN Z     1.257924     -0.019375  KCAL/ANGSTROM
     22          8  C    CARTESIAN X    -0.051979      0.143845  KCAL/ANGSTROM
     23          8  C    CARTESIAN Y    -1.174216     -0.226065  KCAL/ANGSTROM
     24          8  C    CARTESIAN Z    -0.170964      0.062875  KCAL/ANGSTROM
     25          9  O    CARTESIAN X     1.386156     -0.101655  KCAL/ANGSTROM
     26          9  O    CARTESIAN Y    -1.100655      0.142865  KCAL/ANGSTROM
     27          9  O    CARTESIAN Z    -0.192470      0.049166  KCAL/ANGSTROM
     28         10  H    CARTESIAN X    -2.429650     -0.098607  KCAL/ANGSTROM
     29         10  H    CARTESIAN Y     0.425924      0.010921  KCAL/ANGSTROM
     30         10  H    CARTESIAN Z    -1.675806      0.279828  KCAL/ANGSTROM
     31         11  H    CARTESIAN X    -2.796099     -0.102232  KCAL/ANGSTROM
     32         11  H    CARTESIAN Y     0.733880     -0.009553  KCAL/ANGSTROM
     33         11  H    CARTESIAN Z     0.012116     -0.353085  KCAL/ANGSTROM
     34         12  H    CARTESIAN X    -2.670302     -0.174637  KCAL/ANGSTROM
     35         12  H    CARTESIAN Y    -0.933040      0.015023  KCAL/ANGSTROM
     36         12  H    CARTESIAN Z    -0.576074     -0.100103  KCAL/ANGSTROM
     37         13  H    CARTESIAN X    -0.589018     -0.013378  KCAL/ANGSTROM
     38         13  H    CARTESIAN Y     2.259706     -0.265660  KCAL/ANGSTROM
     39         13  H    CARTESIAN Z    -0.330753      0.053966  KCAL/ANGSTROM
     40         14  H    CARTESIAN X     1.877976     -0.114053  KCAL/ANGSTROM
     41         14  H    CARTESIAN Y     2.210782     -0.182578  KCAL/ANGSTROM
     42         14  H    CARTESIAN Z     0.107746     -0.108805  KCAL/ANGSTROM
     43         15  H    CARTESIAN X     3.075342     -0.073190  KCAL/ANGSTROM
     44         15  H    CARTESIAN Y    -0.107561      0.115773  KCAL/ANGSTROM
     45         15  H    CARTESIAN Z     0.020779     -0.058690  KCAL/ANGSTROM
     46         16  H    CARTESIAN X    -1.259643      0.071433  KCAL/ANGSTROM
     47         16  H    CARTESIAN Y    -2.400961     -0.054826  KCAL/ANGSTROM
     48         16  H    CARTESIAN Z     1.304239     -0.022930  KCAL/ANGSTROM
     49         17  H    CARTESIAN X    -0.253665     -0.032699  KCAL/ANGSTROM
     50         17  H    CARTESIAN Y    -1.940947      0.085339  KCAL/ANGSTROM
     51         17  H    CARTESIAN Z    -0.965828      0.043194  KCAL/ANGSTROM




   ATOM   CHEMICAL          X               Y               Z
  NUMBER   SYMBOL      (ANGSTROMS)     (ANGSTROMS)     (ANGSTROMS)

     1       C         -2.20474517  *   0.06386928  *  -0.64700114  *
     2       C         -0.76802413  *   0.10337121  *  -0.36204499  *
     3       C         -0.06139258  *   1.29690571  *  -0.24533041  *
     4       C          1.31435207  *   1.27786722  *  -0.03328560  *
     5       C          1.98290239  *   0.04870835  *  -0.04255191  *
     6       O          0.30905508  *  -1.41643124  *   2.16666057  *
     7       C         -0.38906846  *  -1.74074891  *   1.25792399  *
     8       C         -0.05197862  *  -1.17421553  *  -0.17096428  *
     9       O          1.38615568  *  -1.10065541  *  -0.19247028  *
    10       H         -2.42965027  *   0.42592445  *  -1.67580558  *
    11       H         -2.79609884  *   0.73387955  *   0.01211569  *
    12       H         -2.67030162  *  -0.93304005  *  -0.57607397  *
    13       H         -0.58901839  *   2.25970583  *  -0.33075295  *
    14       H          1.87797555  *   2.21078208  *   0.10774553  *
    15       H          3.07534194  *  -0.10756114  *   0.02077869  *
    16       H         -1.25964286  *  -2.40096063  *   1.30423882  *
    17       H         -0.25366494  *  -1.94094724  *  -0.96582811  *

                             CARTESIAN COORDINATES

   1    C       -2.204745170     0.063869283    -0.647001143
   2    C       -0.768024132     0.103371206    -0.362044993
   3    C       -0.061392575     1.296905708    -0.245330411
   4    C        1.314352075     1.277867218    -0.033285595
   5    C        1.982902390     0.048708347    -0.042551905
   6    O        0.309055084    -1.416431243     2.166660574
   7    C       -0.389068459    -1.740748910     1.257923989
   8    C       -0.051978624    -1.174215529    -0.170964282
   9    O        1.386155680    -1.100655411    -0.192470276
  10    H       -2.429650275     0.425924446    -1.675805585
  11    H       -2.796098836     0.733879548     0.012115693
  12    H       -2.670301625    -0.933040051    -0.576073965
  13    H       -0.589018390     2.259705835    -0.330752946
  14    H        1.877975548     2.210782078     0.107745526
  15    H        3.075341941    -0.107561141     0.020778688
  16    H       -1.259642858    -2.400960629     1.304238824
  17    H       -0.253664937    -1.940947245    -0.965828110


           Empirical Formula: C7 H8 O2  =    17 atoms



      MOLECULAR POINT GROUP   :   C1  


          ALPHA EIGENVALUES  
 -38.25043 -36.35482 -34.69373 -32.81614 -30.31079 -29.18029 -26.58484 -26.28362
 -23.06286 -22.76691 -22.38261 -21.69081 -20.00710 -19.97041 -19.58020 -19.45252
 -18.77487 -18.69956 -18.30236 -17.86479 -17.15617 -16.82490 -15.35648 -13.93402
  -5.96147  -4.53552  -4.11966  -3.93249  -2.32828  -1.85860  -1.72052  -1.31748
  -0.86039  -0.62121  -0.50466  -0.10247   0.08713   0.15480   0.59544   0.80347
   0.87457   0.97476   0.99615   2.15887


           BETA EIGENVALUES 
 -37.76970 -36.21863 -34.47658 -32.68476 -30.21868 -29.06415 -26.43848 -26.20732
 -22.97454 -22.66429 -22.18526 -21.52659 -19.92806 -19.79852 -19.44984 -19.05720
 -18.62168 -18.57555 -18.09841 -17.78648 -17.07354 -16.13119 -14.92872  -7.17686
  -5.21274  -4.33998  -3.88358  -3.45460  -2.19512  -1.75131  -1.59622  -1.26176
  -0.71981  -0.55708  -0.41937  -0.05606   0.14379   0.20993   0.64315   0.81509
   0.93992   1.01033   1.01834   2.18078


              NET ATOMIC CHARGES AND DIPOLE CONTRIBUTIONS

  ATOM NO.   TYPE          CHARGE      No. of ELECS.   s-Pop       p-Pop       
    1          C          -0.485352        4.4854     1.04923     3.43612
    2          C           0.075013        3.9250     1.09848     2.82651
    3          C          -0.077094        4.0771     1.09869     2.97841
    4          C          -0.216193        4.2162     1.09796     3.11823
    5          C           0.251563        3.7484     1.16827     2.58016
    6          O          -0.291405        6.2914     1.87701     4.41440
    7          C           0.321622        3.6784     1.16773     2.51064
    8          C          -0.123500        4.1235     1.13720     2.98630
    9          O          -0.122600        6.1226     1.86054     4.26206
   10          H           0.215183        0.7848     0.78482
   11          H           0.209517        0.7905     0.79048
   12          H           0.187811        0.8122     0.81219
   13          H           0.209372        0.7906     0.79063
   14          H           0.224190        0.7758     0.77581
   15          H           0.226739        0.7733     0.77326
   16          H           0.174126        0.8259     0.82587
   17          H           0.221007        0.7790     0.77899
 DIPOLE           X         Y         Z       TOTAL
 POINT-CHG.    -0.950     1.189    -2.818     3.202
 HYBRID         0.369    -0.070    -0.085     0.385
 SUM           -0.581     1.119    -2.903     3.165


          ATOMIC ORBITAL ELECTRON POPULATIONS

     Atom    s        px        py        pz   
    1  C   1.04923   0.99693   1.22760   1.21159
    2  C   1.09848   0.99963   0.95588   0.87100
    3  C   1.09869   0.99933   1.07772   0.90136
    4  C   1.09796   1.02936   1.07053   1.01835
    5  C   1.16827   1.02357   0.86061   0.69599
    6  O   1.87701   1.46880   1.47929   1.46630
    7  C   1.16773   0.88608   0.80245   0.82211
    8  C   1.13720   0.77473   1.07178   1.13979
    9  O   1.86054   1.27565   1.34206   1.64435
   10  H   0.78482
   11  H   0.79048
   12  H   0.81219
   13  H   0.79063
   14  H   0.77581
   15  H   0.77326
   16  H   0.82587
   17  H   0.77899


                    (SZ)    =    0.500000
                    (S**2)  =    0.805400


          ATOMIC ORBITAL SPIN POPULATIONS

    Atom   Total    s     px     py     pz   
         Atomic
    1  C -0.0110 -0.003 -0.014 -0.002  0.008
    2  C  0.5068  0.013  0.029  0.017  0.448
    3  C -0.1378 -0.007 -0.015 -0.011 -0.105
    4  C  0.3078  0.007  0.016  0.009  0.275
    5  C  0.0711 -0.001 -0.002 -0.006  0.081
    6  O  0.0333  0.001  0.009  0.003  0.021
    7  C  0.0377  0.004  0.003  0.004  0.026
    8  C -0.0411 -0.007 -0.013 -0.018 -0.003
    9  O  0.1748  0.006  0.011  0.003  0.155
   10  H  0.0226  0.023
   11  H  0.0137  0.014
   12  H  0.0012  0.001
   13  H  0.0039  0.004
   14  H -0.0092 -0.009
   15  H -0.0021 -0.002
   16  H  0.0079  0.008
   17  H  0.0202  0.020

 **********************
 *                    *
 * JOB ENDED NORMALLY *
 *                    *
 **********************



 TOTAL JOB TIME:             1.02 SECONDS

 == MOPAC DONE ==
