 *******************************************************************************
 **                                                                           **
 **                              MOPAC v23.2                                  **
 **                                                                           **
 *******************************************************************************
 **          Digital Object Identifier (DOI): 10.5281/zenodo.6511958          **
 **    Visit the DOI location for information on how to cite this program.    **
 *******************************************************************************

                              PM7 CALCULATION RESULTS

 *******************************************************************************
 *  CALCULATION DONE: (MAX THREADS = 40)             Fri Sep 19 21:54:39 2025  *
 *  PM7        - The PM7 Hamiltonian to be used
 *
 *
 *
 *                 CHARGE ON SYSTEM = +1
 *
 *
 *
 *  EPS=37.5   - USE ANDREAS KLAMT'S COSMO IMPLICIT SOLVATION MODEL
 *  1SCF       - DO 1 SCF AND THEN STOP 
 *  T=         - A TIME OF 172800.0 SECONDS REQUESTED
 *  DUMP=N     - RESTART FILE WRITTEN EVERY 7200.0 SECONDS REQUESTED
 *  RELSCF     - DEFAULT SCF CRITERION MULTIPLIED BY 0.0001
 *              (DEFAULT SCF CRITERION = 0.00010)
 *  GRADIENTS  - ALL GRADIENTS TO BE PRINTED
 *  DISP       - PRINT DISPERSION AND HYDROGEN BOND ENERGIES
 *******************************************************************************
PM7 1SCF GRADIENTS EPS=37.5 DISP RELSCF=0.0001 CHARGE=1
 Title: ASE calculation

   ATOM   CHEMICAL          X               Y               Z
  NUMBER   SYMBOL      (ANGSTROMS)     (ANGSTROMS)     (ANGSTROMS)

     1       C         -2.21710976  *  -1.89856472  *   0.00855706  *
     2       C         -1.07242351  *  -1.46955196  *  -0.75452656  *
     3       C          2.40315078  *   1.83738092  *  -0.43447377  *
     4       O          2.69457526  *   2.91765062  *  -0.68690026  *
     5       C          2.05686281  *   0.57754515  *  -0.13313599  *
     6       C          2.65340031  *  -0.06526066  *   0.96893009  *
     7       N          3.12433895  *  -0.61584031  *   1.87141308  *
     8       C          1.08774393  *  -0.19961251  *  -0.94863837  *
     9       C         -0.03508348  *  -0.70422114  *  -0.17232133  *
    10       H         -3.12433895  *  -1.26540019  *  -0.20160778  *
    11       H         -2.10699001  *  -1.87662506  *   1.11099140  *
    12       H         -2.58423566  *  -2.91765062  *  -0.26853487  *
    13       H         -1.02776791  *  -1.74633036  *  -1.82168192  *
    14       H          0.75900129  *   0.35646473  *  -1.87141308  *
    15       H          1.63684726  *  -1.07802344  *  -1.43628676  *
    16       H         -0.05335422  *  -0.48328499  *   0.91115454  *



          CARTESIAN COORDINATES 

    NO.       ATOM           X           Y           Z

     1         C         -2.2171     -1.8986      0.0086
     2         C         -1.0724     -1.4696     -0.7545
     3         C          2.4032      1.8374     -0.4345
     4         O          2.6946      2.9177     -0.6869
     5         C          2.0569      0.5775     -0.1331
     6         C          2.6534     -0.0653      0.9689
     7         N          3.1243     -0.6158      1.8714
     8         C          1.0877     -0.1996     -0.9486
     9         C         -0.0351     -0.7042     -0.1723
    10         H         -3.1243     -1.2654     -0.2016
    11         H         -2.1070     -1.8766      1.1110
    12         H         -2.5842     -2.9177     -0.2685
    13         H         -1.0278     -1.7463     -1.8217
    14         H          0.7590      0.3565     -1.8714
    15         H          1.6368     -1.0780     -1.4363
    16         H         -0.0534     -0.4833      0.9112

 General Reference for PM7:
 "Optimization of Parameters for Semiempirical Methods VI: More Modifications to the 
 NDDO Approximations and Re-optimization of Parameters", J. J. P. Stewart, J. Mol. Mod., 1:32, 19 (2013)
 https://link.springer.com/article/10.1007/s00894-012-1667-x

           Empirical Formula: C7 H7 N O  =    16 atoms



      MOLECULAR POINT GROUP   :   C1  


          UHF CALCULATION, NO. OF ALPHA ELECTRONS =   23
                           NO. OF BETA  ELECTRONS =   22
  SCF CRITERION =    0.1000E-07

 -------------------------------------------------------------------------------
 PM7 1SCF GRADIENTS EPS=37.5 DISP RELSCF=0.0001 CHARGE=1
 Title: ASE calculation



     1SCF WAS SPECIFIED, SO BFGS WAS NOT USED                 
     SCF FIELD WAS ACHIEVED                                   


                              PM7 CALCULATION
                                                       MOPAC v23.2 Linux
                                                       Fri Sep 19 21:54:40 2025




          FINAL HEAT OF FORMATION =        160.91509 KCAL/MOL =     673.26874 KJ/MOL

          TOTAL ENERGY            =     -32931.88094 KCAL/MOL = ELECTRONIC ENERGY + CORE-CORE REPULSION + SOLVATION ENERGY
          ENERGY OF ATOMS         =      33094.39424 KCAL/MOL
                              SUM =        162.51330 KCAL/MOL
          DISPERSION ENERGY       =         -1.59821 KCAL/MOL
                              SUM =        160.91509 KCAL/MOL = FINAL HEAT OF FORMATION

          VAN DER WAALS AREA      =        174.17 SQUARE ANGSTROMS


          TOTAL ENERGY            =      -1428.06152 EV
          ELECTRONIC ENERGY       =      -1743.89951 EV 
          CORE-CORE REPULSION     =        315.83799 EV

          DIELECTRIC ENERGY       =         -3.03745 EV
          COSMO AREA              =        174.17 SQUARE ANGSTROMS
          COSMO VOLUME            =        164.24 CUBIC ANGSTROMS

          GRADIENT NORM           =         28.86840          =       7.21710 PER ATOM
          IONIZATION POTENTIAL    =         10.205098 EV
          ALPHA SOMO LUMO (EV)    =        -10.205 -1.509
          BETA  SOMO LUMO (EV)    =        -10.225 -3.421
          NO. OF ALPHA ELECTRONS  =         23
          NO. OF BETA  ELECTRONS  =         22
          MOLECULAR WEIGHT        =        121.1384         POINT GROUP:  C1  

          MOLECULAR DIMENSIONS (Angstroms)

            Atom       Atom       Distance
            H    12    O     4     7.87982
            N     7    H    10     4.79569
            H    15    H    11     3.16560


          SCF CALCULATIONS        =          2

          WALL-CLOCK TIME         =      1.656 SECONDS
          COMPUTATION TIME        =      0.639 SECONDS

          LARGEST ATOMIC GRADIENTS

          Atom     Label                     Cartesian Gradients           Cartesian Coordinates       |Gradient|
                                           X          Y          Z        X          Y          Z

             6       C                   8.488     -8.288     15.197    2.65340   -0.06526    0.96893     19.279
             5       C                  -8.975      2.364    -10.432    2.05686    0.57755   -0.13314     13.963
             7       N                  -5.720      5.443     -9.679    3.12434   -0.61584    1.87141     12.491
             8       C                  -1.915      4.677     -1.343    1.08774   -0.19961   -0.94864      5.229
             3       C                   3.971     -0.248      1.548    2.40315    1.83738   -0.43447      4.269
             1       C                   0.739      3.362     -2.506   -2.21711   -1.89856    0.00856      4.258
            15       H                   2.573     -0.951      1.664    1.63685   -1.07802   -1.43629      3.208
            12       H                  -1.370     -2.057      0.440   -2.58424   -2.91765   -0.26853      2.510
            16       H                   1.499      0.823      1.737   -0.05335   -0.48328    0.91115      2.438
             9       C                   0.675     -1.764     -1.453   -0.03508   -0.70422   -0.17232      2.383



       FINAL  POINT  AND  DERIVATIVES

   PARAMETER     ATOM    TYPE            VALUE        GRADIENT
      1          1  C    CARTESIAN X    -2.217110      0.738887  KCAL/ANGSTROM
      2          1  C    CARTESIAN Y    -1.898565      3.362370  KCAL/ANGSTROM
      3          1  C    CARTESIAN Z     0.008557     -2.505861  KCAL/ANGSTROM
      4          2  C    CARTESIAN X    -1.072424      2.166332  KCAL/ANGSTROM
      5          2  C    CARTESIAN Y    -1.469552     -0.640281  KCAL/ANGSTROM
      6          2  C    CARTESIAN Z    -0.754527      0.279798  KCAL/ANGSTROM
      7          3  C    CARTESIAN X     2.403151      3.970697  KCAL/ANGSTROM
      8          3  C    CARTESIAN Y     1.837381     -0.248134  KCAL/ANGSTROM
      9          3  C    CARTESIAN Z    -0.434474      1.548121  KCAL/ANGSTROM
     10          4  O    CARTESIAN X     2.694575     -0.327341  KCAL/ANGSTROM
     11          4  O    CARTESIAN Y     2.917651     -0.015767  KCAL/ANGSTROM
     12          4  O    CARTESIAN Z    -0.686900      0.580125  KCAL/ANGSTROM
     13          5  C    CARTESIAN X     2.056863     -8.975179  KCAL/ANGSTROM
     14          5  C    CARTESIAN Y     0.577545      2.363903  KCAL/ANGSTROM
     15          5  C    CARTESIAN Z    -0.133136    -10.431615  KCAL/ANGSTROM
     16          6  C    CARTESIAN X     2.653400      8.488227  KCAL/ANGSTROM
     17          6  C    CARTESIAN Y    -0.065261     -8.287816  KCAL/ANGSTROM
     18          6  C    CARTESIAN Z     0.968930     15.196878  KCAL/ANGSTROM
     19          7  N    CARTESIAN X     3.124339     -5.719873  KCAL/ANGSTROM
     20          7  N    CARTESIAN Y    -0.615840      5.443015  KCAL/ANGSTROM
     21          7  N    CARTESIAN Z     1.871413     -9.679224  KCAL/ANGSTROM
     22          8  C    CARTESIAN X     1.087744     -1.914840  KCAL/ANGSTROM
     23          8  C    CARTESIAN Y    -0.199613      4.677137  KCAL/ANGSTROM
     24          8  C    CARTESIAN Z    -0.948638     -1.343092  KCAL/ANGSTROM
     25          9  C    CARTESIAN X    -0.035083      0.675030  KCAL/ANGSTROM
     26          9  C    CARTESIAN Y    -0.704221     -1.763940  KCAL/ANGSTROM
     27          9  C    CARTESIAN Z    -0.172321     -1.453167  KCAL/ANGSTROM
     28         10  H    CARTESIAN X    -3.124339     -1.913303  KCAL/ANGSTROM
     29         10  H    CARTESIAN Y    -1.265400     -0.705705  KCAL/ANGSTROM
     30         10  H    CARTESIAN Z    -0.201608      0.984103  KCAL/ANGSTROM
     31         11  H    CARTESIAN X    -2.106990     -0.669298  KCAL/ANGSTROM
     32         11  H    CARTESIAN Y    -1.876625     -1.114492  KCAL/ANGSTROM
     33         11  H    CARTESIAN Z     1.110991      1.403172  KCAL/ANGSTROM
     34         12  H    CARTESIAN X    -2.584236     -1.370186  KCAL/ANGSTROM
     35         12  H    CARTESIAN Y    -2.917651     -2.056513  KCAL/ANGSTROM
     36         12  H    CARTESIAN Z    -0.268535      0.440423  KCAL/ANGSTROM
     37         13  H    CARTESIAN X    -1.027768     -0.650827  KCAL/ANGSTROM
     38         13  H    CARTESIAN Y    -1.746330     -0.417734  KCAL/ANGSTROM
     39         13  H    CARTESIAN Z    -1.821682      0.418760  KCAL/ANGSTROM
     40         14  H    CARTESIAN X     0.759001      1.429912  KCAL/ANGSTROM
     41         14  H    CARTESIAN Y     0.356465     -0.467317  KCAL/ANGSTROM
     42         14  H    CARTESIAN Z    -1.871413      1.160000  KCAL/ANGSTROM
     43         15  H    CARTESIAN X     1.636847      2.572713  KCAL/ANGSTROM
     44         15  H    CARTESIAN Y    -1.078023     -0.951351  KCAL/ANGSTROM
     45         15  H    CARTESIAN Z    -1.436287      1.664332  KCAL/ANGSTROM
     46         16  H    CARTESIAN X    -0.053354      1.499047  KCAL/ANGSTROM
     47         16  H    CARTESIAN Y    -0.483285      0.822619  KCAL/ANGSTROM
     48         16  H    CARTESIAN Z     0.911155      1.737244  KCAL/ANGSTROM




   ATOM   CHEMICAL          X               Y               Z
  NUMBER   SYMBOL      (ANGSTROMS)     (ANGSTROMS)     (ANGSTROMS)

     1       C         -2.21710976  *  -1.89856472  *   0.00855706  *
     2       C         -1.07242351  *  -1.46955196  *  -0.75452656  *
     3       C          2.40315078  *   1.83738092  *  -0.43447377  *
     4       O          2.69457526  *   2.91765062  *  -0.68690026  *
     5       C          2.05686281  *   0.57754515  *  -0.13313599  *
     6       C          2.65340031  *  -0.06526066  *   0.96893009  *
     7       N          3.12433895  *  -0.61584031  *   1.87141308  *
     8       C          1.08774393  *  -0.19961251  *  -0.94863837  *
     9       C         -0.03508348  *  -0.70422114  *  -0.17232133  *
    10       H         -3.12433895  *  -1.26540019  *  -0.20160778  *
    11       H         -2.10699001  *  -1.87662506  *   1.11099140  *
    12       H         -2.58423566  *  -2.91765062  *  -0.26853487  *
    13       H         -1.02776791  *  -1.74633036  *  -1.82168192  *
    14       H          0.75900129  *   0.35646473  *  -1.87141308  *
    15       H          1.63684726  *  -1.07802344  *  -1.43628676  *
    16       H         -0.05335422  *  -0.48328499  *   0.91115454  *

                             CARTESIAN COORDINATES

   1    C       -2.217109763    -1.898564717     0.008557062
   2    C       -1.072423513    -1.469551964    -0.754526561
   3    C        2.403150776     1.837380915    -0.434473775
   4    O        2.694575262     2.917650624    -0.686900263
   5    C        2.056862807     0.577545155    -0.133135995
   6    C        2.653400307    -0.065260658     0.968930094
   7    N        3.124338952    -0.615840309     1.871413079
   8    C        1.087743933    -0.199612511    -0.948638368
   9    C       -0.035083483    -0.704221142    -0.172321335
  10    H       -3.124338952    -1.265400193    -0.201607776
  11    H       -2.106990008    -1.876625064     1.110991398
  12    H       -2.584235663    -2.917650624    -0.268534872
  13    H       -1.027767913    -1.746330365    -1.821681923
  14    H        0.759001286     0.356464733    -1.871413079
  15    H        1.636847258    -1.078023442    -1.436286756
  16    H       -0.053354216    -0.483284993     0.911154543


           Empirical Formula: C7 H7 N O  =    16 atoms



      MOLECULAR POINT GROUP   :   C1  


          ALPHA EIGENVALUES  
 -35.73744 -34.71155 -30.83759 -29.18577 -26.58839 -23.17724 -22.15276 -20.74497
 -18.23100 -17.38525 -17.27778 -16.49039 -16.14099 -15.70296 -15.16456 -14.75539
 -14.49634 -14.21388 -13.95255 -13.65101 -13.35658 -11.22012 -10.20510  -1.50909
  -0.71700  -0.31592   0.53786   1.21746   1.84735   2.53238   2.62912   2.91520
   3.15691   3.48278   4.10848   4.22741   4.33585   4.54800   4.60719   4.95326
   5.17300   5.27842   5.95381


           BETA EIGENVALUES 
 -35.73802 -34.70778 -30.67179 -29.07245 -26.51168 -22.97917 -22.11825 -20.60660
 -18.18577 -17.32386 -17.21191 -16.43100 -16.09341 -15.30202 -14.87072 -14.60196
 -14.39106 -14.08398 -13.82900 -13.60883 -13.27691 -10.22483  -3.42102  -0.72162
  -0.31311  -0.10728   0.54089   1.22492   1.85232   2.62067   2.76295   2.94186
   3.25552   3.62924   4.16964   4.28900   4.39634   4.64848   4.69837   5.00044
   5.23244   5.27946   5.98407


              NET ATOMIC CHARGES AND DIPOLE CONTRIBUTIONS

  ATOM NO.   TYPE          CHARGE      No. of ELECS.   s-Pop       p-Pop       
    1          C          -0.520362        4.5204     1.05562     3.46474
    2          C           0.173811        3.8262     1.15491     2.67128
    3          C           0.607102        3.3929     1.14555     2.24735
    4          O          -0.135138        6.1351     1.86583     4.26931
    5          C          -0.413375        4.4134     0.98491     3.42847
    6          C           0.267231        3.7328     1.08684     2.64593
    7          N          -0.395514        5.3955     1.83165     3.56386
    8          C          -0.261515        4.2615     1.04520     3.21632
    9          C           0.078856        3.9211     1.15893     2.76221
   10          H           0.255421        0.7446     0.74458
   11          H           0.206827        0.7932     0.79317
   12          H           0.227533        0.7725     0.77247
   13          H           0.203106        0.7969     0.79689
   14          H           0.242939        0.7571     0.75706
   15          H           0.253793        0.7462     0.74621
   16          H           0.209288        0.7907     0.79071
 DIPOLE           X         Y         Z       TOTAL
 POINT-CHG.   -10.521    -3.020    -6.389    12.674
 HYBRID        -0.038     0.757    -0.435     0.874
 SUM          -10.560    -2.264    -6.824    12.775


          ATOMIC ORBITAL ELECTRON POPULATIONS

     Atom    s        px        py        pz   
    1  C   1.05562   1.08926   1.19915   1.17633
    2  C   1.15491   0.88582   0.70731   1.07816
    3  C   1.14555   0.71209   0.85231   0.68296
    4  O   1.86583   1.52129   1.26636   1.48165
    5  C   0.98491   1.28207   0.98877   1.15763
    6  C   1.08684   0.87650   0.88842   0.88101
    7  N   1.83165   1.18900   1.15660   1.21826
    8  C   1.04520   1.00804   1.13096   1.07731
    9  C   1.15893   0.88839   0.76676   1.10707
   10  H   0.74458
   11  H   0.79317
   12  H   0.77247
   13  H   0.79689
   14  H   0.75706
   15  H   0.74621
   16  H   0.79071


                    (SZ)    =    0.500000
                    (S**2)  =    0.751812


          ATOMIC ORBITAL SPIN POPULATIONS

    Atom   Total    s     px     py     pz   
         Atomic
    1  C  0.0122 -0.003 -0.006  0.022 -0.001
    2  C  0.3922  0.006  0.088  0.264  0.034
    3  C  0.0006  0.000  0.000 -0.000  0.001
    4  O  0.0012  0.000 -0.000 -0.000  0.001
    5  C  0.0010 -0.000  0.000 -0.000  0.001
    6  C  0.0008  0.000  0.000  0.000  0.000
    7  N -0.0004 -0.000 -0.000 -0.000  0.000
    8  C  0.0118 -0.004  0.005  0.020 -0.009
    9  C  0.4774  0.009  0.135  0.310  0.024
   10  H  0.0402  0.040
   11  H  0.0037  0.004
   12  H  0.0169  0.017
   13  H -0.0113 -0.011
   14  H  0.0275  0.028
   15  H  0.0398  0.040
   16  H -0.0136 -0.014

 **********************
 *                    *
 * JOB ENDED NORMALLY *
 *                    *
 **********************



 TOTAL JOB TIME:             2.15 SECONDS

 == MOPAC DONE ==
