 *******************************************************************************
 **                                                                           **
 **                              MOPAC v23.2                                  **
 **                                                                           **
 *******************************************************************************
 **          Digital Object Identifier (DOI): 10.5281/zenodo.6511958          **
 **    Visit the DOI location for information on how to cite this program.    **
 *******************************************************************************

                              PM7 CALCULATION RESULTS

 *******************************************************************************
 *  CALCULATION DONE: (MAX THREADS = 40)             Fri Sep 19 21:51:58 2025  *
 *  PM7        - The PM7 Hamiltonian to be used
 *  EPS=37.5   - USE ANDREAS KLAMT'S COSMO IMPLICIT SOLVATION MODEL
 *  1SCF       - DO 1 SCF AND THEN STOP 
 *  T=         - A TIME OF 172800.0 SECONDS REQUESTED
 *  DUMP=N     - RESTART FILE WRITTEN EVERY 7200.0 SECONDS REQUESTED
 *  RELSCF     - DEFAULT SCF CRITERION MULTIPLIED BY 0.0001
 *              (DEFAULT SCF CRITERION = 0.00010)
 *  GRADIENTS  - ALL GRADIENTS TO BE PRINTED
 *  DISP       - PRINT DISPERSION AND HYDROGEN BOND ENERGIES
 *******************************************************************************
PM7 1SCF GRADIENTS EPS=37.5 DISP RELSCF=0.0001
 Title: ASE calculation

   ATOM   CHEMICAL          X               Y               Z
  NUMBER   SYMBOL      (ANGSTROMS)     (ANGSTROMS)     (ANGSTROMS)

     1       C          0.34797437  *   1.86062385  *   0.08917499  *
     2       C          0.88373093  *   0.50729727  *  -0.16766965  *
     3       C          0.20689646  *  -0.61967363  *  -0.44220547  *
     4       C         -1.24641030  *  -0.77259340  *  -0.59816151  *
     5       C         -2.17434663  *  -0.70956197  *   0.60395881  *
     6       N         -1.86060559  *  -2.00092921  *  -0.03559194  *
     7       C          1.11710430  *  -1.80448586  *  -0.61479387  *
     8       C          2.54543683  *  -1.23931902  *  -0.41756157  *
     9       C          2.37129821  *   0.27232204  *  -0.12467510  *
    10       H          0.64249725  *   2.21892466  *   1.08752158  *
    11       H         -0.74939458  *   1.89214677  *   0.04368507  *
    12       H          0.72897385  *   2.58913407  *  -0.64182646  *
    13       H         -1.61131369  *  -0.38670145  *  -1.56348007  *
    14       H         -3.16000062  *  -0.25945635  *   0.51878958  *
    15       H         -1.75712265  *  -0.57705570  *   1.60597469  *
    16       H         -2.59974908  *  -2.41940041  *  -0.58701051  *
    17       H          0.87615753  *  -2.58913407  *   0.12715735  *
    18       H          0.99085070  *  -2.26951460  *  -1.60597469  *
    19       H          3.05878399  *  -1.74492655  *   0.41366391  *
    20       H          3.16000062  *  -1.40068228  *  -1.31514650  *
    21       H          2.79123542  *   0.54536086  *   0.85743858  *
    22       H          2.89339679  *   0.89295400  *  -0.87120824  *



          CARTESIAN COORDINATES 

    NO.       ATOM           X           Y           Z

     1         C          0.3480      1.8606      0.0892
     2         C          0.8837      0.5073     -0.1677
     3         C          0.2069     -0.6197     -0.4422
     4         C         -1.2464     -0.7726     -0.5982
     5         C         -2.1743     -0.7096      0.6040
     6         N         -1.8606     -2.0009     -0.0356
     7         C          1.1171     -1.8045     -0.6148
     8         C          2.5454     -1.2393     -0.4176
     9         C          2.3713      0.2723     -0.1247
    10         H          0.6425      2.2189      1.0875
    11         H         -0.7494      1.8921      0.0437
    12         H          0.7290      2.5891     -0.6418
    13         H         -1.6113     -0.3867     -1.5635
    14         H         -3.1600     -0.2595      0.5188
    15         H         -1.7571     -0.5771      1.6060
    16         H         -2.5997     -2.4194     -0.5870
    17         H          0.8762     -2.5891      0.1272
    18         H          0.9909     -2.2695     -1.6060
    19         H          3.0588     -1.7449      0.4137
    20         H          3.1600     -1.4007     -1.3151
    21         H          2.7912      0.5454      0.8574
    22         H          2.8934      0.8930     -0.8712

 General Reference for PM7:
 "Optimization of Parameters for Semiempirical Methods VI: More Modifications to the 
 NDDO Approximations and Re-optimization of Parameters", J. J. P. Stewart, J. Mol. Mod., 1:32, 19 (2013)
 https://link.springer.com/article/10.1007/s00894-012-1667-x

           Empirical Formula: C8 H13 N  =    22 atoms



      MOLECULAR POINT GROUP   :   C1  


      RHF CALCULATION, NO. OF DOUBLY OCCUPIED LEVELS = 25

  SCF CRITERION =    0.1000E-07

 -------------------------------------------------------------------------------
 PM7 1SCF GRADIENTS EPS=37.5 DISP RELSCF=0.0001
 Title: ASE calculation



     1SCF WAS SPECIFIED, SO BFGS WAS NOT USED                 
     SCF FIELD WAS ACHIEVED                                   


                              PM7 CALCULATION
                                                       MOPAC v23.2 Linux
                                                       Fri Sep 19 21:51:58 2025




          FINAL HEAT OF FORMATION =         23.67007 KCAL/MOL =      99.03557 KJ/MOL

          TOTAL ENERGY            =     -30982.86675 KCAL/MOL = ELECTRONIC ENERGY + CORE-CORE REPULSION + SOLVATION ENERGY
          ENERGY OF ATOMS         =      31008.88895 KCAL/MOL
                              SUM =         26.02219 KCAL/MOL
          DISPERSION ENERGY       =         -2.35212 KCAL/MOL
                              SUM =         23.67007 KCAL/MOL = FINAL HEAT OF FORMATION

          VAN DER WAALS AREA      =        174.11 SQUARE ANGSTROMS


          TOTAL ENERGY            =      -1343.54426 EV
          ELECTRONIC ENERGY       =      -2122.00180 EV 
          CORE-CORE REPULSION     =        778.45754 EV

          DIELECTRIC ENERGY       =         -0.34317 EV
          COSMO AREA              =        174.11 SQUARE ANGSTROMS
          COSMO VOLUME            =        174.82 CUBIC ANGSTROMS

          GRADIENT NORM           =          9.28857          =       1.98033 PER ATOM
          IONIZATION POTENTIAL    =          9.182274 EV
          HOMO LUMO ENERGIES (EV) =         -9.182  0.992
          NO. OF FILLED LEVELS    =         25
          MOLECULAR WEIGHT        =        123.1974         POINT GROUP:  C1  

          MOLECULAR DIMENSIONS (Angstroms)

            Atom       Atom       Distance
            H    20    H    14     6.67893
            H    16    H    10     5.61549
            H    19    H    12     3.24887


          SCF CALCULATIONS        =          2

          WALL-CLOCK TIME         =      0.680 SECONDS
          COMPUTATION TIME        =      0.820 SECONDS

          LARGEST ATOMIC GRADIENTS

          Atom     Label                     Cartesian Gradients           Cartesian Coordinates       |Gradient|
                                           X          Y          Z        X          Y          Z

            16       H                   3.313      0.511      2.947   -2.59975   -2.41940   -0.58701      4.463
             1       C                  -0.620      3.502      0.620    0.34797    1.86062    0.08917      3.610
             5       C                  -3.082      0.067     -0.528   -2.17435   -0.70956    0.60396      3.128
             4       C                  -1.839     -0.833     -2.099   -1.24641   -0.77259   -0.59816      2.912
             6       N                  -1.754      1.401     -1.691   -1.86061   -2.00093   -0.03559      2.810
             9       C                   1.502      1.249      0.226    2.37130    0.27232   -0.12468      1.967
            13       H                   1.311     -0.023      1.333   -1.61131   -0.38670   -1.56348      1.870
            14       H                   1.331     -0.578      0.399   -3.16000   -0.25946    0.51879      1.505
             2       C                  -0.177     -1.342     -0.511    0.88373    0.50730   -0.16767      1.447
            15       H                   0.455     -1.278     -0.127   -1.75712   -0.57706    1.60597      1.363



       FINAL  POINT  AND  DERIVATIVES

   PARAMETER     ATOM    TYPE            VALUE        GRADIENT
      1          1  C    CARTESIAN X     0.347974     -0.620258  KCAL/ANGSTROM
      2          1  C    CARTESIAN Y     1.860624      3.502377  KCAL/ANGSTROM
      3          1  C    CARTESIAN Z     0.089175      0.619683  KCAL/ANGSTROM
      4          2  C    CARTESIAN X     0.883731     -0.177192  KCAL/ANGSTROM
      5          2  C    CARTESIAN Y     0.507297     -1.342375  KCAL/ANGSTROM
      6          2  C    CARTESIAN Z    -0.167670     -0.510848  KCAL/ANGSTROM
      7          3  C    CARTESIAN X     0.206896      0.723653  KCAL/ANGSTROM
      8          3  C    CARTESIAN Y    -0.619674      0.479856  KCAL/ANGSTROM
      9          3  C    CARTESIAN Z    -0.442205     -0.475491  KCAL/ANGSTROM
     10          4  C    CARTESIAN X    -1.246410     -1.839085  KCAL/ANGSTROM
     11          4  C    CARTESIAN Y    -0.772593     -0.833161  KCAL/ANGSTROM
     12          4  C    CARTESIAN Z    -0.598162     -2.098611  KCAL/ANGSTROM
     13          5  C    CARTESIAN X    -2.174347     -3.082462  KCAL/ANGSTROM
     14          5  C    CARTESIAN Y    -0.709562      0.066752  KCAL/ANGSTROM
     15          5  C    CARTESIAN Z     0.603959     -0.527829  KCAL/ANGSTROM
     16          6  N    CARTESIAN X    -1.860606     -1.753965  KCAL/ANGSTROM
     17          6  N    CARTESIAN Y    -2.000929      1.400637  KCAL/ANGSTROM
     18          6  N    CARTESIAN Z    -0.035592     -1.691224  KCAL/ANGSTROM
     19          7  C    CARTESIAN X     1.117104      0.637286  KCAL/ANGSTROM
     20          7  C    CARTESIAN Y    -1.804486      0.050670  KCAL/ANGSTROM
     21          7  C    CARTESIAN Z    -0.614794     -1.136867  KCAL/ANGSTROM
     22          8  C    CARTESIAN X     2.545437      1.257471  KCAL/ANGSTROM
     23          8  C    CARTESIAN Y    -1.239319     -0.344713  KCAL/ANGSTROM
     24          8  C    CARTESIAN Z    -0.417562     -0.338810  KCAL/ANGSTROM
     25          9  C    CARTESIAN X     2.371298      1.502447  KCAL/ANGSTROM
     26          9  C    CARTESIAN Y     0.272322      1.249110  KCAL/ANGSTROM
     27          9  C    CARTESIAN Z    -0.124675      0.226450  KCAL/ANGSTROM
     28         10  H    CARTESIAN X     0.642497      0.161893  KCAL/ANGSTROM
     29         10  H    CARTESIAN Y     2.218925     -1.211541  KCAL/ANGSTROM
     30         10  H    CARTESIAN Z     1.087522     -0.330572  KCAL/ANGSTROM
     31         11  H    CARTESIAN X    -0.749395      0.688135  KCAL/ANGSTROM
     32         11  H    CARTESIAN Y     1.892147     -0.659325  KCAL/ANGSTROM
     33         11  H    CARTESIAN Z     0.043685     -0.010325  KCAL/ANGSTROM
     34         12  H    CARTESIAN X     0.728974      0.118666  KCAL/ANGSTROM
     35         12  H    CARTESIAN Y     2.589134     -0.928774  KCAL/ANGSTROM
     36         12  H    CARTESIAN Z    -0.641826      0.077580  KCAL/ANGSTROM
     37         13  H    CARTESIAN X    -1.611314      1.310688  KCAL/ANGSTROM
     38         13  H    CARTESIAN Y    -0.386701     -0.023396  KCAL/ANGSTROM
     39         13  H    CARTESIAN Z    -1.563480      1.333002  KCAL/ANGSTROM
     40         14  H    CARTESIAN X    -3.160001      1.331057  KCAL/ANGSTROM
     41         14  H    CARTESIAN Y    -0.259456     -0.577864  KCAL/ANGSTROM
     42         14  H    CARTESIAN Z     0.518790      0.398613  KCAL/ANGSTROM
     43         15  H    CARTESIAN X    -1.757123      0.455494  KCAL/ANGSTROM
     44         15  H    CARTESIAN Y    -0.577056     -1.278189  KCAL/ANGSTROM
     45         15  H    CARTESIAN Z     1.605975     -0.126560  KCAL/ANGSTROM
     46         16  H    CARTESIAN X    -2.599749      3.312925  KCAL/ANGSTROM
     47         16  H    CARTESIAN Y    -2.419400      0.511373  KCAL/ANGSTROM
     48         16  H    CARTESIAN Z    -0.587011      2.946602  KCAL/ANGSTROM
     49         17  H    CARTESIAN X     0.876158     -0.892217  KCAL/ANGSTROM
     50         17  H    CARTESIAN Y    -2.589134      0.043021  KCAL/ANGSTROM
     51         17  H    CARTESIAN Z     0.127157      0.952638  KCAL/ANGSTROM
     52         18  H    CARTESIAN X     0.990851     -0.255661  KCAL/ANGSTROM
     53         18  H    CARTESIAN Y    -2.269515      0.576023  KCAL/ANGSTROM
     54         18  H    CARTESIAN Z    -1.605975      0.522702  KCAL/ANGSTROM
     55         19  H    CARTESIAN X     3.058784     -0.516309  KCAL/ANGSTROM
     56         19  H    CARTESIAN Y    -1.744927      0.377161  KCAL/ANGSTROM
     57         19  H    CARTESIAN Z     0.413664      0.107869  KCAL/ANGSTROM
     58         20  H    CARTESIAN X     3.160001     -0.653494  KCAL/ANGSTROM
     59         20  H    CARTESIAN Y    -1.400682      0.151485  KCAL/ANGSTROM
     60         20  H    CARTESIAN Z    -1.315146      0.167499  KCAL/ANGSTROM
     61         21  H    CARTESIAN X     2.791235     -0.720711  KCAL/ANGSTROM
     62         21  H    CARTESIAN Y     0.545361     -0.543443  KCAL/ANGSTROM
     63         21  H    CARTESIAN Z     0.857439     -0.347365  KCAL/ANGSTROM
     64         22  H    CARTESIAN X     2.893397     -0.988367  KCAL/ANGSTROM
     65         22  H    CARTESIAN Y     0.892954     -0.665688  KCAL/ANGSTROM
     66         22  H    CARTESIAN Z    -0.871208      0.241858  KCAL/ANGSTROM




   ATOM   CHEMICAL          X               Y               Z
  NUMBER   SYMBOL      (ANGSTROMS)     (ANGSTROMS)     (ANGSTROMS)

     1       C          0.34797437  *   1.86062385  *   0.08917499  *
     2       C          0.88373093  *   0.50729727  *  -0.16766965  *
     3       C          0.20689646  *  -0.61967363  *  -0.44220547  *
     4       C         -1.24641030  *  -0.77259340  *  -0.59816151  *
     5       C         -2.17434663  *  -0.70956197  *   0.60395881  *
     6       N         -1.86060559  *  -2.00092921  *  -0.03559194  *
     7       C          1.11710430  *  -1.80448586  *  -0.61479387  *
     8       C          2.54543683  *  -1.23931902  *  -0.41756157  *
     9       C          2.37129821  *   0.27232204  *  -0.12467510  *
    10       H          0.64249725  *   2.21892466  *   1.08752158  *
    11       H         -0.74939458  *   1.89214677  *   0.04368507  *
    12       H          0.72897385  *   2.58913407  *  -0.64182646  *
    13       H         -1.61131369  *  -0.38670145  *  -1.56348007  *
    14       H         -3.16000062  *  -0.25945635  *   0.51878958  *
    15       H         -1.75712265  *  -0.57705570  *   1.60597469  *
    16       H         -2.59974908  *  -2.41940041  *  -0.58701051  *
    17       H          0.87615753  *  -2.58913407  *   0.12715735  *
    18       H          0.99085070  *  -2.26951460  *  -1.60597469  *
    19       H          3.05878399  *  -1.74492655  *   0.41366391  *
    20       H          3.16000062  *  -1.40068228  *  -1.31514650  *
    21       H          2.79123542  *   0.54536086  *   0.85743858  *
    22       H          2.89339679  *   0.89295400  *  -0.87120824  *

                             CARTESIAN COORDINATES

   1    C        0.347974368     1.860623851     0.089174993
   2    C        0.883730930     0.507297272    -0.167669647
   3    C        0.206896458    -0.619673629    -0.442205466
   4    C       -1.246410299    -0.772593402    -0.598161510
   5    C       -2.174346634    -0.709561974     0.603958805
   6    N       -1.860605589    -2.000929212    -0.035591944
   7    C        1.117104298    -1.804485863    -0.614793871
   8    C        2.545436834    -1.239319016    -0.417561570
   9    C        2.371298211     0.272322037    -0.124675100
  10    H        0.642497247     2.218924662     1.087521585
  11    H       -0.749394578     1.892146773     0.043685075
  12    H        0.728973848     2.589134071    -0.641826457
  13    H       -1.611313689    -0.386701448    -1.563480068
  14    H       -3.160000616    -0.259456349     0.518789583
  15    H       -1.757122650    -0.577055697     1.605974690
  16    H       -2.599749076    -2.419400410    -0.587010508
  17    H        0.876157525    -2.589134071     0.127157348
  18    H        0.990850703    -2.269514597    -1.605974690
  19    H        3.058783986    -1.744926551     0.413663910
  20    H        3.160000616    -1.400682281    -1.315146496
  21    H        2.791235423     0.545360864     0.857438578
  22    H        2.893396793     0.892954004    -0.871208242


           Empirical Formula: C8 H13 N  =    22 atoms



      MOLECULAR POINT GROUP   :   C1  


                  EIGENVALUES  
 -36.58660 -30.44331 -26.63863 -25.62092 -23.50777 -22.72653 -21.12621 -19.71765
 -18.11151 -17.17944 -16.37007 -16.16616 -14.63276 -14.28778 -13.85445 -13.56322
 -13.27221 -12.79551 -12.44588 -12.25147 -11.96960 -11.82829 -11.68170 -10.30353
  -9.18227   0.99229   2.31810   2.87947   3.45885   3.75225   4.04121   4.40385
   4.64547   4.91774   5.04813   5.32301   5.38714   5.69413   5.70250   5.73277
   5.80306   5.98025   6.04381   6.17259   6.42666   6.52327   6.60184   6.64685
   6.95001


              NET ATOMIC CHARGES AND DIPOLE CONTRIBUTIONS

  ATOM NO.   TYPE          CHARGE      No. of ELECS.   s-Pop       p-Pop       
    1          C          -0.463168        4.4632     1.04666     3.41650
    2          C           0.002183        3.9978     1.07642     2.92139
    3          C          -0.086969        4.0870     1.06946     3.01751
    4          C          -0.043493        4.0435     1.05676     2.98673
    5          C          -0.214654        4.2147     1.07230     3.14235
    6          N          -0.539067        5.5391     1.72519     3.81388
    7          C          -0.266641        4.2666     1.06002     3.20662
    8          C          -0.272434        4.2724     1.06475     3.20768
    9          C          -0.291388        4.2914     1.06287     3.22852
   10          H           0.167135        0.8329     0.83286
   11          H           0.161856        0.8381     0.83814
   12          H           0.166611        0.8334     0.83339
   13          H           0.169109        0.8309     0.83089
   14          H           0.163027        0.8370     0.83697
   15          H           0.172201        0.8278     0.82780
   16          H           0.281717        0.7183     0.71828
   17          H           0.154505        0.8455     0.84550
   18          H           0.150045        0.8500     0.84996
   19          H           0.141610        0.8584     0.85839
   20          H           0.142224        0.8578     0.85778
   21          H           0.152086        0.8479     0.84791
   22          H           0.153503        0.8465     0.84650
 DIPOLE           X         Y         Z       TOTAL
 POINT-CHG.    -0.074     2.162    -0.545     2.231
 HYBRID        -0.784     0.098    -0.496     0.933
 SUM           -0.858     2.260    -1.041     2.632


          ATOMIC ORBITAL ELECTRON POPULATIONS

     Atom    s        px        py        pz   
    1  C   1.04666   1.17217   1.06197   1.18236
    2  C   1.07642   0.97082   0.96207   0.98850
    3  C   1.06946   0.95377   0.99410   1.06965
    4  C   1.05676   0.98097   0.96029   1.04547
    5  C   1.07230   1.11375   0.96259   1.06601
    6  N   1.72519   1.35168   1.14885   1.31334
    7  C   1.06002   0.98577   1.05656   1.16429
    8  C   1.06475   1.03910   1.00874   1.15984
    9  C   1.06287   1.03084   1.03373   1.16395
   10  H   0.83286
   11  H   0.83814
   12  H   0.83339
   13  H   0.83089
   14  H   0.83697
   15  H   0.82780
   16  H   0.71828
   17  H   0.84550
   18  H   0.84996
   19  H   0.85839
   20  H   0.85778
   21  H   0.84791
   22  H   0.84650

 **********************
 *                    *
 * JOB ENDED NORMALLY *
 *                    *
 **********************



 TOTAL JOB TIME:             1.04 SECONDS

 == MOPAC DONE ==
