 *******************************************************************************
 **                                                                           **
 **                              MOPAC v23.2                                  **
 **                                                                           **
 *******************************************************************************
 **          Digital Object Identifier (DOI): 10.5281/zenodo.6511958          **
 **    Visit the DOI location for information on how to cite this program.    **
 *******************************************************************************

                              PM7 CALCULATION RESULTS

 *******************************************************************************
 *  CALCULATION DONE: (MAX THREADS = 40)             Fri Sep 19 21:33:02 2025  *
 *  PM7        - The PM7 Hamiltonian to be used
 *
 *
 *
 *                 CHARGE ON SYSTEM = +1
 *
 *
 *
 *  EPS=37.5   - USE ANDREAS KLAMT'S COSMO IMPLICIT SOLVATION MODEL
 *  1SCF       - DO 1 SCF AND THEN STOP 
 *  T=         - A TIME OF 172800.0 SECONDS REQUESTED
 *  DUMP=N     - RESTART FILE WRITTEN EVERY 7200.0 SECONDS REQUESTED
 *  RELSCF     - DEFAULT SCF CRITERION MULTIPLIED BY 0.0001
 *              (DEFAULT SCF CRITERION = 0.00010)
 *  GRADIENTS  - ALL GRADIENTS TO BE PRINTED
 *  DISP       - PRINT DISPERSION AND HYDROGEN BOND ENERGIES
 *******************************************************************************
PM7 1SCF GRADIENTS EPS=37.5 DISP RELSCF=0.0001 CHARGE=1
 Title: ASE calculation

   ATOM   CHEMICAL          X               Y               Z
  NUMBER   SYMBOL      (ANGSTROMS)     (ANGSTROMS)     (ANGSTROMS)

     1       C         -2.02822102  *   1.89037188  *  -0.19260825  *
     2       C         -2.15535162  *   0.38643426  *  -0.00935459  *
     3       C         -0.80659314  *  -0.36093393  *  -0.01301760  *
     4       C         -0.98191483  *  -1.82082616  *   0.41075650  *
     5       C          0.00872451  *  -0.19462729  *  -1.27766935  *
     6       C          1.50044489  *  -0.34627705  *  -0.99317604  *
     7       C          1.92715976  *   0.72554011  *   0.00440161  *
     8       C          1.09881242  *   0.63408562  *   1.26153415  *
     9       O         -0.20113206  *   0.18451037  *   1.19134284  *
    10       H         -3.01306890  *   2.37961356  *  -0.07392705  *
    11       H         -1.36406305  *   2.36190323  *   0.53709447  *
    12       H         -1.68066515  *   2.17137593  *  -1.19578919  *
    13       H         -2.72013948  *   0.16660983  *   0.92378102  *
    14       H         -2.78179825  *  -0.04381751  *  -0.82710326  *
    15       H         -1.43820291  *  -1.93857679  *   1.40637255  *
    16       H         -1.65573491  *  -2.34041660  *  -0.29667913  *
    17       H         -0.03438908  *  -2.37961356  *   0.40636727  *
    18       H         -0.31872315  *  -0.93619694  *  -2.04311197  *
    19       H         -0.18520611  *   0.79044556  *  -1.76044001  *
    20       H          1.74385551  *  -1.36294330  *  -0.62586179  *
    21       H          2.08255089  *  -0.24683054  *  -1.93756326  *
    22       H          3.01306890  *   0.63090168  *   0.24027112  *
    23       H          1.83857693  *   1.73504169  *  -0.45925331  *
    24       H          1.54591964  *  -0.06160282  *   2.04311197  *
    25       H          1.00555011  *   1.61316514  *   1.82179743  *



          CARTESIAN COORDINATES 

    NO.       ATOM           X           Y           Z

     1         C         -2.0282      1.8904     -0.1926
     2         C         -2.1554      0.3864     -0.0094
     3         C         -0.8066     -0.3609     -0.0130
     4         C         -0.9819     -1.8208      0.4108
     5         C          0.0087     -0.1946     -1.2777
     6         C          1.5004     -0.3463     -0.9932
     7         C          1.9272      0.7255      0.0044
     8         C          1.0988      0.6341      1.2615
     9         O         -0.2011      0.1845      1.1913
    10         H         -3.0131      2.3796     -0.0739
    11         H         -1.3641      2.3619      0.5371
    12         H         -1.6807      2.1714     -1.1958
    13         H         -2.7201      0.1666      0.9238
    14         H         -2.7818     -0.0438     -0.8271
    15         H         -1.4382     -1.9386      1.4064
    16         H         -1.6557     -2.3404     -0.2967
    17         H         -0.0344     -2.3796      0.4064
    18         H         -0.3187     -0.9362     -2.0431
    19         H         -0.1852      0.7904     -1.7604
    20         H          1.7439     -1.3629     -0.6259
    21         H          2.0826     -0.2468     -1.9376
    22         H          3.0131      0.6309      0.2403
    23         H          1.8386      1.7350     -0.4593
    24         H          1.5459     -0.0616      2.0431
    25         H          1.0056      1.6132      1.8218

 General Reference for PM7:
 "Optimization of Parameters for Semiempirical Methods VI: More Modifications to the 
 NDDO Approximations and Re-optimization of Parameters", J. J. P. Stewart, J. Mol. Mod., 1:32, 19 (2013)
 https://link.springer.com/article/10.1007/s00894-012-1667-x

           Empirical Formula: C8 H16 O  =    25 atoms



      MOLECULAR POINT GROUP   :   C1  


          UHF CALCULATION, NO. OF ALPHA ELECTRONS =   27
                           NO. OF BETA  ELECTRONS =   26
  SCF CRITERION =    0.1000E-07

 -------------------------------------------------------------------------------
 PM7 1SCF GRADIENTS EPS=37.5 DISP RELSCF=0.0001 CHARGE=1
 Title: ASE calculation



     1SCF WAS SPECIFIED, SO BFGS WAS NOT USED                 
     SCF FIELD WAS ACHIEVED                                   


                              PM7 CALCULATION
                                                       MOPAC v23.2 Linux
                                                       Fri Sep 19 21:33:03 2025




          FINAL HEAT OF FORMATION =         77.26067 KCAL/MOL =     323.25865 KJ/MOL

          TOTAL ENERGY            =     -34316.90185 KCAL/MOL = ELECTRONIC ENERGY + CORE-CORE REPULSION + SOLVATION ENERGY
          ENERGY OF ATOMS         =      34396.99794 KCAL/MOL
                              SUM =         80.09609 KCAL/MOL
          DISPERSION ENERGY       =         -2.83542 KCAL/MOL
                              SUM =         77.26067 KCAL/MOL = FINAL HEAT OF FORMATION

          VAN DER WAALS AREA      =        173.51 SQUARE ANGSTROMS


          TOTAL ENERGY            =      -1488.12171 EV
          ELECTRONIC ENERGY       =      -2690.69399 EV 
          CORE-CORE REPULSION     =       1202.57228 EV

          DIELECTRIC ENERGY       =         -2.12231 EV
          COSMO AREA              =        173.51 SQUARE ANGSTROMS
          COSMO VOLUME            =        184.01 CUBIC ANGSTROMS

          GRADIENT NORM           =         18.16112          =       3.63222 PER ATOM
          IONIZATION POTENTIAL    =         11.724357 EV
          ALPHA SOMO LUMO (EV)    =        -11.724 -0.462
          BETA  SOMO LUMO (EV)    =        -11.883 -3.390
          NO. OF ALPHA ELECTRONS  =         27
          NO. OF BETA  ELECTRONS  =         26
          MOLECULAR WEIGHT        =        128.2138         POINT GROUP:  C1  

          MOLECULAR DIMENSIONS (Angstroms)

            Atom       Atom       Distance
            H    22    H    10     6.28260
            H    16    H    25     4.97728
            H    15    H    21     4.24780


          SCF CALCULATIONS        =          2

          WALL-CLOCK TIME         =      0.953 SECONDS
          COMPUTATION TIME        =      0.487 SECONDS

          LARGEST ATOMIC GRADIENTS

          Atom     Label                     Cartesian Gradients           Cartesian Coordinates       |Gradient|
                                           X          Y          Z        X          Y          Z

             8       C                   6.580      2.702     10.044    1.09881    0.63409    1.26153     12.308
             9       O                  -7.604     -3.375     -2.507   -0.20113    0.18451    1.19134      8.688
             1       C                   3.905     -2.401      0.976   -2.02822    1.89037   -0.19261      4.686
             4       C                   1.574      0.845      3.088   -0.98191   -1.82083    0.41076      3.567
            24       H                   0.096     -0.199     -3.238    1.54592   -0.06160    2.04311      3.245
             3       C                   0.551      0.293     -3.040   -0.80659   -0.36093   -0.01302      3.103
            25       H                  -0.118      0.442     -2.555    1.00555    1.61317    1.82180      2.595
             2       C                   0.028      0.628      2.393   -2.15535    0.38643   -0.00935      2.474
             6       C                  -1.033     -0.181      2.060    1.50044   -0.34628   -0.99318      2.312
            10       H                  -1.513      1.197     -0.236   -3.01307    2.37961   -0.07393      1.944



       FINAL  POINT  AND  DERIVATIVES

   PARAMETER     ATOM    TYPE            VALUE        GRADIENT
      1          1  C    CARTESIAN X    -2.028221      3.904577  KCAL/ANGSTROM
      2          1  C    CARTESIAN Y     1.890372     -2.401053  KCAL/ANGSTROM
      3          1  C    CARTESIAN Z    -0.192608      0.975656  KCAL/ANGSTROM
      4          2  C    CARTESIAN X    -2.155352      0.027600  KCAL/ANGSTROM
      5          2  C    CARTESIAN Y     0.386434      0.627953  KCAL/ANGSTROM
      6          2  C    CARTESIAN Z    -0.009355      2.393046  KCAL/ANGSTROM
      7          3  C    CARTESIAN X    -0.806593      0.550791  KCAL/ANGSTROM
      8          3  C    CARTESIAN Y    -0.360934      0.293449  KCAL/ANGSTROM
      9          3  C    CARTESIAN Z    -0.013018     -3.040086  KCAL/ANGSTROM
     10          4  C    CARTESIAN X    -0.981915      1.573752  KCAL/ANGSTROM
     11          4  C    CARTESIAN Y    -1.820826      0.845142  KCAL/ANGSTROM
     12          4  C    CARTESIAN Z     0.410756      3.087865  KCAL/ANGSTROM
     13          5  C    CARTESIAN X     0.008725      0.408102  KCAL/ANGSTROM
     14          5  C    CARTESIAN Y    -0.194627      0.188270  KCAL/ANGSTROM
     15          5  C    CARTESIAN Z    -1.277669      1.351145  KCAL/ANGSTROM
     16          6  C    CARTESIAN X     1.500445     -1.033123  KCAL/ANGSTROM
     17          6  C    CARTESIAN Y    -0.346277     -0.181237  KCAL/ANGSTROM
     18          6  C    CARTESIAN Z    -0.993176      2.060418  KCAL/ANGSTROM
     19          7  C    CARTESIAN X     1.927160      0.136831  KCAL/ANGSTROM
     20          7  C    CARTESIAN Y     0.725540      0.555566  KCAL/ANGSTROM
     21          7  C    CARTESIAN Z     0.004402      0.228557  KCAL/ANGSTROM
     22          8  C    CARTESIAN X     1.098812      6.579845  KCAL/ANGSTROM
     23          8  C    CARTESIAN Y     0.634086      2.701655  KCAL/ANGSTROM
     24          8  C    CARTESIAN Z     1.261534     10.044243  KCAL/ANGSTROM
     25          9  O    CARTESIAN X    -0.201132     -7.603531  KCAL/ANGSTROM
     26          9  O    CARTESIAN Y     0.184510     -3.374645  KCAL/ANGSTROM
     27          9  O    CARTESIAN Z     1.191343     -2.507445  KCAL/ANGSTROM
     28         10  H    CARTESIAN X    -3.013069     -1.513477  KCAL/ANGSTROM
     29         10  H    CARTESIAN Y     2.379614      1.197346  KCAL/ANGSTROM
     30         10  H    CARTESIAN Z    -0.073927     -0.236126  KCAL/ANGSTROM
     31         11  H    CARTESIAN X    -1.364063     -1.446871  KCAL/ANGSTROM
     32         11  H    CARTESIAN Y     2.361903      0.726142  KCAL/ANGSTROM
     33         11  H    CARTESIAN Z     0.537094     -0.690407  KCAL/ANGSTROM
     34         12  H    CARTESIAN X    -1.680665     -1.560169  KCAL/ANGSTROM
     35         12  H    CARTESIAN Y     2.171376      1.106261  KCAL/ANGSTROM
     36         12  H    CARTESIAN Z    -1.195789     -0.286625  KCAL/ANGSTROM
     37         13  H    CARTESIAN X    -2.720139     -1.031447  KCAL/ANGSTROM
     38         13  H    CARTESIAN Y     0.166610      0.540832  KCAL/ANGSTROM
     39         13  H    CARTESIAN Z     0.923781     -0.259016  KCAL/ANGSTROM
     40         14  H    CARTESIAN X    -2.781798     -0.573007  KCAL/ANGSTROM
     41         14  H    CARTESIAN Y    -0.043818      0.231555  KCAL/ANGSTROM
     42         14  H    CARTESIAN Z    -0.827103     -0.626737  KCAL/ANGSTROM
     43         15  H    CARTESIAN X    -1.438203     -1.093307  KCAL/ANGSTROM
     44         15  H    CARTESIAN Y    -1.938577     -1.128769  KCAL/ANGSTROM
     45         15  H    CARTESIAN Z     1.406373      0.409535  KCAL/ANGSTROM
     46         16  H    CARTESIAN X    -1.655735     -0.588736  KCAL/ANGSTROM
     47         16  H    CARTESIAN Y    -2.340417     -0.774316  KCAL/ANGSTROM
     48         16  H    CARTESIAN Z    -0.296679     -0.638152  KCAL/ANGSTROM
     49         17  H    CARTESIAN X    -0.034389      0.154221  KCAL/ANGSTROM
     50         17  H    CARTESIAN Y    -2.379614     -1.154282  KCAL/ANGSTROM
     51         17  H    CARTESIAN Z     0.406367     -0.584547  KCAL/ANGSTROM
     52         18  H    CARTESIAN X    -0.318723      0.120818  KCAL/ANGSTROM
     53         18  H    CARTESIAN Y    -0.936197     -0.276608  KCAL/ANGSTROM
     54         18  H    CARTESIAN Z    -2.043112     -1.132418  KCAL/ANGSTROM
     55         19  H    CARTESIAN X    -0.185206      0.003788  KCAL/ANGSTROM
     56         19  H    CARTESIAN Y     0.790446      0.523894  KCAL/ANGSTROM
     57         19  H    CARTESIAN Z    -1.760440     -0.771550  KCAL/ANGSTROM
     58         20  H    CARTESIAN X     1.743856      0.520128  KCAL/ANGSTROM
     59         20  H    CARTESIAN Y    -1.362943     -0.134180  KCAL/ANGSTROM
     60         20  H    CARTESIAN Z    -0.625862     -0.863726  KCAL/ANGSTROM
     61         21  H    CARTESIAN X     2.082551      0.974497  KCAL/ANGSTROM
     62         21  H    CARTESIAN Y    -0.246831     -0.202356  KCAL/ANGSTROM
     63         21  H    CARTESIAN Z    -1.937563     -1.216373  KCAL/ANGSTROM
     64         22  H    CARTESIAN X     3.013069      1.034280  KCAL/ANGSTROM
     65         22  H    CARTESIAN Y     0.630902      0.000239  KCAL/ANGSTROM
     66         22  H    CARTESIAN Z     0.240271     -1.013398  KCAL/ANGSTROM
     67         23  H    CARTESIAN X     1.838577      0.476590  KCAL/ANGSTROM
     68         23  H    CARTESIAN Y     1.735042     -0.153714  KCAL/ANGSTROM
     69         23  H    CARTESIAN Z    -0.459253     -0.891159  KCAL/ANGSTROM
     70         24  H    CARTESIAN X     1.545920      0.096023  KCAL/ANGSTROM
     71         24  H    CARTESIAN Y    -0.061603     -0.198792  KCAL/ANGSTROM
     72         24  H    CARTESIAN Z     2.043112     -3.237908  KCAL/ANGSTROM
     73         25  H    CARTESIAN X     1.005550     -0.118171  KCAL/ANGSTROM
     74         25  H    CARTESIAN Y     1.613165      0.441643  KCAL/ANGSTROM
     75         25  H    CARTESIAN Z     1.821797     -2.554797  KCAL/ANGSTROM




   ATOM   CHEMICAL          X               Y               Z
  NUMBER   SYMBOL      (ANGSTROMS)     (ANGSTROMS)     (ANGSTROMS)

     1       C         -2.02822102  *   1.89037188  *  -0.19260825  *
     2       C         -2.15535162  *   0.38643426  *  -0.00935459  *
     3       C         -0.80659314  *  -0.36093393  *  -0.01301760  *
     4       C         -0.98191483  *  -1.82082616  *   0.41075650  *
     5       C          0.00872451  *  -0.19462729  *  -1.27766935  *
     6       C          1.50044489  *  -0.34627705  *  -0.99317604  *
     7       C          1.92715976  *   0.72554011  *   0.00440161  *
     8       C          1.09881242  *   0.63408562  *   1.26153415  *
     9       O         -0.20113206  *   0.18451037  *   1.19134284  *
    10       H         -3.01306890  *   2.37961356  *  -0.07392705  *
    11       H         -1.36406305  *   2.36190323  *   0.53709447  *
    12       H         -1.68066515  *   2.17137593  *  -1.19578919  *
    13       H         -2.72013948  *   0.16660983  *   0.92378102  *
    14       H         -2.78179825  *  -0.04381751  *  -0.82710326  *
    15       H         -1.43820291  *  -1.93857679  *   1.40637255  *
    16       H         -1.65573491  *  -2.34041660  *  -0.29667913  *
    17       H         -0.03438908  *  -2.37961356  *   0.40636727  *
    18       H         -0.31872315  *  -0.93619694  *  -2.04311197  *
    19       H         -0.18520611  *   0.79044556  *  -1.76044001  *
    20       H          1.74385551  *  -1.36294330  *  -0.62586179  *
    21       H          2.08255089  *  -0.24683054  *  -1.93756326  *
    22       H          3.01306890  *   0.63090168  *   0.24027112  *
    23       H          1.83857693  *   1.73504169  *  -0.45925331  *
    24       H          1.54591964  *  -0.06160282  *   2.04311197  *
    25       H          1.00555011  *   1.61316514  *   1.82179743  *

                             CARTESIAN COORDINATES

   1    C       -2.028221021     1.890371880    -0.192608246
   2    C       -2.155351622     0.386434260    -0.009354586
   3    C       -0.806593140    -0.360933931    -0.013017597
   4    C       -0.981914827    -1.820826165     0.410756495
   5    C        0.008724507    -0.194627295    -1.277669353
   6    C        1.500444885    -0.346277051    -0.993176040
   7    C        1.927159759     0.725540107     0.004401613
   8    C        1.098812424     0.634085621     1.261534155
   9    O       -0.201132055     0.184510370     1.191342843
  10    H       -3.013068897     2.379613564    -0.073927051
  11    H       -1.364063053     2.361903232     0.537094466
  12    H       -1.680665147     2.171375930    -1.195789186
  13    H       -2.720139479     0.166609825     0.923781017
  14    H       -2.781798252    -0.043817507    -0.827103259
  15    H       -1.438202913    -1.938576791     1.406372548
  16    H       -1.655734905    -2.340416597    -0.296679134
  17    H       -0.034389076    -2.379613564     0.406367267
  18    H       -0.318723149    -0.936196944    -2.043111972
  19    H       -0.185206110     0.790445559    -1.760440010
  20    H        1.743855513    -1.362943303    -0.625861789
  21    H        2.082550890    -0.246830537    -1.937563264
  22    H        3.013068897     0.630901683     0.240271119
  23    H        1.838576930     1.735041687    -0.459253308
  24    H        1.545919639    -0.061602815     2.043111972
  25    H        1.005550114     1.613165137     1.821797430


           Empirical Formula: C8 H16 O  =    25 atoms



      MOLECULAR POINT GROUP   :   C1  


          ALPHA EIGENVALUES  
 -34.78758 -30.39800 -29.21597 -26.86281 -25.41275 -23.70837 -22.76272 -21.23349
 -19.45818 -18.06592 -18.05027 -17.24405 -16.27621 -16.04354 -15.36870 -15.08893
 -14.88740 -14.15180 -13.95804 -13.58283 -13.16758 -13.03921 -12.75668 -12.45642
 -12.33922 -11.95846 -11.72436  -0.46227   1.99903   2.67492   2.84640   3.09610
   3.19363   3.42003   3.75867   3.86451   4.03879   4.54493   4.90334   4.92942
   5.05872   5.12182   5.13293   5.33544   5.40056   5.56079   5.84408   5.88693
   5.98729   6.09226   6.31539   6.66675


           BETA EIGENVALUES 
 -32.34044 -29.77872 -28.94793 -26.79329 -25.20475 -23.50213 -22.67866 -21.14946
 -19.14172 -17.77891 -17.24480 -16.97562 -16.02374 -15.68286 -15.26199 -15.02431
 -14.59910 -13.88448 -13.83895 -13.51823 -13.09174 -12.65488 -12.30996 -12.25173
 -12.18044 -11.88337  -3.39013   0.09407   2.24195   2.72761   2.88776   3.10153
   3.32274   3.45873   3.85686   3.91071   4.12884   4.68417   4.91157   4.93689
   5.07223   5.13447   5.13899   5.33794   5.40366   5.56314   5.84855   5.88984
   5.98964   6.09269   6.31866   6.66748


              NET ATOMIC CHARGES AND DIPOLE CONTRIBUTIONS

  ATOM NO.   TYPE          CHARGE      No. of ELECS.   s-Pop       p-Pop       
    1          C          -0.453993        4.4540     1.05110     3.40289
    2          C          -0.302054        4.3021     1.06825     3.23380
    3          C           0.178926        3.8211     1.12117     2.69990
    4          C          -0.495425        4.4954     1.06619     3.42924
    5          C          -0.341093        4.3411     1.06526     3.27583
    6          C          -0.270087        4.2701     1.05575     3.21434
    7          C          -0.311230        4.3112     1.06057     3.25066
    8          C          -0.164700        4.1647     1.12010     3.04460
    9          O           0.134760        5.8652     1.89412     3.97112
   10          H           0.171930        0.8281     0.82807
   11          H           0.152903        0.8471     0.84710
   12          H           0.160392        0.8396     0.83961
   13          H           0.179288        0.8207     0.82071
   14          H           0.190491        0.8095     0.80951
   15          H           0.187393        0.8126     0.81261
   16          H           0.202871        0.7971     0.79713
   17          H           0.182941        0.8171     0.81706
   18          H           0.188743        0.8113     0.81126
   19          H           0.181195        0.8188     0.81881
   20          H           0.161945        0.8381     0.83806
   21          H           0.172309        0.8277     0.82769
   22          H           0.190078        0.8099     0.80992
   23          H           0.182365        0.8176     0.81763
   24          H           0.267352        0.7326     0.73265
   25          H           0.252699        0.7473     0.74730
 DIPOLE           X         Y         Z       TOTAL
 POINT-CHG.     1.855    -0.068     2.275     2.936
 HYBRID        -0.091     0.016     0.229     0.247
 SUM            1.764    -0.052     2.504     3.064


          ATOMIC ORBITAL ELECTRON POPULATIONS

     Atom    s        px        py        pz   
    1  C   1.05110   1.20218   1.01229   1.18842
    2  C   1.06825   1.00610   1.02016   1.20753
    3  C   1.12117   0.91900   0.93271   0.84820
    4  C   1.06619   1.21783   1.00326   1.20814
    5  C   1.06526   1.01707   1.21435   1.04441
    6  C   1.05575   1.00445   1.09421   1.11568
    7  C   1.06057   1.12237   1.12890   0.99939
    8  C   1.12010   0.84545   1.11311   1.08604
    9  O   1.89412   1.26951   1.27605   1.42556
   10  H   0.82807
   11  H   0.84710
   12  H   0.83961
   13  H   0.82071
   14  H   0.80951
   15  H   0.81261
   16  H   0.79713
   17  H   0.81706
   18  H   0.81126
   19  H   0.81881
   20  H   0.83806
   21  H   0.82769
   22  H   0.80992
   23  H   0.81763
   24  H   0.73265
   25  H   0.74730


                    (SZ)    =    0.500000
                    (S**2)  =    0.757927


          ATOMIC ORBITAL SPIN POPULATIONS

    Atom   Total    s     px     py     pz   
         Atomic
    1  C -0.0014 -0.000 -0.000 -0.001 -0.000
    2  C  0.0327  0.004  0.022  0.005  0.001
    3  C -0.0482 -0.005 -0.017 -0.004 -0.022
    4  C  0.0456  0.006  0.002  0.037  0.000
    5  C  0.0012  0.000  0.000  0.000  0.000
    6  C -0.0009 -0.000 -0.001  0.000 -0.000
    7  C  0.0012 -0.000 -0.001  0.002  0.000
    8  C  0.0227 -0.008 -0.020  0.060 -0.009
    9  O  0.7969  0.019  0.106  0.599  0.073
   10  H  0.0006  0.001
   11  H  0.0001  0.000
   12  H  0.0001  0.000
   13  H -0.0011 -0.001
   14  H  0.0000  0.000
   15  H -0.0013 -0.001
   16  H  0.0009  0.001
   17  H -0.0014 -0.001
   18  H -0.0014 -0.001
   19  H  0.0006  0.001
   20  H  0.0003  0.000
   21  H -0.0001 -0.000
   22  H  0.0004  0.000
   23  H  0.0061  0.006
   24  H  0.0837  0.084
   25  H  0.0624  0.062

 **********************
 *                    *
 * JOB ENDED NORMALLY *
 *                    *
 **********************



 TOTAL JOB TIME:             1.52 SECONDS

 == MOPAC DONE ==
