 *******************************************************************************
 **                                                                           **
 **                              MOPAC v23.2                                  **
 **                                                                           **
 *******************************************************************************
 **          Digital Object Identifier (DOI): 10.5281/zenodo.6511958          **
 **    Visit the DOI location for information on how to cite this program.    **
 *******************************************************************************

                              PM7 CALCULATION RESULTS

 *******************************************************************************
 *  CALCULATION DONE: (MAX THREADS = 40)             Fri Sep 19 21:37:45 2025  *
 *  PM7        - The PM7 Hamiltonian to be used
 *  EPS=37.5   - USE ANDREAS KLAMT'S COSMO IMPLICIT SOLVATION MODEL
 *  1SCF       - DO 1 SCF AND THEN STOP 
 *  T=         - A TIME OF 172800.0 SECONDS REQUESTED
 *  DUMP=N     - RESTART FILE WRITTEN EVERY 7200.0 SECONDS REQUESTED
 *  RELSCF     - DEFAULT SCF CRITERION MULTIPLIED BY 0.0001
 *              (DEFAULT SCF CRITERION = 0.00010)
 *  GRADIENTS  - ALL GRADIENTS TO BE PRINTED
 *  DISP       - PRINT DISPERSION AND HYDROGEN BOND ENERGIES
 *******************************************************************************
PM7 1SCF GRADIENTS EPS=37.5 DISP RELSCF=0.0001
 Title: ASE calculation

   ATOM   CHEMICAL          X               Y               Z
  NUMBER   SYMBOL      (ANGSTROMS)     (ANGSTROMS)     (ANGSTROMS)

     1       C         -2.06627437  *  -1.95089305  *  -0.38139538  *
     2       C         -1.41100717  *  -0.79854516  *   0.37732187  *
     3       C         -0.03190570  *  -0.50117583  *  -0.17152407  *
     4       C          0.96626296  *  -1.62710181  *  -0.02509748  *
     5       C          2.42413827  *  -1.19897179  *  -0.15710326  *
     6       O         -0.02610101  *   0.16145796  *  -1.43973392  *
     7       C          0.41417151  *   0.93293434  *  -0.31787516  *
     8       C         -0.44690872  *   2.01436757  *   0.06875026  *
     9       N         -1.12878018  *   2.89282415  *   0.38485924  *
    10       H         -1.52374363  *  -2.89282415  *  -0.25090093  *
    11       H         -2.11054571  *  -1.74193052  *  -1.45927631  *
    12       H         -3.09472393  *  -2.11560880  *  -0.03773071  *
    13       H         -2.06468865  *   0.09742313  *   0.30716684  *
    14       H         -1.34573777  *  -1.03069402  *   1.45927631  *
    15       H          0.73519984  *  -2.39180635  *  -0.80132319  *
    16       H          0.81615963  *  -2.13639331  *   0.94964472  *
    17       H          2.72293906  *  -0.51533097  *   0.64509297  *
    18       H          3.09472393  *  -2.06604129  *  -0.10639352  *
    19       H          2.61482067  *  -0.70443460  *  -1.11847142  *
    20       H          1.48484039  *   1.19421385  *  -0.33699854  *



          CARTESIAN COORDINATES 

    NO.       ATOM           X           Y           Z

     1         C         -2.0663     -1.9509     -0.3814
     2         C         -1.4110     -0.7985      0.3773
     3         C         -0.0319     -0.5012     -0.1715
     4         C          0.9663     -1.6271     -0.0251
     5         C          2.4241     -1.1990     -0.1571
     6         O         -0.0261      0.1615     -1.4397
     7         C          0.4142      0.9329     -0.3179
     8         C         -0.4469      2.0144      0.0688
     9         N         -1.1288      2.8928      0.3849
    10         H         -1.5237     -2.8928     -0.2509
    11         H         -2.1105     -1.7419     -1.4593
    12         H         -3.0947     -2.1156     -0.0377
    13         H         -2.0647      0.0974      0.3072
    14         H         -1.3457     -1.0307      1.4593
    15         H          0.7352     -2.3918     -0.8013
    16         H          0.8162     -2.1364      0.9496
    17         H          2.7229     -0.5153      0.6451
    18         H          3.0947     -2.0660     -0.1064
    19         H          2.6148     -0.7044     -1.1185
    20         H          1.4848      1.1942     -0.3370

 General Reference for PM7:
 "Optimization of Parameters for Semiempirical Methods VI: More Modifications to the 
 NDDO Approximations and Re-optimization of Parameters", J. J. P. Stewart, J. Mol. Mod., 1:32, 19 (2013)
 https://link.springer.com/article/10.1007/s00894-012-1667-x

           Empirical Formula: C7 H11 N O  =    20 atoms



      MOLECULAR POINT GROUP   :   C1  


      RHF CALCULATION, NO. OF DOUBLY OCCUPIED LEVELS = 25

  SCF CRITERION =    0.1000E-07

 -------------------------------------------------------------------------------
 PM7 1SCF GRADIENTS EPS=37.5 DISP RELSCF=0.0001
 Title: ASE calculation



     1SCF WAS SPECIFIED, SO BFGS WAS NOT USED                 
     SCF FIELD WAS ACHIEVED                                   


                              PM7 CALCULATION
                                                       MOPAC v23.2 Linux
                                                       Fri Sep 19 21:37:46 2025




          FINAL HEAT OF FORMATION =        -10.93076 KCAL/MOL =     -45.73428 KJ/MOL

          TOTAL ENERGY            =     -34332.78500 KCAL/MOL = ELECTRONIC ENERGY + CORE-CORE REPULSION + SOLVATION ENERGY
          ENERGY OF ATOMS         =      34323.93363 KCAL/MOL
                              SUM =         -8.85137 KCAL/MOL
          DISPERSION ENERGY       =         -2.07939 KCAL/MOL
                              SUM =        -10.93076 KCAL/MOL = FINAL HEAT OF FORMATION

          VAN DER WAALS AREA      =        172.64 SQUARE ANGSTROMS


          TOTAL ENERGY            =      -1488.81047 EV
          ELECTRONIC ENERGY       =      -2211.48066 EV 
          CORE-CORE REPULSION     =        722.67019 EV

          DIELECTRIC ENERGY       =         -0.38300 EV
          COSMO AREA              =        172.64 SQUARE ANGSTROMS
          COSMO VOLUME            =        172.42 CUBIC ANGSTROMS

          GRADIENT NORM           =         13.04056          =       2.91596 PER ATOM
          IONIZATION POTENTIAL    =         11.097872 EV
          HOMO LUMO ENERGIES (EV) =        -11.098  0.204
          NO. OF FILLED LEVELS    =         25
          MOLECULAR WEIGHT        =        125.1700         POINT GROUP:  C1  

          MOLECULAR DIMENSIONS (Angstroms)

            Atom       Atom       Distance
            H    18    N     9     6.53220
            H    12    H    20     5.63872
            H    14    H    11     2.95262


          SCF CALCULATIONS        =          2

          WALL-CLOCK TIME         =      1.477 SECONDS
          COMPUTATION TIME        =      0.565 SECONDS

          LARGEST ATOMIC GRADIENTS

          Atom     Label                     Cartesian Gradients           Cartesian Coordinates       |Gradient|
                                           X          Y          Z        X          Y          Z

             3       C                  -0.075      4.860     -4.893   -0.03191   -0.50118   -0.17152      6.897
             9       N                   2.583     -4.233     -1.523   -1.12878    2.89282    0.38486      5.188
             8       C                  -1.923      3.945      2.027   -0.44691    2.01437    0.06875      4.834
             6       O                   1.309     -2.536      3.626   -0.02610    0.16146   -1.43973      4.615
             2       C                   0.340     -1.488      3.053   -1.41101   -0.79855    0.37732      3.413
            20       H                  -3.122     -0.822     -0.402    1.48484    1.19421   -0.33700      3.253
             4       C                  -0.436     -2.711      1.580    0.96626   -1.62710   -0.02510      3.168
             1       C                  -0.291     -1.790      0.822   -2.06627   -1.95089   -0.38140      1.991
             5       C                   1.413     -0.055      0.991    2.42414   -1.19897   -0.15710      1.726
             7       C                   1.073      0.719     -0.631    0.41417    0.93293   -0.31788      1.437



       FINAL  POINT  AND  DERIVATIVES

   PARAMETER     ATOM    TYPE            VALUE        GRADIENT
      1          1  C    CARTESIAN X    -2.066274     -0.291334  KCAL/ANGSTROM
      2          1  C    CARTESIAN Y    -1.950893     -1.790304  KCAL/ANGSTROM
      3          1  C    CARTESIAN Z    -0.381395      0.821954  KCAL/ANGSTROM
      4          2  C    CARTESIAN X    -1.411007      0.340142  KCAL/ANGSTROM
      5          2  C    CARTESIAN Y    -0.798545     -1.487996  KCAL/ANGSTROM
      6          2  C    CARTESIAN Z     0.377322      3.052861  KCAL/ANGSTROM
      7          3  C    CARTESIAN X    -0.031906     -0.075045  KCAL/ANGSTROM
      8          3  C    CARTESIAN Y    -0.501176      4.860141  KCAL/ANGSTROM
      9          3  C    CARTESIAN Z    -0.171524     -4.893311  KCAL/ANGSTROM
     10          4  C    CARTESIAN X     0.966263     -0.436117  KCAL/ANGSTROM
     11          4  C    CARTESIAN Y    -1.627102     -2.710648  KCAL/ANGSTROM
     12          4  C    CARTESIAN Z    -0.025097      1.580018  KCAL/ANGSTROM
     13          5  C    CARTESIAN X     2.424138      1.412896  KCAL/ANGSTROM
     14          5  C    CARTESIAN Y    -1.198972     -0.055341  KCAL/ANGSTROM
     15          5  C    CARTESIAN Z    -0.157103      0.990670  KCAL/ANGSTROM
     16          6  O    CARTESIAN X    -0.026101      1.308890  KCAL/ANGSTROM
     17          6  O    CARTESIAN Y     0.161458     -2.536476  KCAL/ANGSTROM
     18          6  O    CARTESIAN Z    -1.439734      3.626137  KCAL/ANGSTROM
     19          7  C    CARTESIAN X     0.414172      1.072500  KCAL/ANGSTROM
     20          7  C    CARTESIAN Y     0.932934      0.718753  KCAL/ANGSTROM
     21          7  C    CARTESIAN Z    -0.317875     -0.631463  KCAL/ANGSTROM
     22          8  C    CARTESIAN X    -0.446909     -1.923474  KCAL/ANGSTROM
     23          8  C    CARTESIAN Y     2.014368      3.945236  KCAL/ANGSTROM
     24          8  C    CARTESIAN Z     0.068750      2.026653  KCAL/ANGSTROM
     25          9  N    CARTESIAN X    -1.128780      2.582988  KCAL/ANGSTROM
     26          9  N    CARTESIAN Y     2.892824     -4.233009  KCAL/ANGSTROM
     27          9  N    CARTESIAN Z     0.384859     -1.523203  KCAL/ANGSTROM
     28         10  H    CARTESIAN X    -1.523744     -0.361397  KCAL/ANGSTROM
     29         10  H    CARTESIAN Y    -2.892824      0.973895  KCAL/ANGSTROM
     30         10  H    CARTESIAN Z    -0.250901     -0.269938  KCAL/ANGSTROM
     31         11  H    CARTESIAN X    -2.110546      0.045564  KCAL/ANGSTROM
     32         11  H    CARTESIAN Y    -1.741931      0.669681  KCAL/ANGSTROM
     33         11  H    CARTESIAN Z    -1.459276     -0.331243  KCAL/ANGSTROM
     34         12  H    CARTESIAN X    -3.094724      0.458711  KCAL/ANGSTROM
     35         12  H    CARTESIAN Y    -2.115609      0.371028  KCAL/ANGSTROM
     36         12  H    CARTESIAN Z    -0.037731     -0.190127  KCAL/ANGSTROM
     37         13  H    CARTESIAN X    -2.064689      0.415620  KCAL/ANGSTROM
     38         13  H    CARTESIAN Y     0.097423      0.365094  KCAL/ANGSTROM
     39         13  H    CARTESIAN Z     0.307167     -0.841882  KCAL/ANGSTROM
     40         14  H    CARTESIAN X    -1.345738     -0.408082  KCAL/ANGSTROM
     41         14  H    CARTESIAN Y    -1.030694      0.217690  KCAL/ANGSTROM
     42         14  H    CARTESIAN Z     1.459276     -1.133683  KCAL/ANGSTROM
     43         15  H    CARTESIAN X     0.735200      0.108635  KCAL/ANGSTROM
     44         15  H    CARTESIAN Y    -2.391806      1.320618  KCAL/ANGSTROM
     45         15  H    CARTESIAN Z    -0.801323     -0.297511  KCAL/ANGSTROM
     46         16  H    CARTESIAN X     0.816160      0.516359  KCAL/ANGSTROM
     47         16  H    CARTESIAN Y    -2.136393      0.616825  KCAL/ANGSTROM
     48         16  H    CARTESIAN Z     0.949645     -0.752684  KCAL/ANGSTROM
     49         17  H    CARTESIAN X     2.722939     -0.782850  KCAL/ANGSTROM
     50         17  H    CARTESIAN Y    -0.515331     -0.650856  KCAL/ANGSTROM
     51         17  H    CARTESIAN Z     0.645093     -0.595448  KCAL/ANGSTROM
     52         18  H    CARTESIAN X     3.094724     -0.256329  KCAL/ANGSTROM
     53         18  H    CARTESIAN Y    -2.066041      0.314823  KCAL/ANGSTROM
     54         18  H    CARTESIAN Z    -0.106394     -0.145433  KCAL/ANGSTROM
     55         19  H    CARTESIAN X     2.614821     -0.605987  KCAL/ANGSTROM
     56         19  H    CARTESIAN Y    -0.704435     -0.086745  KCAL/ANGSTROM
     57         19  H    CARTESIAN Z    -1.118471     -0.090631  KCAL/ANGSTROM
     58         20  H    CARTESIAN X     1.484840     -3.121688  KCAL/ANGSTROM
     59         20  H    CARTESIAN Y     1.194214     -0.822411  KCAL/ANGSTROM
     60         20  H    CARTESIAN Z    -0.336999     -0.401740  KCAL/ANGSTROM




   ATOM   CHEMICAL          X               Y               Z
  NUMBER   SYMBOL      (ANGSTROMS)     (ANGSTROMS)     (ANGSTROMS)

     1       C         -2.06627437  *  -1.95089305  *  -0.38139538  *
     2       C         -1.41100717  *  -0.79854516  *   0.37732187  *
     3       C         -0.03190570  *  -0.50117583  *  -0.17152407  *
     4       C          0.96626296  *  -1.62710181  *  -0.02509748  *
     5       C          2.42413827  *  -1.19897179  *  -0.15710326  *
     6       O         -0.02610101  *   0.16145796  *  -1.43973392  *
     7       C          0.41417151  *   0.93293434  *  -0.31787516  *
     8       C         -0.44690872  *   2.01436757  *   0.06875026  *
     9       N         -1.12878018  *   2.89282415  *   0.38485924  *
    10       H         -1.52374363  *  -2.89282415  *  -0.25090093  *
    11       H         -2.11054571  *  -1.74193052  *  -1.45927631  *
    12       H         -3.09472393  *  -2.11560880  *  -0.03773071  *
    13       H         -2.06468865  *   0.09742313  *   0.30716684  *
    14       H         -1.34573777  *  -1.03069402  *   1.45927631  *
    15       H          0.73519984  *  -2.39180635  *  -0.80132319  *
    16       H          0.81615963  *  -2.13639331  *   0.94964472  *
    17       H          2.72293906  *  -0.51533097  *   0.64509297  *
    18       H          3.09472393  *  -2.06604129  *  -0.10639352  *
    19       H          2.61482067  *  -0.70443460  *  -1.11847142  *
    20       H          1.48484039  *   1.19421385  *  -0.33699854  *

                             CARTESIAN COORDINATES

   1    C       -2.066274372    -1.950893048    -0.381395375
   2    C       -1.411007165    -0.798545165     0.377321866
   3    C       -0.031905698    -0.501175829    -0.171524067
   4    C        0.966262963    -1.627101812    -0.025097476
   5    C        2.424138270    -1.198971788    -0.157103264
   6    O       -0.026101007     0.161457959    -1.439733922
   7    C        0.414171511     0.932934336    -0.317875159
   8    C       -0.446908721     2.014367573     0.068750260
   9    N       -1.128780181     2.892824153     0.384859241
  10    H       -1.523743625    -2.892824153    -0.250900926
  11    H       -2.110545713    -1.741930524    -1.459276308
  12    H       -3.094723926    -2.115608800    -0.037730709
  13    H       -2.064688654     0.097423134     0.307166842
  14    H       -1.345737772    -1.030694023     1.459276308
  15    H        0.735199844    -2.391806349    -0.801323187
  16    H        0.816159631    -2.136393313     0.949644719
  17    H        2.722939055    -0.515330966     0.645092970
  18    H        3.094723926    -2.066041288    -0.106393522
  19    H        2.614820668    -0.704434604    -1.118471423
  20    H        1.484840389     1.194213850    -0.336998538


           Empirical Formula: C7 H11 N O  =    20 atoms



      MOLECULAR POINT GROUP   :   C1  


                  EIGENVALUES  
 -35.71910 -32.78961 -28.47229 -27.09939 -25.41234 -23.33547 -21.45337 -20.04791
 -18.34767 -16.97300 -16.19281 -15.68478 -15.38807 -14.94902 -14.46798 -14.08076
 -13.79878 -13.56030 -13.33155 -12.89920 -12.56127 -12.15925 -11.93253 -11.39364
 -11.09787   0.20426   0.57046   1.84672   2.07415   2.59519   3.18695   3.49839
   3.60572   4.14402   4.31925   4.88998   5.22038   5.27408   5.31767   5.71719
   5.74164   5.85946   5.89266   6.16769   6.31132   6.91338   6.93617


              NET ATOMIC CHARGES AND DIPOLE CONTRIBUTIONS

  ATOM NO.   TYPE          CHARGE      No. of ELECS.   s-Pop       p-Pop       
    1          C          -0.435815        4.4358     1.05126     3.38455
    2          C          -0.306178        4.3062     1.06066     3.24552
    3          C           0.230826        3.7692     1.08969     2.67949
    4          C          -0.294760        4.2948     1.05880     3.23596
    5          C          -0.444947        4.4449     1.05185     3.39310
    6          O          -0.378202        6.3782     1.92050     4.45770
    7          C          -0.041478        4.0415     1.07169     2.96979
    8          C           0.187198        3.8128     1.12052     2.69228
    9          N          -0.338808        5.3388     1.82982     3.50899
   10          H           0.153678        0.8463     0.84632
   11          H           0.155442        0.8446     0.84456
   12          H           0.156602        0.8434     0.84340
   13          H           0.162589        0.8374     0.83741
   14          H           0.171206        0.8288     0.82879
   15          H           0.172782        0.8272     0.82722
   16          H           0.168719        0.8313     0.83128
   17          H           0.154883        0.8451     0.84512
   18          H           0.154864        0.8451     0.84514
   19          H           0.156159        0.8438     0.84384
   20          H           0.215240        0.7848     0.78476
 DIPOLE           X         Y         Z       TOTAL
 POINT-CHG.     2.564    -4.536     1.994     5.579
 HYBRID         0.037    -0.036    -0.773     0.775
 SUM            2.601    -4.572     1.221     5.400


          ATOMIC ORBITAL ELECTRON POPULATIONS

     Atom    s        px        py        pz   
    1  C   1.05126   1.15241   1.08662   1.14553
    2  C   1.06066   1.01227   1.10970   1.12355
    3  C   1.08969   0.98013   0.88654   0.81282
    4  C   1.05880   0.99067   1.05711   1.18817
    5  C   1.05185   1.03068   1.17818   1.18424
    6  O   1.92050   1.88022   1.40130   1.17618
    7  C   1.07169   1.06490   0.93451   0.97038
    8  C   1.12052   0.89435   0.90709   0.89084
    9  N   1.82982   1.17021   1.19971   1.13906
   10  H   0.84632
   11  H   0.84456
   12  H   0.84340
   13  H   0.83741
   14  H   0.82879
   15  H   0.82722
   16  H   0.83128
   17  H   0.84512
   18  H   0.84514
   19  H   0.84384
   20  H   0.78476

 **********************
 *                    *
 * JOB ENDED NORMALLY *
 *                    *
 **********************



 TOTAL JOB TIME:             1.94 SECONDS

 == MOPAC DONE ==
