 *******************************************************************************
 **                                                                           **
 **                              MOPAC v23.2                                  **
 **                                                                           **
 *******************************************************************************
 **          Digital Object Identifier (DOI): 10.5281/zenodo.6511958          **
 **    Visit the DOI location for information on how to cite this program.    **
 *******************************************************************************

                              PM7 CALCULATION RESULTS

 *******************************************************************************
 *  CALCULATION DONE: (MAX THREADS = 40)             Fri Sep 19 21:31:56 2025  *
 *  PM7        - The PM7 Hamiltonian to be used
 *
 *
 *
 *                 CHARGE ON SYSTEM = +1
 *
 *
 *
 *  1SCF       - DO 1 SCF AND THEN STOP 
 *  T=         - A TIME OF 172800.0 SECONDS REQUESTED
 *  DUMP=N     - RESTART FILE WRITTEN EVERY 7200.0 SECONDS REQUESTED
 *  RELSCF     - DEFAULT SCF CRITERION MULTIPLIED BY 0.0001
 *              (DEFAULT SCF CRITERION = 0.00010)
 *  GRADIENTS  - ALL GRADIENTS TO BE PRINTED
 *  DISP       - PRINT DISPERSION AND HYDROGEN BOND ENERGIES
 *******************************************************************************
PM7 1SCF GRADIENTS DISP RELSCF=0.0001 CHARGE=1
 Title: ASE calculation

   ATOM   CHEMICAL          X               Y               Z
  NUMBER   SYMBOL      (ANGSTROMS)     (ANGSTROMS)     (ANGSTROMS)

     1       C         -0.62530751  *   1.77885464  *   0.54695268  *
     2       C         -0.55782481  *   0.28819301  *   0.75060931  *
     3       C         -1.69982678  *  -0.50778641  *   0.02709591  *
     4       C         -0.70461403  *  -1.21718754  *  -0.88422413  *
     5       N          0.37931982  *  -1.88109727  *  -0.21234311  *
     6       C          0.53381169  *  -0.41095107  *  -0.11346910  *
     7       C          1.74323548  *   0.16871395  *  -0.55342052  *
     8       O          2.08233333  *   1.34447260  *  -0.41404632  *
     9       H         -0.67483029  *   2.07766417  *  -0.50805863  *
    10       H          0.21441722  *   2.31025780  *   1.01853925  *
    11       H         -1.53359763  *   2.20019851  *   1.02241383  *
    12       H         -0.46441079  *   0.03450284  *   1.82845319  *
    13       H         -2.42504848  *   0.13266614  *  -0.50196286  *
    14       H         -2.29778586  *  -1.15985421  *   0.68392006  *
    15       H         -0.82609113  *  -1.34449473  *  -1.95893473  *
    16       H          0.22435476  *  -2.38240226  *   0.66354262  *
    17       H          2.51073753  *  -0.49818078  *  -1.07937050  *



          CARTESIAN COORDINATES 

    NO.       ATOM           X           Y           Z

     1         C         -0.6253      1.7789      0.5470
     2         C         -0.5578      0.2882      0.7506
     3         C         -1.6998     -0.5078      0.0271
     4         C         -0.7046     -1.2172     -0.8842
     5         N          0.3793     -1.8811     -0.2123
     6         C          0.5338     -0.4110     -0.1135
     7         C          1.7432      0.1687     -0.5534
     8         O          2.0823      1.3445     -0.4140
     9         H         -0.6748      2.0777     -0.5081
    10         H          0.2144      2.3103      1.0185
    11         H         -1.5336      2.2002      1.0224
    12         H         -0.4644      0.0345      1.8285
    13         H         -2.4250      0.1327     -0.5020
    14         H         -2.2978     -1.1599      0.6839
    15         H         -0.8261     -1.3445     -1.9589
    16         H          0.2244     -2.3824      0.6635
    17         H          2.5107     -0.4982     -1.0794

 General Reference for PM7:
 "Optimization of Parameters for Semiempirical Methods VI: More Modifications to the 
 NDDO Approximations and Re-optimization of Parameters", J. J. P. Stewart, J. Mol. Mod., 1:32, 19 (2013)
 https://link.springer.com/article/10.1007/s00894-012-1667-x

           Empirical Formula: C6 H9 N O  =    17 atoms



      MOLECULAR POINT GROUP   :   C1  


          UHF CALCULATION, NO. OF ALPHA ELECTRONS =   22
                           NO. OF BETA  ELECTRONS =   21
  SCF CRITERION =    0.1000E-07

 -------------------------------------------------------------------------------
 PM7 1SCF GRADIENTS DISP RELSCF=0.0001 CHARGE=1
 Title: ASE calculation



     1SCF WAS SPECIFIED, SO BFGS WAS NOT USED                 
     SCF FIELD WAS ACHIEVED                                   


                              PM7 CALCULATION
                                                       MOPAC v23.2 Linux
                                                       Fri Sep 19 21:31:57 2025




          FINAL HEAT OF FORMATION =        236.97535 KCAL/MOL =     991.50487 KJ/MOL

          TOTAL ENERGY            =     -30631.97424 KCAL/MOL = ELECTRONIC ENERGY + CORE-CORE REPULSION
          ENERGY OF ATOMS         =      30870.38327 KCAL/MOL
                              SUM =        238.40903 KCAL/MOL
          DISPERSION ENERGY       =         -1.43368 KCAL/MOL
                              SUM =        236.97535 KCAL/MOL = FINAL HEAT OF FORMATION



          TOTAL ENERGY            =      -1328.32812 EV
          ELECTRONIC ENERGY       =      -6120.44630 EV 
          CORE-CORE REPULSION     =       4792.11817 EV
          COSMO AREA              =        147.54 SQUARE ANGSTROMS
          COSMO VOLUME            =        144.77 CUBIC ANGSTROMS

          GRADIENT NORM           =          1.21262          =       0.29410 PER ATOM
          IONIZATION POTENTIAL    =         15.286765 EV
          ALPHA SOMO LUMO (EV)    =        -15.292 -6.516
          BETA  SOMO LUMO (EV)    =        -15.287 -8.208
          NO. OF ALPHA ELECTRONS  =         22
          NO. OF BETA  ELECTRONS  =         21
          MOLECULAR WEIGHT        =        111.1432         POINT GROUP:  C1  

          MOLECULAR DIMENSIONS (Angstroms)

            Atom       Atom       Distance
            H    17    H    11     5.29673
            H    14    O     8     4.51564
            H    12    H    15     3.32499


          SCF CALCULATIONS        =          1

          WALL-CLOCK TIME         =      1.445 SECONDS
          COMPUTATION TIME        =      0.393 SECONDS

          LARGEST ATOMIC GRADIENTS

          Atom     Label                     Cartesian Gradients           Cartesian Coordinates       |Gradient|
                                           X          Y          Z        X          Y          Z

            14       H                  -0.386     -0.018      0.204   -2.29779   -1.15985    0.68392      0.437
            12       H                   0.079      0.238      0.276   -0.46441    0.03450    1.82845      0.373
             6       C                   0.223     -0.286      0.059    0.53381   -0.41095   -0.11347      0.367
            10       H                  -0.324      0.109      0.079    0.21442    2.31026    1.01854      0.351
             2       C                   0.294     -0.185      0.041   -0.55782    0.28819    0.75061      0.350
             8       O                   0.342     -0.050      0.026    2.08233    1.34447   -0.41405      0.347
            13       H                  -0.075      0.326     -0.088   -2.42505    0.13267   -0.50196      0.346
            11       H                  -0.263     -0.099      0.126   -1.53360    2.20020    1.02241      0.308
            16       H                   0.274      0.119     -0.006    0.22435   -2.38240    0.66354      0.299
             7       C                  -0.113      0.045     -0.247    1.74324    0.16871   -0.55342      0.275



       FINAL  POINT  AND  DERIVATIVES

   PARAMETER     ATOM    TYPE            VALUE        GRADIENT
      1          1  C    CARTESIAN X    -0.625308     -0.129956  KCAL/ANGSTROM
      2          1  C    CARTESIAN Y     1.778855     -0.120357  KCAL/ANGSTROM
      3          1  C    CARTESIAN Z     0.546953     -0.094544  KCAL/ANGSTROM
      4          2  C    CARTESIAN X    -0.557825      0.293915  KCAL/ANGSTROM
      5          2  C    CARTESIAN Y     0.288193     -0.185336  KCAL/ANGSTROM
      6          2  C    CARTESIAN Z     0.750609      0.040966  KCAL/ANGSTROM
      7          3  C    CARTESIAN X    -1.699827     -0.158006  KCAL/ANGSTROM
      8          3  C    CARTESIAN Y    -0.507786     -0.104474  KCAL/ANGSTROM
      9          3  C    CARTESIAN Z     0.027096     -0.089900  KCAL/ANGSTROM
     10          4  C    CARTESIAN X    -0.704614     -0.071805  KCAL/ANGSTROM
     11          4  C    CARTESIAN Y    -1.217188      0.182857  KCAL/ANGSTROM
     12          4  C    CARTESIAN Z    -0.884224     -0.030413  KCAL/ANGSTROM
     13          5  N    CARTESIAN X     0.379320      0.034562  KCAL/ANGSTROM
     14          5  N    CARTESIAN Y    -1.881097     -0.104238  KCAL/ANGSTROM
     15          5  N    CARTESIAN Z    -0.212343     -0.165718  KCAL/ANGSTROM
     16          6  C    CARTESIAN X     0.533812      0.222578  KCAL/ANGSTROM
     17          6  C    CARTESIAN Y    -0.410951     -0.285573  KCAL/ANGSTROM
     18          6  C    CARTESIAN Z    -0.113469      0.058758  KCAL/ANGSTROM
     19          7  C    CARTESIAN X     1.743235     -0.113359  KCAL/ANGSTROM
     20          7  C    CARTESIAN Y     0.168714      0.044981  KCAL/ANGSTROM
     21          7  C    CARTESIAN Z    -0.553421     -0.246519  KCAL/ANGSTROM
     22          8  O    CARTESIAN X     2.082333      0.342125  KCAL/ANGSTROM
     23          8  O    CARTESIAN Y     1.344473     -0.050063  KCAL/ANGSTROM
     24          8  O    CARTESIAN Z    -0.414046      0.025619  KCAL/ANGSTROM
     25          9  H    CARTESIAN X    -0.674830      0.144064  KCAL/ANGSTROM
     26          9  H    CARTESIAN Y     2.077664     -0.040614  KCAL/ANGSTROM
     27          9  H    CARTESIAN Z    -0.508059     -0.192595  KCAL/ANGSTROM
     28         10  H    CARTESIAN X     0.214417     -0.324434  KCAL/ANGSTROM
     29         10  H    CARTESIAN Y     2.310258      0.109049  KCAL/ANGSTROM
     30         10  H    CARTESIAN Z     1.018539      0.079224  KCAL/ANGSTROM
     31         11  H    CARTESIAN X    -1.533598     -0.263298  KCAL/ANGSTROM
     32         11  H    CARTESIAN Y     2.200199     -0.099037  KCAL/ANGSTROM
     33         11  H    CARTESIAN Z     1.022414      0.125912  KCAL/ANGSTROM
     34         12  H    CARTESIAN X    -0.464411      0.079329  KCAL/ANGSTROM
     35         12  H    CARTESIAN Y     0.034503      0.237606  KCAL/ANGSTROM
     36         12  H    CARTESIAN Z     1.828453      0.276441  KCAL/ANGSTROM
     37         13  H    CARTESIAN X    -2.425048     -0.075490  KCAL/ANGSTROM
     38         13  H    CARTESIAN Y     0.132666      0.325688  KCAL/ANGSTROM
     39         13  H    CARTESIAN Z    -0.501963     -0.088256  KCAL/ANGSTROM
     40         14  H    CARTESIAN X    -2.297786     -0.385822  KCAL/ANGSTROM
     41         14  H    CARTESIAN Y    -1.159854     -0.017853  KCAL/ANGSTROM
     42         14  H    CARTESIAN Z     0.683920      0.203537  KCAL/ANGSTROM
     43         15  H    CARTESIAN X    -0.826091      0.021967  KCAL/ANGSTROM
     44         15  H    CARTESIAN Y    -1.344495      0.092256  KCAL/ANGSTROM
     45         15  H    CARTESIAN Z    -1.958935      0.069399  KCAL/ANGSTROM
     46         16  H    CARTESIAN X     0.224355      0.274180  KCAL/ANGSTROM
     47         16  H    CARTESIAN Y    -2.382402      0.118928  KCAL/ANGSTROM
     48         16  H    CARTESIAN Z     0.663543     -0.005774  KCAL/ANGSTROM
     49         17  H    CARTESIAN X     2.510738      0.109450  KCAL/ANGSTROM
     50         17  H    CARTESIAN Y    -0.498181     -0.103818  KCAL/ANGSTROM
     51         17  H    CARTESIAN Z    -1.079371      0.033860  KCAL/ANGSTROM




   ATOM   CHEMICAL          X               Y               Z
  NUMBER   SYMBOL      (ANGSTROMS)     (ANGSTROMS)     (ANGSTROMS)

     1       C         -0.62530751  *   1.77885464  *   0.54695268  *
     2       C         -0.55782481  *   0.28819301  *   0.75060931  *
     3       C         -1.69982678  *  -0.50778641  *   0.02709591  *
     4       C         -0.70461403  *  -1.21718754  *  -0.88422413  *
     5       N          0.37931982  *  -1.88109727  *  -0.21234311  *
     6       C          0.53381169  *  -0.41095107  *  -0.11346910  *
     7       C          1.74323548  *   0.16871395  *  -0.55342052  *
     8       O          2.08233333  *   1.34447260  *  -0.41404632  *
     9       H         -0.67483029  *   2.07766417  *  -0.50805863  *
    10       H          0.21441722  *   2.31025780  *   1.01853925  *
    11       H         -1.53359763  *   2.20019851  *   1.02241383  *
    12       H         -0.46441079  *   0.03450284  *   1.82845319  *
    13       H         -2.42504848  *   0.13266614  *  -0.50196286  *
    14       H         -2.29778586  *  -1.15985421  *   0.68392006  *
    15       H         -0.82609113  *  -1.34449473  *  -1.95893473  *
    16       H          0.22435476  *  -2.38240226  *   0.66354262  *
    17       H          2.51073753  *  -0.49818078  *  -1.07937050  *

                             CARTESIAN COORDINATES

   1    C       -0.625307512     1.778854637     0.546952676
   2    C       -0.557824805     0.288193006     0.750609305
   3    C       -1.699826781    -0.507786411     0.027095914
   4    C       -0.704614027    -1.217187537    -0.884224130
   5    N        0.379319824    -1.881097275    -0.212343106
   6    C        0.533811686    -0.410951069    -0.113469098
   7    C        1.743235479     0.168713948    -0.553420521
   8    O        2.082333333     1.344472600    -0.414046319
   9    H       -0.674830289     2.077664171    -0.508058635
  10    H        0.214417217     2.310257799     1.018539249
  11    H       -1.533597630     2.200198507     1.022413833
  12    H       -0.464410786     0.034502842     1.828453193
  13    H       -2.425048480     0.132666144    -0.501962855
  14    H       -2.297785863    -1.159854207     0.683920056
  15    H       -0.826091127    -1.344494733    -1.958934729
  16    H        0.224354763    -2.382402263     0.663542619
  17    H        2.510737527    -0.498180779    -1.079370501


           Empirical Formula: C6 H9 N O  =    17 atoms



      MOLECULAR POINT GROUP   :   C1  


          ALPHA EIGENVALUES  
 -42.19538 -40.55052 -33.71014 -31.43263 -29.49992 -26.56095 -26.43694 -24.00171
 -23.42739 -21.98248 -21.42486 -21.25982 -20.35426 -19.48134 -19.06357 -18.33700
 -18.01811 -17.06439 -16.90663 -16.50879 -15.52628 -15.29235  -6.51566  -3.84659
  -3.18574  -2.36328  -2.11701  -2.08411  -1.69125  -1.43285  -1.32971  -0.63457
  -0.22544   0.46464   0.99438   1.24579   1.45049   1.52929   1.59300   1.85500
   2.71515


           BETA EIGENVALUES 
 -42.20022 -37.42151 -33.65856 -30.71170 -29.47627 -26.56521 -26.02342 -23.32512
 -22.78408 -21.78066 -21.06324 -20.76255 -20.14583 -19.27482 -18.54483 -18.07251
 -17.05994 -16.92711 -16.59733 -15.43390 -15.28677  -8.20839  -6.27329  -3.85312
  -2.76385  -2.20650  -2.06206  -1.89697  -1.65810  -1.27430  -1.11024  -0.63079
  -0.22144   0.45804   0.99427   1.24717   1.45520   1.52429   1.59457   1.85437
   2.71808


              NET ATOMIC CHARGES AND DIPOLE CONTRIBUTIONS

  ATOM NO.   TYPE          CHARGE      No. of ELECS.   s-Pop       p-Pop       
    1          C          -0.476130        4.4761     1.05336     3.42277
    2          C          -0.039106        4.0391     1.07533     2.96377
    3          C          -0.358341        4.3583     1.08447     3.27387
    4          C           0.223697        3.7763     1.14333     2.63298
    5          N          -0.412744        5.4127     1.70583     3.70691
    6          C          -0.230655        4.2307     1.06938     3.16127
    7          C           0.218809        3.7812     1.16654     2.61465
    8          O           0.167932        5.8321     1.90870     3.92337
    9          H           0.163583        0.8364     0.83642
   10          H           0.168796        0.8312     0.83120
   11          H           0.197600        0.8024     0.80240
   12          H           0.175632        0.8244     0.82437
   13          H           0.199702        0.8003     0.80030
   14          H           0.198167        0.8018     0.80183
   15          H           0.204402        0.7956     0.79560
   16          H           0.308375        0.6916     0.69163
   17          H           0.290279        0.7097     0.70972
 DIPOLE           X         Y         Z       TOTAL
 POINT-CHG.     1.417     0.091    -1.612     2.149
 HYBRID         0.185     0.328     0.593     0.703
 SUM            1.602     0.418    -1.019     1.944


          ATOMIC ORBITAL ELECTRON POPULATIONS

     Atom    s        px        py        pz   
    1  C   1.05336   1.22110   1.00536   1.19631
    2  C   1.07533   0.90324   0.98749   1.07304
    3  C   1.08447   1.06111   1.11368   1.09908
    4  C   1.14333   0.78631   0.78382   1.06284
    5  N   1.70583   1.30681   1.03639   1.36371
    6  C   1.06938   0.99269   0.94060   1.22799
    7  C   1.16654   0.96291   0.89471   0.75704
    8  O   1.90870   1.25718   1.21424   1.45196
    9  H   0.83642
   10  H   0.83120
   11  H   0.80240
   12  H   0.82437
   13  H   0.80030
   14  H   0.80183
   15  H   0.79560
   16  H   0.69163
   17  H   0.70972


                    (SZ)    =    0.500000
                    (S**2)  =    0.774045


          ATOMIC ORBITAL SPIN POPULATIONS

    Atom   Total    s     px     py     pz   
         Atomic
    1  C  0.0038  0.000  0.003  0.000 -0.000
    2  C  0.0034 -0.001  0.006 -0.001 -0.001
    3  C  0.0059  0.001  0.003  0.002  0.001
    4  C -0.0391 -0.001 -0.013 -0.025 -0.000
    5  N -0.0037  0.000  0.004 -0.009  0.001
    6  C  0.0852  0.010  0.060  0.006  0.008
    7  C -0.0949 -0.016 -0.007 -0.032 -0.039
    8  O  0.9262  0.018  0.581  0.072  0.255
    9  H  0.0001  0.000
   10  H  0.0006  0.001
   11  H  0.0020  0.002
   12  H -0.0003 -0.000
   13  H -0.0002 -0.000
   14  H -0.0005 -0.000
   15  H  0.0005  0.000
   16  H -0.0011 -0.001
   17  H  0.1122  0.112

 **********************
 *                    *
 * JOB ENDED NORMALLY *
 *                    *
 **********************



 TOTAL JOB TIME:             2.14 SECONDS

 == MOPAC DONE ==
