 *******************************************************************************
 **                                                                           **
 **                              MOPAC v23.2                                  **
 **                                                                           **
 *******************************************************************************
 **          Digital Object Identifier (DOI): 10.5281/zenodo.6511958          **
 **    Visit the DOI location for information on how to cite this program.    **
 *******************************************************************************

                              PM7 CALCULATION RESULTS

 *******************************************************************************
 *  CALCULATION DONE: (MAX THREADS = 40)             Fri Sep 19 21:52:50 2025  *
 *  PM7        - The PM7 Hamiltonian to be used
 *
 *
 *
 *                 CHARGE ON SYSTEM = +1
 *
 *
 *
 *  1SCF       - DO 1 SCF AND THEN STOP 
 *  T=         - A TIME OF 172800.0 SECONDS REQUESTED
 *  DUMP=N     - RESTART FILE WRITTEN EVERY 7200.0 SECONDS REQUESTED
 *  RELSCF     - DEFAULT SCF CRITERION MULTIPLIED BY 0.0001
 *              (DEFAULT SCF CRITERION = 0.00010)
 *  GRADIENTS  - ALL GRADIENTS TO BE PRINTED
 *  DISP       - PRINT DISPERSION AND HYDROGEN BOND ENERGIES
 *******************************************************************************
PM7 1SCF GRADIENTS DISP RELSCF=0.0001 CHARGE=1
 Title: ASE calculation

   ATOM   CHEMICAL          X               Y               Z
  NUMBER   SYMBOL      (ANGSTROMS)     (ANGSTROMS)     (ANGSTROMS)

     1       O         -2.42928509  *   0.64364307  *  -1.62810746  *
     2       C         -1.58907978  *   0.34300175  *  -0.70562602  *
     3       C         -1.31086436  *  -1.11910454  *  -0.36256082  *
     4       C         -0.98221209  *  -0.94011267  *   1.16424522  *
     5       C          0.07161694  *   0.20984752  *   0.93536248  *
     6       C         -0.73663287  *   1.16910389  *   0.11156149  *
     7       C          0.91105514  *  -0.47830743  *  -0.16712434  *
     8       O          2.19204915  *  -0.18450431  *  -0.19224536  *
     9       C          0.08779754  *  -1.22904655  *  -0.95240491  *
    10       H         -2.50191671  *   1.63756682  *  -1.86501342  *
    11       H         -2.05045341  *  -1.87757858  *  -0.64658945  *
    12       H         -0.54440937  *  -1.84535295  *   1.61692685  *
    13       H         -1.83534019  *  -0.65633730  *   1.79342449  *
    14       H          0.61716613  *   0.58606674  *   1.81141296  *
    15       H         -0.67113610  *   2.23910536  *   0.16381786  *
    16       H          2.69548335  *  -0.64932702  *  -0.93276685  *
    17       H          0.30657037  *  -1.85327052  *  -1.79373879  *



          CARTESIAN COORDINATES 

    NO.       ATOM           X           Y           Z

     1         O         -2.4293      0.6436     -1.6281
     2         C         -1.5891      0.3430     -0.7056
     3         C         -1.3109     -1.1191     -0.3626
     4         C         -0.9822     -0.9401      1.1642
     5         C          0.0716      0.2098      0.9354
     6         C         -0.7366      1.1691      0.1116
     7         C          0.9111     -0.4783     -0.1671
     8         O          2.1920     -0.1845     -0.1922
     9         C          0.0878     -1.2290     -0.9524
    10         H         -2.5019      1.6376     -1.8650
    11         H         -2.0505     -1.8776     -0.6466
    12         H         -0.5444     -1.8454      1.6169
    13         H         -1.8353     -0.6563      1.7934
    14         H          0.6172      0.5861      1.8114
    15         H         -0.6711      2.2391      0.1638
    16         H          2.6955     -0.6493     -0.9328
    17         H          0.3066     -1.8533     -1.7937

 General Reference for PM7:
 "Optimization of Parameters for Semiempirical Methods VI: More Modifications to the 
 NDDO Approximations and Re-optimization of Parameters", J. J. P. Stewart, J. Mol. Mod., 1:32, 19 (2013)
 https://link.springer.com/article/10.1007/s00894-012-1667-x

           Empirical Formula: C7 H8 O2  =    17 atoms



      MOLECULAR POINT GROUP   :   C1  


          UHF CALCULATION, NO. OF ALPHA ELECTRONS =   24
                           NO. OF BETA  ELECTRONS =   23
  SCF CRITERION =    0.1000E-07

 -------------------------------------------------------------------------------
 PM7 1SCF GRADIENTS DISP RELSCF=0.0001 CHARGE=1
 Title: ASE calculation



     1SCF WAS SPECIFIED, SO BFGS WAS NOT USED                 
     SCF FIELD WAS ACHIEVED                                   


                              PM7 CALCULATION
                                                       MOPAC v23.2 Linux
                                                       Fri Sep 19 21:52:51 2025




          FINAL HEAT OF FORMATION =        160.28352 KCAL/MOL =     670.62625 KJ/MOL

          TOTAL ENERGY            =     -35705.92995 KCAL/MOL = ELECTRONIC ENERGY + CORE-CORE REPULSION
          ENERGY OF ATOMS         =      35867.73354 KCAL/MOL
                              SUM =        161.80359 KCAL/MOL
          DISPERSION ENERGY       =         -1.52007 KCAL/MOL
                              SUM =        160.28352 KCAL/MOL = FINAL HEAT OF FORMATION



          TOTAL ENERGY            =      -1548.35567 EV
          ELECTRONIC ENERGY       =      -7219.75561 EV 
          CORE-CORE REPULSION     =       5671.39994 EV
          COSMO AREA              =        150.74 SQUARE ANGSTROMS
          COSMO VOLUME            =        146.64 CUBIC ANGSTROMS

          GRADIENT NORM           =          1.36108          =       0.33011 PER ATOM
          IONIZATION POTENTIAL    =         13.855975 EV
          ALPHA SOMO LUMO (EV)    =        -14.068 -5.726
          BETA  SOMO LUMO (EV)    =        -13.856 -7.343
          NO. OF ALPHA ELECTRONS  =         24
          NO. OF BETA  ELECTRONS  =         23
          MOLECULAR WEIGHT        =        124.1390         POINT GROUP:  C1  

          MOLECULAR DIMENSIONS (Angstroms)

            Atom       Atom       Distance
            H    16    H    10     5.75430
            H    11    H    15     4.40900
            H    13    H    17     3.81360


          SCF CALCULATIONS        =          1

          WALL-CLOCK TIME         =      1.672 SECONDS
          COMPUTATION TIME        =      1.035 SECONDS

          LARGEST ATOMIC GRADIENTS

          Atom     Label                     Cartesian Gradients           Cartesian Coordinates       |Gradient|
                                           X          Y          Z        X          Y          Z

            14       H                   0.372     -0.145      0.228    0.61717    0.58607    1.81141      0.459
            16       H                  -0.243      0.308      0.164    2.69548   -0.64933   -0.93277      0.425
             9       C                   0.370     -0.145     -0.135    0.08780   -1.22905   -0.95240      0.420
             6       C                  -0.300      0.160     -0.236   -0.73663    1.16910    0.11156      0.414
            17       H                  -0.110     -0.243      0.314    0.30657   -1.85327   -1.79374      0.412
             7       C                   0.331      0.055     -0.159    0.91106   -0.47831   -0.16712      0.371
             3       C                   0.067     -0.279      0.212   -1.31086   -1.11910   -0.36256      0.357
             5       C                  -0.025     -0.305      0.181    0.07162    0.20985    0.93536      0.355
             2       C                  -0.176      0.201     -0.202   -1.58908    0.34300   -0.70563      0.335
            12       H                  -0.178      0.242     -0.129   -0.54441   -1.84535    1.61693      0.327



       FINAL  POINT  AND  DERIVATIVES

   PARAMETER     ATOM    TYPE            VALUE        GRADIENT
      1          1  O    CARTESIAN X    -2.429285      0.114138  KCAL/ANGSTROM
      2          1  O    CARTESIAN Y     0.643643      0.252985  KCAL/ANGSTROM
      3          1  O    CARTESIAN Z    -1.628107      0.011858  KCAL/ANGSTROM
      4          2  C    CARTESIAN X    -1.589080     -0.176220  KCAL/ANGSTROM
      5          2  C    CARTESIAN Y     0.343002      0.200524  KCAL/ANGSTROM
      6          2  C    CARTESIAN Z    -0.705626     -0.201714  KCAL/ANGSTROM
      7          3  C    CARTESIAN X    -1.310864      0.066851  KCAL/ANGSTROM
      8          3  C    CARTESIAN Y    -1.119105     -0.278856  KCAL/ANGSTROM
      9          3  C    CARTESIAN Z    -0.362561      0.212498  KCAL/ANGSTROM
     10          4  C    CARTESIAN X    -0.982212     -0.086196  KCAL/ANGSTROM
     11          4  C    CARTESIAN Y    -0.940113     -0.003788  KCAL/ANGSTROM
     12          4  C    CARTESIAN Z     1.164245     -0.106747  KCAL/ANGSTROM
     13          5  C    CARTESIAN X     0.071617     -0.025350  KCAL/ANGSTROM
     14          5  C    CARTESIAN Y     0.209848     -0.304567  KCAL/ANGSTROM
     15          5  C    CARTESIAN Z     0.935362      0.181245  KCAL/ANGSTROM
     16          6  C    CARTESIAN X    -0.736633     -0.300422  KCAL/ANGSTROM
     17          6  C    CARTESIAN Y     1.169104      0.159587  KCAL/ANGSTROM
     18          6  C    CARTESIAN Z     0.111561     -0.235887  KCAL/ANGSTROM
     19          7  C    CARTESIAN X     0.911055      0.330802  KCAL/ANGSTROM
     20          7  C    CARTESIAN Y    -0.478307      0.054893  KCAL/ANGSTROM
     21          7  C    CARTESIAN Z    -0.167124     -0.158736  KCAL/ANGSTROM
     22          8  O    CARTESIAN X     2.192049     -0.069592  KCAL/ANGSTROM
     23          8  O    CARTESIAN Y    -0.184504      0.126688  KCAL/ANGSTROM
     24          8  O    CARTESIAN Z    -0.192245     -0.274626  KCAL/ANGSTROM
     25          9  C    CARTESIAN X     0.087798      0.369800  KCAL/ANGSTROM
     26          9  C    CARTESIAN Y    -1.229047     -0.144998  KCAL/ANGSTROM
     27          9  C    CARTESIAN Z    -0.952405     -0.135242  KCAL/ANGSTROM
     28         10  H    CARTESIAN X    -2.501917      0.060928  KCAL/ANGSTROM
     29         10  H    CARTESIAN Y     1.637567     -0.165702  KCAL/ANGSTROM
     30         10  H    CARTESIAN Z    -1.865013     -0.040035  KCAL/ANGSTROM
     31         11  H    CARTESIAN X    -2.050453     -0.228510  KCAL/ANGSTROM
     32         11  H    CARTESIAN Y    -1.877579     -0.076511  KCAL/ANGSTROM
     33         11  H    CARTESIAN Z    -0.646589     -0.057919  KCAL/ANGSTROM
     34         12  H    CARTESIAN X    -0.544409     -0.178307  KCAL/ANGSTROM
     35         12  H    CARTESIAN Y    -1.845353      0.242357  KCAL/ANGSTROM
     36         12  H    CARTESIAN Z     1.616927     -0.128622  KCAL/ANGSTROM
     37         13  H    CARTESIAN X    -1.835340      0.012158  KCAL/ANGSTROM
     38         13  H    CARTESIAN Y    -0.656337     -0.019324  KCAL/ANGSTROM
     39         13  H    CARTESIAN Z     1.793424      0.040776  KCAL/ANGSTROM
     40         14  H    CARTESIAN X     0.617166      0.371514  KCAL/ANGSTROM
     41         14  H    CARTESIAN Y     0.586067     -0.144679  KCAL/ANGSTROM
     42         14  H    CARTESIAN Z     1.811413      0.227802  KCAL/ANGSTROM
     43         15  H    CARTESIAN X    -0.671136      0.091707  KCAL/ANGSTROM
     44         15  H    CARTESIAN Y     2.239105      0.036084  KCAL/ANGSTROM
     45         15  H    CARTESIAN Z     0.163818      0.187951  KCAL/ANGSTROM
     46         16  H    CARTESIAN X     2.695483     -0.243009  KCAL/ANGSTROM
     47         16  H    CARTESIAN Y    -0.649327      0.308002  KCAL/ANGSTROM
     48         16  H    CARTESIAN Z    -0.932767      0.163614  KCAL/ANGSTROM
     49         17  H    CARTESIAN X     0.306570     -0.110293  KCAL/ANGSTROM
     50         17  H    CARTESIAN Y    -1.853271     -0.242698  KCAL/ANGSTROM
     51         17  H    CARTESIAN Z    -1.793739      0.313780  KCAL/ANGSTROM




   ATOM   CHEMICAL          X               Y               Z
  NUMBER   SYMBOL      (ANGSTROMS)     (ANGSTROMS)     (ANGSTROMS)

     1       O         -2.42928509  *   0.64364307  *  -1.62810746  *
     2       C         -1.58907978  *   0.34300175  *  -0.70562602  *
     3       C         -1.31086436  *  -1.11910454  *  -0.36256082  *
     4       C         -0.98221209  *  -0.94011267  *   1.16424522  *
     5       C          0.07161694  *   0.20984752  *   0.93536248  *
     6       C         -0.73663287  *   1.16910389  *   0.11156149  *
     7       C          0.91105514  *  -0.47830743  *  -0.16712434  *
     8       O          2.19204915  *  -0.18450431  *  -0.19224536  *
     9       C          0.08779754  *  -1.22904655  *  -0.95240491  *
    10       H         -2.50191671  *   1.63756682  *  -1.86501342  *
    11       H         -2.05045341  *  -1.87757858  *  -0.64658945  *
    12       H         -0.54440937  *  -1.84535295  *   1.61692685  *
    13       H         -1.83534019  *  -0.65633730  *   1.79342449  *
    14       H          0.61716613  *   0.58606674  *   1.81141296  *
    15       H         -0.67113610  *   2.23910536  *   0.16381786  *
    16       H          2.69548335  *  -0.64932702  *  -0.93276685  *
    17       H          0.30657037  *  -1.85327052  *  -1.79373879  *

                             CARTESIAN COORDINATES

   1    O       -2.429285089     0.643643066    -1.628107461
   2    C       -1.589079785     0.343001754    -0.705626023
   3    C       -1.310864362    -1.119104545    -0.362560816
   4    C       -0.982212085    -0.940112665     1.164245219
   5    C        0.071616940     0.209847523     0.935362475
   6    C       -0.736632866     1.169103886     0.111561491
   7    C        0.911055137    -0.478307427    -0.167124341
   8    O        2.192049148    -0.184504313    -0.192245359
   9    C        0.087797540    -1.229046546    -0.952404910
  10    H       -2.501916714     1.637566822    -1.865013416
  11    H       -2.050453415    -1.877578577    -0.646589447
  12    H       -0.544409367    -1.845352953     1.616926849
  13    H       -1.835340187    -0.656337299     1.793424489
  14    H        0.617166129     0.586066738     1.811412963
  15    H       -0.671136102     2.239105357     0.163817865
  16    H        2.695483347    -0.649327023    -0.932766845
  17    H        0.306570369    -1.853270522    -1.793738795


           Empirical Formula: C7 H8 O2  =    17 atoms



      MOLECULAR POINT GROUP   :   C1  


          ALPHA EIGENVALUES  
 -38.37555 -37.63171 -35.38019 -30.67855 -30.07126 -28.86757 -26.24012 -24.82642
 -24.05689 -23.40580 -22.02864 -21.53405 -20.91318 -20.23158 -19.49206 -18.92042
 -18.76603 -18.10910 -17.63555 -17.36502 -17.31768 -16.97956 -15.41133 -14.06795
  -5.72598  -4.13648  -3.78680  -2.51197  -2.34730  -2.21587  -1.98473  -1.70985
  -1.42708  -0.69074  -0.65708  -0.47918   0.12294   0.42786   1.01677   1.08381
   1.14779   1.36942   1.80600   1.98900


           BETA EIGENVALUES 
 -38.21201 -37.34333 -35.38901 -30.46364 -29.99225 -28.79618 -26.14315 -24.75675
 -24.00097 -23.29453 -21.94157 -21.41967 -20.63923 -20.04951 -19.39729 -18.75002
 -18.60309 -18.09357 -17.48737 -17.29033 -17.26374 -16.84584 -13.85597  -7.34337
  -4.81976  -3.88380  -3.60805  -2.43745  -2.25730  -2.18604  -1.92625  -1.66597
  -1.28795  -0.66010  -0.63295  -0.39295   0.14965   0.57031   1.02447   1.09134
   1.15235   1.37429   1.80843   2.01702


              NET ATOMIC CHARGES AND DIPOLE CONTRIBUTIONS

  ATOM NO.   TYPE          CHARGE      No. of ELECS.   s-Pop       p-Pop       
    1          O          -0.259868        6.2599     1.82862     4.43125
    2          C           0.389739        3.6103     1.17869     2.43157
    3          C          -0.090323        4.0903     1.08840     3.00192
    4          C          -0.260001        4.2600     1.09278     3.16722
    5          C          -0.140185        4.1402     1.08654     3.05364
    6          C          -0.133573        4.1336     1.15429     2.97928
    7          C           0.305735        3.6943     1.10780     2.58646
    8          O          -0.373582        6.3736     1.83450     4.53909
    9          C          -0.381915        4.3819     1.09132     3.29060
   10          H           0.376277        0.6237     0.62372
   11          H           0.207207        0.7928     0.79279
   12          H           0.196831        0.8032     0.80317
   13          H           0.175960        0.8240     0.82404
   14          H           0.211984        0.7880     0.78802
   15          H           0.205089        0.7949     0.79491
   16          H           0.364637        0.6354     0.63536
   17          H           0.205990        0.7940     0.79401
 DIPOLE           X         Y         Z       TOTAL
 POINT-CHG.    -2.165     1.874    -0.702     2.948
 HYBRID         0.130     0.708    -0.781     1.062
 SUM           -2.035     2.582    -1.484     3.607


          ATOMIC ORBITAL ELECTRON POPULATIONS

     Atom    s        px        py        pz   
    1  O   1.82862   1.51020   1.44262   1.47843
    2  C   1.17869   0.70096   1.00798   0.72262
    3  C   1.08840   1.04459   0.94928   1.00805
    4  C   1.09278   1.08503   1.08355   0.99865
    5  C   1.08654   1.00810   0.98753   1.05801
    6  C   1.15429   0.92535   1.09487   0.95906
    7  C   1.10780   0.80068   0.86809   0.91769
    8  O   1.83450   1.26721   1.67554   1.59634
    9  C   1.09132   0.95759   1.18112   1.15189
   10  H   0.62372
   11  H   0.79279
   12  H   0.80317
   13  H   0.82404
   14  H   0.78802
   15  H   0.79491
   16  H   0.63536
   17  H   0.79401


                    (SZ)    =    0.500000
                    (S**2)  =    0.762420


          ATOMIC ORBITAL SPIN POPULATIONS

    Atom   Total    s     px     py     pz   
         Atomic
    1  O  0.1031  0.004  0.053  0.004  0.042
    2  C  0.0360 -0.004  0.024 -0.001  0.017
    3  C -0.0054 -0.001 -0.001 -0.002 -0.001
    4  C  0.0158  0.002  0.002  0.013 -0.000
    5  C -0.0345 -0.004 -0.009 -0.016 -0.006
    6  C  0.7674  0.019  0.379  0.023  0.346
    7  C  0.0073  0.007  0.007  0.011 -0.018
    8  O -0.0046  0.000  0.001 -0.003 -0.003
    9  C  0.1386  0.005  0.025  0.071  0.037
   10  H -0.0049 -0.005
   11  H  0.0000  0.000
   12  H  0.0013  0.001
   13  H -0.0006 -0.001
   14  H  0.0018  0.002
   15  H -0.0203 -0.020
   16  H  0.0026  0.003
   17  H -0.0036 -0.004

 **********************
 *                    *
 * JOB ENDED NORMALLY *
 *                    *
 **********************



 TOTAL JOB TIME:             2.13 SECONDS

 == MOPAC DONE ==
