 *******************************************************************************
 **                                                                           **
 **                              MOPAC v23.2                                  **
 **                                                                           **
 *******************************************************************************
 **          Digital Object Identifier (DOI): 10.5281/zenodo.6511958          **
 **    Visit the DOI location for information on how to cite this program.    **
 *******************************************************************************

                              PM7 CALCULATION RESULTS

 *******************************************************************************
 *  CALCULATION DONE: (MAX THREADS = 40)             Fri Sep 19 21:35:58 2025  *
 *  PM7        - The PM7 Hamiltonian to be used
 *
 *
 *
 *                 CHARGE ON SYSTEM = +1
 *
 *
 *
 *  1SCF       - DO 1 SCF AND THEN STOP 
 *  T=         - A TIME OF 172800.0 SECONDS REQUESTED
 *  DUMP=N     - RESTART FILE WRITTEN EVERY 7200.0 SECONDS REQUESTED
 *  RELSCF     - DEFAULT SCF CRITERION MULTIPLIED BY 0.0001
 *              (DEFAULT SCF CRITERION = 0.00010)
 *  GRADIENTS  - ALL GRADIENTS TO BE PRINTED
 *  DISP       - PRINT DISPERSION AND HYDROGEN BOND ENERGIES
 *******************************************************************************
PM7 1SCF GRADIENTS DISP RELSCF=0.0001 CHARGE=1
 Title: ASE calculation

   ATOM   CHEMICAL          X               Y               Z
  NUMBER   SYMBOL      (ANGSTROMS)     (ANGSTROMS)     (ANGSTROMS)

     1       C          1.21838694  *   0.03078213  *  -0.46330399  *
     2       C          0.52175064  *   1.17839577  *  -0.65446851  *
     3       C         -0.67232718  *   1.10017106  *   0.25979679  *
     4       O         -0.22030819  *   0.25620041  *   1.31711933  *
     5       C          0.45200891  *  -0.75681235  *   0.56747065  *
     6       C         -0.85297628  *  -1.28812437  *  -0.27110279  *
     7       O         -2.08406334  *  -1.03635959  *   0.35098942  *
     8       C         -1.63229165  *  -0.00902627  *  -0.48559069  *
     9       H          2.13992401  *  -0.30784888  *  -0.91104963  *
    10       H          0.72736277  *   2.01897743  *  -1.29919615  *
    11       H         -1.19547150  *   1.98382717  *   0.64297248  *
    12       H          0.91983676  *  -1.50011305  *   1.22369167  *
    13       H         -0.71909314  *  -2.21462587  *  -0.82330916  *
    14       H         -2.29304610  *   0.37921994  *  -1.25585184  *



          CARTESIAN COORDINATES 

    NO.       ATOM           X           Y           Z

     1         C          1.2184      0.0308     -0.4633
     2         C          0.5218      1.1784     -0.6545
     3         C         -0.6723      1.1002      0.2598
     4         O         -0.2203      0.2562      1.3171
     5         C          0.4520     -0.7568      0.5675
     6         C         -0.8530     -1.2881     -0.2711
     7         O         -2.0841     -1.0364      0.3510
     8         C         -1.6323     -0.0090     -0.4856
     9         H          2.1399     -0.3078     -0.9110
    10         H          0.7274      2.0190     -1.2992
    11         H         -1.1955      1.9838      0.6430
    12         H          0.9198     -1.5001      1.2237
    13         H         -0.7191     -2.2146     -0.8233
    14         H         -2.2930      0.3792     -1.2559

 General Reference for PM7:
 "Optimization of Parameters for Semiempirical Methods VI: More Modifications to the 
 NDDO Approximations and Re-optimization of Parameters", J. J. P. Stewart, J. Mol. Mod., 1:32, 19 (2013)
 https://link.springer.com/article/10.1007/s00894-012-1667-x

           Empirical Formula: C6 H6 O2  =    14 atoms



      MOLECULAR POINT GROUP   :   Cs  


          UHF CALCULATION, NO. OF ALPHA ELECTRONS =   21
                           NO. OF BETA  ELECTRONS =   20
  SCF CRITERION =    0.1000E-07

 -------------------------------------------------------------------------------
 PM7 1SCF GRADIENTS DISP RELSCF=0.0001 CHARGE=1
 Title: ASE calculation



     1SCF WAS SPECIFIED, SO BFGS WAS NOT USED                 
     SCF FIELD WAS ACHIEVED                                   


                              PM7 CALCULATION
                                                       MOPAC v23.2 Linux
                                                       Fri Sep 19 21:35:59 2025




          FINAL HEAT OF FORMATION =        222.75652 KCAL/MOL =     932.01329 KJ/MOL

          TOTAL ENERGY            =     -32190.67948 KCAL/MOL = ELECTRONIC ENERGY + CORE-CORE REPULSION
          ENERGY OF ATOMS         =      32414.18318 KCAL/MOL
                              SUM =        223.50370 KCAL/MOL
          DISPERSION ENERGY       =         -0.74717 KCAL/MOL
                              SUM =        222.75652 KCAL/MOL = FINAL HEAT OF FORMATION



          TOTAL ENERGY            =      -1395.91998 EV
          ELECTRONIC ENERGY       =      -6113.85096 EV 
          CORE-CORE REPULSION     =       4717.93098 EV
          COSMO AREA              =        129.92 SQUARE ANGSTROMS
          COSMO VOLUME            =        123.81 CUBIC ANGSTROMS

          GRADIENT NORM           =          0.98371          =       0.26291 PER ATOM
          IONIZATION POTENTIAL    =         15.558000 EV
          ALPHA SOMO LUMO (EV)    =        -15.558 -5.165
          BETA  SOMO LUMO (EV)    =        -15.635 -8.682
          NO. OF ALPHA ELECTRONS  =         21
          NO. OF BETA  ELECTRONS  =         20
          MOLECULAR WEIGHT        =        110.1122         POINT GROUP:  Cs  

          MOLECULAR DIMENSIONS (Angstroms)

            Atom       Atom       Distance
            H    14    H     9     4.49913
            H    13    H    10     4.43748
            H    10    O     4     2.41311


          SCF CALCULATIONS        =          1

          WALL-CLOCK TIME         =      1.188 SECONDS
          COMPUTATION TIME        =      0.600 SECONDS

          LARGEST ATOMIC GRADIENTS

          Atom     Label                     Cartesian Gradients           Cartesian Coordinates       |Gradient|
                                           X          Y          Z        X          Y          Z

            10       H                   0.192      0.011      0.330    0.72736    2.01898   -1.29920      0.382
             8       C                  -0.125      0.284      0.215   -1.63229   -0.00903   -0.48559      0.378
             9       H                   0.043      0.241      0.283    2.13992   -0.30785   -0.91105      0.374
             3       C                  -0.032      0.036     -0.352   -0.67233    1.10017    0.25980      0.355
             5       C                   0.277      0.048     -0.141    0.45201   -0.75681    0.56747      0.315
             6       C                  -0.149     -0.184      0.178   -0.85298   -1.28812   -0.27110      0.296
            14       H                  -0.203      0.025     -0.009   -2.29305    0.37922   -1.25585      0.204
             4       O                   0.091     -0.052     -0.168   -0.22031    0.25620    1.31712      0.198
            13       H                  -0.012     -0.186      0.051   -0.71909   -2.21463   -0.82331      0.193
             2       C                  -0.005      0.006     -0.190    0.52175    1.17840   -0.65447      0.190



       FINAL  POINT  AND  DERIVATIVES

   PARAMETER     ATOM    TYPE            VALUE        GRADIENT
      1          1  C    CARTESIAN X     1.218387      0.036160  KCAL/ANGSTROM
      2          1  C    CARTESIAN Y     0.030782     -0.041208  KCAL/ANGSTROM
      3          1  C    CARTESIAN Z    -0.463304     -0.155523  KCAL/ANGSTROM
      4          2  C    CARTESIAN X     0.521751     -0.005120  KCAL/ANGSTROM
      5          2  C    CARTESIAN Y     1.178396      0.005858  KCAL/ANGSTROM
      6          2  C    CARTESIAN Z    -0.654469     -0.189867  KCAL/ANGSTROM
      7          3  C    CARTESIAN X    -0.672327     -0.031984  KCAL/ANGSTROM
      8          3  C    CARTESIAN Y     1.100171      0.035724  KCAL/ANGSTROM
      9          3  C    CARTESIAN Z     0.259797     -0.351914  KCAL/ANGSTROM
     10          4  O    CARTESIAN X    -0.220308      0.090969  KCAL/ANGSTROM
     11          4  O    CARTESIAN Y     0.256200     -0.052165  KCAL/ANGSTROM
     12          4  O    CARTESIAN Z     1.317119     -0.168350  KCAL/ANGSTROM
     13          5  C    CARTESIAN X     0.452009      0.277259  KCAL/ANGSTROM
     14          5  C    CARTESIAN Y    -0.756812      0.047763  KCAL/ANGSTROM
     15          5  C    CARTESIAN Z     0.567471     -0.141420  KCAL/ANGSTROM
     16          6  C    CARTESIAN X    -0.852976     -0.148737  KCAL/ANGSTROM
     17          6  C    CARTESIAN Y    -1.288124     -0.184068  KCAL/ANGSTROM
     18          6  C    CARTESIAN Z    -0.271103      0.178287  KCAL/ANGSTROM
     19          7  O    CARTESIAN X    -2.084063     -0.084162  KCAL/ANGSTROM
     20          7  O    CARTESIAN Y    -1.036360     -0.088994  KCAL/ANGSTROM
     21          7  O    CARTESIAN Z     0.350989      0.015624  KCAL/ANGSTROM
     22          8  C    CARTESIAN X    -1.632292     -0.124752  KCAL/ANGSTROM
     23          8  C    CARTESIAN Y    -0.009026      0.284332  KCAL/ANGSTROM
     24          8  C    CARTESIAN Z    -0.485591      0.215123  KCAL/ANGSTROM
     25          9  H    CARTESIAN X     2.139924      0.042630  KCAL/ANGSTROM
     26          9  H    CARTESIAN Y    -0.307849      0.241446  KCAL/ANGSTROM
     27          9  H    CARTESIAN Z    -0.911050      0.282734  KCAL/ANGSTROM
     28         10  H    CARTESIAN X     0.727363      0.192089  KCAL/ANGSTROM
     29         10  H    CARTESIAN Y     2.018977      0.010555  KCAL/ANGSTROM
     30         10  H    CARTESIAN Z    -1.299196      0.329562  KCAL/ANGSTROM
     31         11  H    CARTESIAN X    -1.195472      0.062417  KCAL/ANGSTROM
     32         11  H    CARTESIAN Y     1.983827     -0.119924  KCAL/ANGSTROM
     33         11  H    CARTESIAN Z     0.642972     -0.012199  KCAL/ANGSTROM
     34         12  H    CARTESIAN X     0.919837     -0.092060  KCAL/ANGSTROM
     35         12  H    CARTESIAN Y    -1.500113      0.021037  KCAL/ANGSTROM
     36         12  H    CARTESIAN Z     1.223692     -0.044198  KCAL/ANGSTROM
     37         13  H    CARTESIAN X    -0.719093     -0.012095  KCAL/ANGSTROM
     38         13  H    CARTESIAN Y    -2.214626     -0.185762  KCAL/ANGSTROM
     39         13  H    CARTESIAN Z    -0.823309      0.051193  KCAL/ANGSTROM
     40         14  H    CARTESIAN X    -2.293046     -0.202620  KCAL/ANGSTROM
     41         14  H    CARTESIAN Y     0.379220      0.025401  KCAL/ANGSTROM
     42         14  H    CARTESIAN Z    -1.255852     -0.009055  KCAL/ANGSTROM




   ATOM   CHEMICAL          X               Y               Z
  NUMBER   SYMBOL      (ANGSTROMS)     (ANGSTROMS)     (ANGSTROMS)

     1       C          1.21838694  *   0.03078213  *  -0.46330399  *
     2       C          0.52175064  *   1.17839577  *  -0.65446851  *
     3       C         -0.67232718  *   1.10017106  *   0.25979679  *
     4       O         -0.22030819  *   0.25620041  *   1.31711933  *
     5       C          0.45200891  *  -0.75681235  *   0.56747065  *
     6       C         -0.85297628  *  -1.28812437  *  -0.27110279  *
     7       O         -2.08406334  *  -1.03635959  *   0.35098942  *
     8       C         -1.63229165  *  -0.00902627  *  -0.48559069  *
     9       H          2.13992401  *  -0.30784888  *  -0.91104963  *
    10       H          0.72736277  *   2.01897743  *  -1.29919615  *
    11       H         -1.19547150  *   1.98382717  *   0.64297248  *
    12       H          0.91983676  *  -1.50011305  *   1.22369167  *
    13       H         -0.71909314  *  -2.21462587  *  -0.82330916  *
    14       H         -2.29304610  *   0.37921994  *  -1.25585184  *

                             CARTESIAN COORDINATES

   1    C        1.218386940     0.030782130    -0.463303995
   2    C        0.521750639     1.178395772    -0.654468506
   3    C       -0.672327183     1.100171055     0.259796791
   4    O       -0.220308186     0.256200413     1.317119329
   5    C        0.452008906    -0.756812350     0.567470648
   6    C       -0.852976280    -1.288124375    -0.271102794
   7    O       -2.084063344    -1.036359587     0.350989420
   8    C       -1.632291651    -0.009026269    -0.485590693
   9    H        2.139924012    -0.307848878    -0.911049631
  10    H        0.727362767     2.018977427    -1.299196148
  11    H       -1.195471502     1.983827166     0.642972480
  12    H        0.919836757    -1.500113053     1.223691666
  13    H       -0.719093137    -2.214625868    -0.823309158
  14    H       -2.293046096     0.379219939    -1.255851835


           Empirical Formula: C6 H6 O2  =    14 atoms



      MOLECULAR POINT GROUP   :   Cs  


          ALPHA EIGENVALUES  
 -40.74782 -37.95067 -33.52424 -31.04421 -30.65363 -26.64502 -26.63277 -24.85619
 -24.02036 -22.92270 -22.14028 -21.54237 -19.84512 -19.59827 -19.37940 -18.89518
 -18.76924 -17.92730 -17.58829 -16.58170 -15.55800  -5.16466  -4.68436  -4.24234
  -3.87460  -3.42363  -3.25061  -2.77103  -2.05125  -2.01728  -1.60308  -0.31373
  -0.28180  -0.16506   0.04760   0.30306   0.99541   1.10158


           BETA EIGENVALUES 
 -39.86240 -37.05822 -32.92635 -30.96909 -30.00118 -26.49366 -26.26583 -24.79662
 -23.74297 -22.64227 -21.82364 -21.30679 -19.72799 -19.42684 -19.07084 -18.68171
 -17.77164 -17.68918 -16.69470 -15.63536  -8.68212  -5.03721  -4.28099  -4.12590
  -3.59577  -3.21840  -3.08836  -2.65571  -1.96129  -1.94602  -1.56651  -0.25355
  -0.24567  -0.14697   0.07082   0.32053   1.00641   1.10791


              NET ATOMIC CHARGES AND DIPOLE CONTRIBUTIONS

  ATOM NO.   TYPE          CHARGE      No. of ELECS.   s-Pop       p-Pop       
    1          C          -0.127886        4.1279     1.12075     3.00713
    2          C          -0.130460        4.1305     1.12045     3.01001
    3          C           0.078297        3.9217     1.14406     2.77764
    4          O          -0.171549        6.1715     1.90179     4.26976
    5          C           0.075469        3.9245     1.14312     2.78141
    6          C          -0.068040        4.0680     1.15826     2.90978
    7          O           0.087598        5.9124     1.92141     3.99099
    8          C          -0.068484        4.0685     1.15940     2.90908
    9          H           0.211403        0.7886     0.78860
   10          H           0.211552        0.7884     0.78845
   11          H           0.217055        0.7829     0.78294
   12          H           0.217215        0.7828     0.78279
   13          H           0.233692        0.7663     0.76631
   14          H           0.234139        0.7659     0.76586
 DIPOLE           X         Y         Z       TOTAL
 POINT-CHG.     0.328    -0.264    -2.835     2.866
 HYBRID        -0.830    -0.390     0.677     1.140
 SUM           -0.502    -0.653    -2.158     2.310


          ATOMIC ORBITAL ELECTRON POPULATIONS

     Atom    s        px        py        pz   
    1  C   1.12075   1.04471   0.96417   0.99825
    2  C   1.12045   0.93235   1.05405   1.02362
    3  C   1.14406   0.94748   0.97287   0.85730
    4  O   1.90179   1.62585   1.36294   1.28096
    5  C   1.14312   0.91810   0.92769   0.93562
    6  C   1.15826   0.86674   1.07381   0.96923
    7  O   1.92141   1.27451   1.33644   1.38004
    8  C   1.15940   1.04311   0.88613   0.97983
    9  H   0.78860
   10  H   0.78845
   11  H   0.78294
   12  H   0.78279
   13  H   0.76631
   14  H   0.76586


                    (SZ)    =    0.500000
                    (S**2)  =    0.763951


          ATOMIC ORBITAL SPIN POPULATIONS

    Atom   Total    s     px     py     pz   
         Atomic
    1  C  0.0420  0.001  0.020  0.017  0.004
    2  C  0.0374  0.001  0.027  0.006  0.004
    3  C  0.0215 -0.006  0.010  0.008  0.009
    4  O  0.2236  0.005  0.114  0.063  0.042
    5  C  0.0185 -0.006  0.013 -0.001  0.013
    6  C  0.0775 -0.004  0.013 -0.006  0.075
    7  O  0.4681  0.009  0.085  0.083  0.291
    8  C  0.0808 -0.004 -0.016  0.047  0.054
    9  H -0.0011 -0.001
   10  H -0.0010 -0.001
   11  H  0.0067  0.007
   12  H  0.0066  0.007
   13  H  0.0094  0.009
   14  H  0.0100  0.010

 **********************
 *                    *
 * JOB ENDED NORMALLY *
 *                    *
 **********************



 TOTAL JOB TIME:             1.66 SECONDS

 == MOPAC DONE ==
