 *******************************************************************************
 **                                                                           **
 **                              MOPAC v23.2                                  **
 **                                                                           **
 *******************************************************************************
 **          Digital Object Identifier (DOI): 10.5281/zenodo.6511958          **
 **    Visit the DOI location for information on how to cite this program.    **
 *******************************************************************************

                              PM7 CALCULATION RESULTS

 *******************************************************************************
 *  CALCULATION DONE: (MAX THREADS = 40)             Fri Sep 19 21:30:20 2025  *
 *  PM7        - The PM7 Hamiltonian to be used
 *
 *
 *
 *                 CHARGE ON SYSTEM = +1
 *
 *
 *
 *  1SCF       - DO 1 SCF AND THEN STOP 
 *  T=         - A TIME OF 172800.0 SECONDS REQUESTED
 *  DUMP=N     - RESTART FILE WRITTEN EVERY 7200.0 SECONDS REQUESTED
 *  RELSCF     - DEFAULT SCF CRITERION MULTIPLIED BY 0.0001
 *              (DEFAULT SCF CRITERION = 0.00010)
 *  GRADIENTS  - ALL GRADIENTS TO BE PRINTED
 *  DISP       - PRINT DISPERSION AND HYDROGEN BOND ENERGIES
 *******************************************************************************
PM7 1SCF GRADIENTS DISP RELSCF=0.0001 CHARGE=1
 Title: ASE calculation

   ATOM   CHEMICAL          X               Y               Z
  NUMBER   SYMBOL      (ANGSTROMS)     (ANGSTROMS)     (ANGSTROMS)

     1       C         -2.67193147  *   1.42249159  *  -0.18647697  *
     2       C         -1.59527763  *   0.40783423  *  -0.07240971  *
     3       C         -1.97446090  *  -1.10057079  *  -0.00895016  *
     4       C         -0.54753941  *  -1.74031790  *   0.10268331  *
     5       C          0.31405108  *  -0.45100048  *   0.07690924  *
     6       C          1.77023798  *  -0.56684854  *   0.16147911  *
     7       O          2.34774072  *   0.66116433  *   0.12279563  *
     8       C         -0.50556546  *   0.48982798  *   1.06721153  *
     9       C         -0.39027304  *   0.36977852  *  -1.09205634  *
    10       H         -3.27539524  *   1.28065427  *  -1.09809172  *
    11       H         -3.37082516  *   1.37791680  *   0.66493780  *
    12       H         -2.28073153  *   2.45040559  *  -0.22206833  *
    13       H         -2.61183861  *  -1.33630077  *   0.85475794  *
    14       H         -2.51769363  *  -1.43377097  *  -0.90431394  *
    15       H         -0.43098305  *  -2.31995954  *   1.02849275  *
    16       H         -0.33702359  *  -2.41781304  *  -0.73598578  *
    17       H          2.15536973  *  -1.20610821  *   1.04759598  *
    18       H          2.24232353  *  -1.29726700  *  -0.60477338  *
    19       H          3.37235581  *   0.60165417  *   0.18294669  *
    20       H         -0.08190260  *   1.47997208  *   1.22954175  *
    21       H         -0.76653775  *   0.04218612  *   2.02611895  *
    22       H         -0.55092725  *  -0.18217761  *  -2.01808581  *
    23       H          0.05388598  *   1.33848831  *  -1.31694107  *



          CARTESIAN COORDINATES 

    NO.       ATOM           X           Y           Z

     1         C         -2.6719      1.4225     -0.1865
     2         C         -1.5953      0.4078     -0.0724
     3         C         -1.9745     -1.1006     -0.0090
     4         C         -0.5475     -1.7403      0.1027
     5         C          0.3141     -0.4510      0.0769
     6         C          1.7702     -0.5668      0.1615
     7         O          2.3477      0.6612      0.1228
     8         C         -0.5056      0.4898      1.0672
     9         C         -0.3903      0.3698     -1.0921
    10         H         -3.2754      1.2807     -1.0981
    11         H         -3.3708      1.3779      0.6649
    12         H         -2.2807      2.4504     -0.2221
    13         H         -2.6118     -1.3363      0.8548
    14         H         -2.5177     -1.4338     -0.9043
    15         H         -0.4310     -2.3200      1.0285
    16         H         -0.3370     -2.4178     -0.7360
    17         H          2.1554     -1.2061      1.0476
    18         H          2.2423     -1.2973     -0.6048
    19         H          3.3724      0.6017      0.1829
    20         H         -0.0819      1.4800      1.2295
    21         H         -0.7665      0.0422      2.0261
    22         H         -0.5509     -0.1822     -2.0181
    23         H          0.0539      1.3385     -1.3169

 General Reference for PM7:
 "Optimization of Parameters for Semiempirical Methods VI: More Modifications to the 
 NDDO Approximations and Re-optimization of Parameters", J. J. P. Stewart, J. Mol. Mod., 1:32, 19 (2013)
 https://link.springer.com/article/10.1007/s00894-012-1667-x

           Empirical Formula: C8 H14 O  =    23 atoms



      MOLECULAR POINT GROUP   :   Cs  


          UHF CALCULATION, NO. OF ALPHA ELECTRONS =   26
                           NO. OF BETA  ELECTRONS =   25
  SCF CRITERION =    0.1000E-07

 -------------------------------------------------------------------------------
 PM7 1SCF GRADIENTS DISP RELSCF=0.0001 CHARGE=1
 Title: ASE calculation



     1SCF WAS SPECIFIED, SO BFGS WAS NOT USED                 
     SCF FIELD WAS ACHIEVED                                   


                              PM7 CALCULATION
                                                       MOPAC v23.2 Linux
                                                       Fri Sep 19 21:30:21 2025




          FINAL HEAT OF FORMATION =        195.22857 KCAL/MOL =     816.83632 KJ/MOL

          TOTAL ENERGY            =     -33584.82517 KCAL/MOL = ELECTRONIC ENERGY + CORE-CORE REPULSION
          ENERGY OF ATOMS         =      33782.22825 KCAL/MOL
                              SUM =        197.40308 KCAL/MOL
          DISPERSION ENERGY       =         -2.17451 KCAL/MOL
                              SUM =        195.22857 KCAL/MOL = FINAL HEAT OF FORMATION



          TOTAL ENERGY            =      -1456.37586 EV
          ELECTRONIC ENERGY       =      -7930.12517 EV 
          CORE-CORE REPULSION     =       6473.74931 EV
          COSMO AREA              =        171.90 SQUARE ANGSTROMS
          COSMO VOLUME            =        178.42 CUBIC ANGSTROMS

          GRADIENT NORM           =          0.92501          =       0.19288 PER ATOM
          IONIZATION POTENTIAL    =         14.602646 EV
          ALPHA SOMO LUMO (EV)    =        -14.617 -4.485
          BETA  SOMO LUMO (EV)    =        -14.603 -8.877
          NO. OF ALPHA ELECTRONS  =         26
          NO. OF BETA  ELECTRONS  =         25
          MOLECULAR WEIGHT        =        126.1980         POINT GROUP:  Cs  

          MOLECULAR DIMENSIONS (Angstroms)

            Atom       Atom       Distance
            H    19    H    11     6.80481
            H    12    H    15     4.74386
            H    22    H    21     3.89305


          SCF CALCULATIONS        =          1

          WALL-CLOCK TIME         =      1.062 SECONDS
          COMPUTATION TIME        =      0.695 SECONDS

          LARGEST ATOMIC GRADIENTS

          Atom     Label                     Cartesian Gradients           Cartesian Coordinates       |Gradient|
                                           X          Y          Z        X          Y          Z

            19       H                  -0.195     -0.312     -0.017    3.37236    0.60165    0.18295      0.368
             5       C                   0.119      0.316     -0.004    0.31405   -0.45100    0.07691      0.337
             4       C                   0.159      0.239     -0.004   -0.54754   -1.74032    0.10268      0.287
            16       H                   0.160     -0.023      0.174   -0.33702   -2.41781   -0.73599      0.238
            15       H                   0.174     -0.042     -0.151   -0.43098   -2.31996    1.02849      0.235
            17       H                  -0.089      0.055      0.187    2.15537   -1.20611    1.04760      0.215
            18       H                  -0.057      0.040     -0.198    2.24232   -1.29727   -0.60477      0.210
             3       C                  -0.086      0.157     -0.013   -1.97446   -1.10057   -0.00895      0.180
            22       H                  -0.090     -0.125      0.087   -0.55093   -0.18218   -2.01809      0.177
            21       H                  -0.084     -0.129     -0.081   -0.76654    0.04219    2.02612      0.174



       FINAL  POINT  AND  DERIVATIVES

   PARAMETER     ATOM    TYPE            VALUE        GRADIENT
      1          1  C    CARTESIAN X    -2.671931      0.000722  KCAL/ANGSTROM
      2          1  C    CARTESIAN Y     1.422492      0.153809  KCAL/ANGSTROM
      3          1  C    CARTESIAN Z    -0.186477     -0.009033  KCAL/ANGSTROM
      4          2  C    CARTESIAN X    -1.595278     -0.037227  KCAL/ANGSTROM
      5          2  C    CARTESIAN Y     0.407834      0.085646  KCAL/ANGSTROM
      6          2  C    CARTESIAN Z    -0.072410     -0.007248  KCAL/ANGSTROM
      7          3  C    CARTESIAN X    -1.974461     -0.086479  KCAL/ANGSTROM
      8          3  C    CARTESIAN Y    -1.100571      0.157090  KCAL/ANGSTROM
      9          3  C    CARTESIAN Z    -0.008950     -0.012960  KCAL/ANGSTROM
     10          4  C    CARTESIAN X    -0.547539      0.159195  KCAL/ANGSTROM
     11          4  C    CARTESIAN Y    -1.740318      0.239284  KCAL/ANGSTROM
     12          4  C    CARTESIAN Z     0.102683     -0.003572  KCAL/ANGSTROM
     13          5  C    CARTESIAN X     0.314051      0.118690  KCAL/ANGSTROM
     14          5  C    CARTESIAN Y    -0.451000      0.315782  KCAL/ANGSTROM
     15          5  C    CARTESIAN Z     0.076909     -0.004034  KCAL/ANGSTROM
     16          6  C    CARTESIAN X     1.770238      0.168717  KCAL/ANGSTROM
     17          6  C    CARTESIAN Y    -0.566849     -0.021099  KCAL/ANGSTROM
     18          6  C    CARTESIAN Z     0.161479      0.003547  KCAL/ANGSTROM
     19          7  O    CARTESIAN X     2.347741     -0.043796  KCAL/ANGSTROM
     20          7  O    CARTESIAN Y     0.661164      0.055966  KCAL/ANGSTROM
     21          7  O    CARTESIAN Z     0.122796      0.016860  KCAL/ANGSTROM
     22          8  C    CARTESIAN X    -0.505565      0.116279  KCAL/ANGSTROM
     23          8  C    CARTESIAN Y     0.489828     -0.095873  KCAL/ANGSTROM
     24          8  C    CARTESIAN Z     1.067212      0.009031  KCAL/ANGSTROM
     25          9  C    CARTESIAN X    -0.390273      0.113687  KCAL/ANGSTROM
     26          9  C    CARTESIAN Y     0.369779     -0.095188  KCAL/ANGSTROM
     27          9  C    CARTESIAN Z    -1.092056      0.011718  KCAL/ANGSTROM
     28         10  H    CARTESIAN X    -3.275395     -0.009907  KCAL/ANGSTROM
     29         10  H    CARTESIAN Y     1.280654     -0.026408  KCAL/ANGSTROM
     30         10  H    CARTESIAN Z    -1.098092     -0.005102  KCAL/ANGSTROM
     31         11  H    CARTESIAN X    -3.370825     -0.006361  KCAL/ANGSTROM
     32         11  H    CARTESIAN Y     1.377917     -0.020552  KCAL/ANGSTROM
     33         11  H    CARTESIAN Z     0.664938      0.009765  KCAL/ANGSTROM
     34         12  H    CARTESIAN X    -2.280732     -0.004619  KCAL/ANGSTROM
     35         12  H    CARTESIAN Y     2.450406      0.166467  KCAL/ANGSTROM
     36         12  H    CARTESIAN Z    -0.222068     -0.013967  KCAL/ANGSTROM
     37         13  H    CARTESIAN X    -2.611839     -0.035106  KCAL/ANGSTROM
     38         13  H    CARTESIAN Y    -1.336301     -0.069891  KCAL/ANGSTROM
     39         13  H    CARTESIAN Z     0.854758      0.087827  KCAL/ANGSTROM
     40         14  H    CARTESIAN X    -2.517694     -0.024833  KCAL/ANGSTROM
     41         14  H    CARTESIAN Y    -1.433771     -0.080481  KCAL/ANGSTROM
     42         14  H    CARTESIAN Z    -0.904314     -0.081968  KCAL/ANGSTROM
     43         15  H    CARTESIAN X    -0.430983      0.174387  KCAL/ANGSTROM
     44         15  H    CARTESIAN Y    -2.319960     -0.041991  KCAL/ANGSTROM
     45         15  H    CARTESIAN Z     1.028493     -0.151263  KCAL/ANGSTROM
     46         16  H    CARTESIAN X    -0.337024      0.159791  KCAL/ANGSTROM
     47         16  H    CARTESIAN Y    -2.417813     -0.022889  KCAL/ANGSTROM
     48         16  H    CARTESIAN Z    -0.735986      0.174256  KCAL/ANGSTROM
     49         17  H    CARTESIAN X     2.155370     -0.089348  KCAL/ANGSTROM
     50         17  H    CARTESIAN Y    -1.206108      0.055462  KCAL/ANGSTROM
     51         17  H    CARTESIAN Z     1.047596      0.187445  KCAL/ANGSTROM
     52         18  H    CARTESIAN X     2.242324     -0.056792  KCAL/ANGSTROM
     53         18  H    CARTESIAN Y    -1.297267      0.039510  KCAL/ANGSTROM
     54         18  H    CARTESIAN Z    -0.604773     -0.197819  KCAL/ANGSTROM
     55         19  H    CARTESIAN X     3.372356     -0.194912  KCAL/ANGSTROM
     56         19  H    CARTESIAN Y     0.601654     -0.312085  KCAL/ANGSTROM
     57         19  H    CARTESIAN Z     0.182947     -0.017261  KCAL/ANGSTROM
     58         20  H    CARTESIAN X    -0.081903     -0.125576  KCAL/ANGSTROM
     59         20  H    CARTESIAN Y     1.479972     -0.111226  KCAL/ANGSTROM
     60         20  H    CARTESIAN Z     1.229542      0.034757  KCAL/ANGSTROM
     61         21  H    CARTESIAN X    -0.766538     -0.084098  KCAL/ANGSTROM
     62         21  H    CARTESIAN Y     0.042186     -0.129467  KCAL/ANGSTROM
     63         21  H    CARTESIAN Z     2.026119     -0.081219  KCAL/ANGSTROM
     64         22  H    CARTESIAN X    -0.550927     -0.090304  KCAL/ANGSTROM
     65         22  H    CARTESIAN Y    -0.182178     -0.125336  KCAL/ANGSTROM
     66         22  H    CARTESIAN Z    -2.018086      0.086624  KCAL/ANGSTROM
     67         23  H    CARTESIAN X     0.053886     -0.122111  KCAL/ANGSTROM
     68         23  H    CARTESIAN Y     1.338488     -0.116535  KCAL/ANGSTROM
     69         23  H    CARTESIAN Z    -1.316941     -0.036389  KCAL/ANGSTROM




   ATOM   CHEMICAL          X               Y               Z
  NUMBER   SYMBOL      (ANGSTROMS)     (ANGSTROMS)     (ANGSTROMS)

     1       C         -2.67193147  *   1.42249159  *  -0.18647697  *
     2       C         -1.59527763  *   0.40783423  *  -0.07240971  *
     3       C         -1.97446090  *  -1.10057079  *  -0.00895016  *
     4       C         -0.54753941  *  -1.74031790  *   0.10268331  *
     5       C          0.31405108  *  -0.45100048  *   0.07690924  *
     6       C          1.77023798  *  -0.56684854  *   0.16147911  *
     7       O          2.34774072  *   0.66116433  *   0.12279563  *
     8       C         -0.50556546  *   0.48982798  *   1.06721153  *
     9       C         -0.39027304  *   0.36977852  *  -1.09205634  *
    10       H         -3.27539524  *   1.28065427  *  -1.09809172  *
    11       H         -3.37082516  *   1.37791680  *   0.66493780  *
    12       H         -2.28073153  *   2.45040559  *  -0.22206833  *
    13       H         -2.61183861  *  -1.33630077  *   0.85475794  *
    14       H         -2.51769363  *  -1.43377097  *  -0.90431394  *
    15       H         -0.43098305  *  -2.31995954  *   1.02849275  *
    16       H         -0.33702359  *  -2.41781304  *  -0.73598578  *
    17       H          2.15536973  *  -1.20610821  *   1.04759598  *
    18       H          2.24232353  *  -1.29726700  *  -0.60477338  *
    19       H          3.37235581  *   0.60165417  *   0.18294669  *
    20       H         -0.08190260  *   1.47997208  *   1.22954175  *
    21       H         -0.76653775  *   0.04218612  *   2.02611895  *
    22       H         -0.55092725  *  -0.18217761  *  -2.01808581  *
    23       H          0.05388598  *   1.33848831  *  -1.31694107  *

                             CARTESIAN COORDINATES

   1    C       -2.671931473     1.422491589    -0.186476972
   2    C       -1.595277628     0.407834227    -0.072409708
   3    C       -1.974460902    -1.100570792    -0.008950163
   4    C       -0.547539411    -1.740317901     0.102683309
   5    C        0.314051080    -0.451000480     0.076909240
   6    C        1.770237980    -0.566848536     0.161479113
   7    O        2.347740724     0.661164327     0.122795626
   8    C       -0.505565458     0.489827979     1.067211530
   9    C       -0.390273044     0.369778520    -1.092056343
  10    H       -3.275395244     1.280654272    -1.098091719
  11    H       -3.370825156     1.377916797     0.664937795
  12    H       -2.280731530     2.450405589    -0.222068334
  13    H       -2.611838614    -1.336300769     0.854757937
  14    H       -2.517693633    -1.433770971    -0.904313937
  15    H       -0.430983053    -2.319959544     1.028492751
  16    H       -0.337023589    -2.417813036    -0.735985775
  17    H        2.155369732    -1.206108207     1.047595980
  18    H        2.242323532    -1.297266999    -0.604773383
  19    H        3.372355810     0.601654170     0.182946694
  20    H       -0.081902598     1.479972075     1.229541753
  21    H       -0.766537749     0.042186118     2.026118955
  22    H       -0.550927251    -0.182177608    -2.018085814
  23    H        0.053885980     1.338488309    -1.316941069


           Empirical Formula: C8 H14 O  =    23 atoms



      MOLECULAR POINT GROUP   :   Cs  


          ALPHA EIGENVALUES  
 -38.80921 -36.37720 -31.73805 -29.40354 -28.56522 -27.01582 -25.55098 -24.99322
 -22.94519 -22.16636 -22.05093 -20.81023 -19.82513 -19.55112 -19.37186 -18.54544
 -17.63219 -17.17601 -16.77437 -16.57156 -16.28805 -16.17403 -15.55095 -15.28215
 -14.81170 -14.61670  -4.48509  -2.31507  -1.90782  -1.41639  -1.22957  -1.11526
  -0.83166  -0.50444  -0.37840  -0.02676   0.78140   1.11694   1.33941   1.64608
   1.98295   2.06233   2.43889   2.53812   2.58805   2.60826   2.73123   2.76587
   3.19278   3.90939


           BETA EIGENVALUES 
 -37.03018 -36.15373 -31.28155 -29.34798 -28.44492 -26.94933 -25.45619 -24.60665
 -22.83228 -22.00443 -20.77289 -20.53074 -19.75261 -19.46695 -19.12022 -18.00710
 -17.15291 -16.76795 -16.55383 -16.27595 -16.20465 -15.52604 -15.17200 -14.79410
 -14.60265  -8.87675  -4.01098  -1.85606  -1.76685  -1.22290  -1.06851  -0.99587
  -0.70983  -0.48098  -0.34986  -0.02590   0.79069   1.12391   1.33984   1.65049
   1.99571   2.07867   2.44251   2.53879   2.59284   2.61170   2.73125   2.76611
   3.19274   3.90944


              NET ATOMIC CHARGES AND DIPOLE CONTRIBUTIONS

  ATOM NO.   TYPE          CHARGE      No. of ELECS.   s-Pop       p-Pop       
    1          C          -0.468249        4.4682     1.04835     3.41990
    2          C           0.105986        3.8940     1.07464     2.81937
    3          C          -0.281171        4.2812     1.07656     3.20461
    4          C          -0.275679        4.2757     1.07464     3.20104
    5          C          -0.085132        4.0851     1.08157     3.00356
    6          C          -0.092076        4.0921     1.10985     2.98223
    7          O          -0.048581        6.0486     1.87082     4.17776
    8          C          -0.268435        4.2684     1.09625     3.17219
    9          C          -0.268944        4.2689     1.09610     3.17285
   10          H           0.176963        0.8230     0.82304
   11          H           0.176973        0.8230     0.82303
   12          H           0.167649        0.8324     0.83235
   13          H           0.164246        0.8358     0.83575
   14          H           0.164236        0.8358     0.83576
   15          H           0.155585        0.8444     0.84442
   16          H           0.155562        0.8444     0.84444
   17          H           0.274473        0.7255     0.72553
   18          H           0.275269        0.7247     0.72473
   19          H           0.329136        0.6709     0.67086
   20          H           0.156523        0.8435     0.84348
   21          H           0.164552        0.8354     0.83545
   22          H           0.164561        0.8354     0.83544
   23          H           0.156553        0.8434     0.84345
 DIPOLE           X         Y         Z       TOTAL
 POINT-CHG.     7.708    -1.674     0.504     7.903
 HYBRID         1.314    -0.076     0.074     1.318
 SUM            9.021    -1.750     0.578     9.208


          ATOMIC ORBITAL ELECTRON POPULATIONS

     Atom    s        px        py        pz   
    1  C   1.04835   1.10406   1.11095   1.20489
    2  C   1.07464   0.92599   0.97018   0.92320
    3  C   1.07656   1.00994   1.00331   1.19137
    4  C   1.07464   1.01682   1.00708   1.17713
    5  C   1.08157   0.87901   1.05935   1.06520
    6  C   1.10985   1.05733   0.87253   1.05237
    7  O   1.87082   1.35199   1.32652   1.49925
    8  C   1.09625   1.03528   1.08453   1.05238
    9  C   1.09610   1.04558   1.10562   1.02165
   10  H   0.82304
   11  H   0.82303
   12  H   0.83235
   13  H   0.83575
   14  H   0.83576
   15  H   0.84442
   16  H   0.84444
   17  H   0.72553
   18  H   0.72473
   19  H   0.67086
   20  H   0.84348
   21  H   0.83545
   22  H   0.83544
   23  H   0.84345


                    (SZ)    =    0.500000
                    (S**2)  =    0.756681


          ATOMIC ORBITAL SPIN POPULATIONS

    Atom   Total    s     px     py     pz   
         Atomic
    1  C  0.0002  0.000  0.000  0.000  0.000
    2  C -0.0051 -0.001 -0.001 -0.000 -0.003
    3  C  0.0001  0.000 -0.000  0.000  0.000
    4  C -0.0032 -0.000 -0.001 -0.002  0.000
    5  C  0.0240 -0.002 -0.004 -0.004  0.033
    6  C  0.0913 -0.011 -0.009 -0.030  0.142
    7  O  0.5358  0.016  0.024  0.014  0.482
    8  C  0.0505  0.003  0.018  0.012  0.017
    9  C  0.0498  0.003  0.014  0.009  0.023
   10  H -0.0000 -0.000
   11  H -0.0000 -0.000
   12  H -0.0000 -0.000
   13  H -0.0001 -0.000
   14  H -0.0001 -0.000
   15  H  0.0015  0.001
   16  H  0.0015  0.001
   17  H  0.1385  0.138
   18  H  0.1400  0.140
   19  H -0.0264 -0.026
   20  H -0.0012 -0.001
   21  H  0.0020  0.002
   22  H  0.0020  0.002
   23  H -0.0011 -0.001

 **********************
 *                    *
 * JOB ENDED NORMALLY *
 *                    *
 **********************



 TOTAL JOB TIME:             1.45 SECONDS

 == MOPAC DONE ==
