 *******************************************************************************
 **                                                                           **
 **                              MOPAC v23.2                                  **
 **                                                                           **
 *******************************************************************************
 **          Digital Object Identifier (DOI): 10.5281/zenodo.6511958          **
 **    Visit the DOI location for information on how to cite this program.    **
 *******************************************************************************

                              PM7 CALCULATION RESULTS

 *******************************************************************************
 *  CALCULATION DONE: (MAX THREADS = 40)             Fri Sep 19 22:04:19 2025  *
 *  PM7        - The PM7 Hamiltonian to be used
 *  EPS=37.5   - USE ANDREAS KLAMT'S COSMO IMPLICIT SOLVATION MODEL
 *  1SCF       - DO 1 SCF AND THEN STOP 
 *  T=         - A TIME OF 172800.0 SECONDS REQUESTED
 *  DUMP=N     - RESTART FILE WRITTEN EVERY 7200.0 SECONDS REQUESTED
 *  RELSCF     - DEFAULT SCF CRITERION MULTIPLIED BY 0.0001
 *              (DEFAULT SCF CRITERION = 0.00010)
 *  GRADIENTS  - ALL GRADIENTS TO BE PRINTED
 *  DISP       - PRINT DISPERSION AND HYDROGEN BOND ENERGIES
 *******************************************************************************
PM7 1SCF GRADIENTS EPS=37.5 DISP RELSCF=0.0001
 Title: ASE calculation

   ATOM   CHEMICAL          X               Y               Z
  NUMBER   SYMBOL      (ANGSTROMS)     (ANGSTROMS)     (ANGSTROMS)

     1       C         -3.26573909  *  -1.27921515  *  -0.25392159  *
     2       C         -2.58455422  *   0.09821660  *  -0.34064060  *
     3       C         -2.80530209  *   0.88986028  *   0.96078272  *
     4       C         -1.18317311  *  -0.05864574  *  -0.59226971  *
     5       C          0.06671730  *  -0.19652293  *  -0.82472713  *
     6       C          1.46055417  *  -0.34674538  *  -1.08442219  *
     7       C          2.23033161  *  -0.63281472  *   0.21564873  *
     8       C          3.70264385  *  -0.79341096  *  -0.04804976  *
     9       O          4.17518986  *  -0.70162040  *  -1.15318488  *
    10       H         -3.12599289  *  -1.84685068  *  -1.18117237  *
    11       H         -4.34141778  *  -1.17579934  *  -0.07870941  *
    12       H         -2.84919123  *  -1.87871118  *   0.56311558  *
    13       H         -3.04950024  *   0.67323683  *  -1.19102814  *
    14       H         -2.37322762  *   0.36848457  *   1.82203579  *
    15       H         -2.33597575  *   1.87871118  *   0.90560242  *
    16       H         -3.87297492  *   1.03229535  *   1.15737451  *
    17       H          1.87878084  *   0.56599950  *  -1.57796049  *
    18       H          1.64649404  *  -1.16701985  *  -1.82203579  *
    19       H          2.06070397  *   0.18621912  *   0.94528084  *
    20       H          1.82818060  *  -1.54607924  *   0.70150941  *
    21       H          4.34141778  *  -1.00129973  *   0.82036871  *



          CARTESIAN COORDINATES 

    NO.       ATOM           X           Y           Z

     1         C         -3.2657     -1.2792     -0.2539
     2         C         -2.5846      0.0982     -0.3406
     3         C         -2.8053      0.8899      0.9608
     4         C         -1.1832     -0.0586     -0.5923
     5         C          0.0667     -0.1965     -0.8247
     6         C          1.4606     -0.3467     -1.0844
     7         C          2.2303     -0.6328      0.2156
     8         C          3.7026     -0.7934     -0.0480
     9         O          4.1752     -0.7016     -1.1532
    10         H         -3.1260     -1.8469     -1.1812
    11         H         -4.3414     -1.1758     -0.0787
    12         H         -2.8492     -1.8787      0.5631
    13         H         -3.0495      0.6732     -1.1910
    14         H         -2.3732      0.3685      1.8220
    15         H         -2.3360      1.8787      0.9056
    16         H         -3.8730      1.0323      1.1574
    17         H          1.8788      0.5660     -1.5780
    18         H          1.6465     -1.1670     -1.8220
    19         H          2.0607      0.1862      0.9453
    20         H          1.8282     -1.5461      0.7015
    21         H          4.3414     -1.0013      0.8204

 General Reference for PM7:
 "Optimization of Parameters for Semiempirical Methods VI: More Modifications to the 
 NDDO Approximations and Re-optimization of Parameters", J. J. P. Stewart, J. Mol. Mod., 1:32, 19 (2013)
 https://link.springer.com/article/10.1007/s00894-012-1667-x

           Empirical Formula: C8 H12 O  =    21 atoms



      MOLECULAR POINT GROUP   :   C1  


      RHF CALCULATION, NO. OF DOUBLY OCCUPIED LEVELS = 25

  SCF CRITERION =    0.1000E-07

 -------------------------------------------------------------------------------
 PM7 1SCF GRADIENTS EPS=37.5 DISP RELSCF=0.0001
 Title: ASE calculation



     1SCF WAS SPECIFIED, SO BFGS WAS NOT USED                 
     SCF FIELD WAS ACHIEVED                                   


                              PM7 CALCULATION
                                                       MOPAC v23.2 Linux
                                                       Fri Sep 19 22:04:20 2025




          FINAL HEAT OF FORMATION =        -13.75425 KCAL/MOL =     -57.54778 KJ/MOL

          TOTAL ENERGY            =     -33185.56836 KCAL/MOL = ELECTRONIC ENERGY + CORE-CORE REPULSION + SOLVATION ENERGY
          ENERGY OF ATOMS         =      33167.45855 KCAL/MOL
                              SUM =        -18.10981 KCAL/MOL
          DISPERSION ENERGY       =         -1.66115 KCAL/MOL
                              SUM =        -19.77096 KCAL/MOL = FINAL HEAT OF FORMATION

     *    WARNING - An energy term is incorrect or missing!

     *    FINAL HEAT OF FORMATION     =    -13.75425 KCAL/MOL
     *    SUM OF CONTRIBUTIONS TO HoF =    -19.77096 KCAL/MOL
     *                     DIFFERENCE =      6.01671 KCAL/MOL

          VAN DER WAALS AREA      =        188.60 SQUARE ANGSTROMS


          TOTAL ENERGY            =      -1439.06245 EV
          ELECTRONIC ENERGY       =      -1901.29018 EV 
          CORE-CORE REPULSION     =        462.22773 EV

          DIELECTRIC ENERGY       =         -0.40372 EV
          COSMO AREA              =        188.60 SQUARE ANGSTROMS
          COSMO VOLUME            =        179.95 CUBIC ANGSTROMS

          GRADIENT NORM           =         23.47741          =       5.12319 PER ATOM
          IONIZATION POTENTIAL    =          9.949046 EV
          HOMO LUMO ENERGIES (EV) =         -9.949  0.539
          NO. OF FILLED LEVELS    =         25
          MOLECULAR WEIGHT        =        124.1822         POINT GROUP:  C1  

          MOLECULAR DIMENSIONS (Angstroms)

            Atom       Atom       Distance
            H    21    H    11     8.73100
            H    15    H    18     4.41375
            H    17    H    12     3.51509


          SCF CALCULATIONS        =          2

          WALL-CLOCK TIME         =      0.422 SECONDS
          COMPUTATION TIME        =      1.021 SECONDS

          LARGEST ATOMIC GRADIENTS

          Atom     Label                     Cartesian Gradients           Cartesian Coordinates       |Gradient|
                                           X          Y          Z        X          Y          Z

             8       C                  10.364      0.686    -14.419    3.70264   -0.79341   -0.04805     17.771
             9       O                  -5.088     -0.850     10.795    4.17519   -0.70162   -1.15318     11.964
             7       C                  -3.354     -0.643      7.383    2.23033   -0.63281    0.21565      8.135
            20       H                  -0.649      1.064     -1.899    1.82818   -1.54608    0.70151      2.271
            19       H                  -0.802     -0.206     -1.994    2.06070    0.18622    0.94528      2.159
             3       C                  -1.334      0.620      1.170   -2.80530    0.88986    0.96078      1.880
            21       H                  -1.854      0.210     -0.186    4.34142   -1.00130    0.82037      1.875
             1       C                  -1.680     -0.612      0.527   -3.26574   -1.27922   -0.25392      1.864
            13       H                   0.960     -0.440      0.431   -3.04950    0.67324   -1.19103      1.141
             6       C                   0.856     -0.121     -0.180    1.46055   -0.34675   -1.08442      0.883



       FINAL  POINT  AND  DERIVATIVES

   PARAMETER     ATOM    TYPE            VALUE        GRADIENT
      1          1  C    CARTESIAN X    -3.265739     -1.679871  KCAL/ANGSTROM
      2          1  C    CARTESIAN Y    -1.279215     -0.612080  KCAL/ANGSTROM
      3          1  C    CARTESIAN Z    -0.253922      0.527165  KCAL/ANGSTROM
      4          2  C    CARTESIAN X    -2.584554      0.233194  KCAL/ANGSTROM
      5          2  C    CARTESIAN Y     0.098217      0.282249  KCAL/ANGSTROM
      6          2  C    CARTESIAN Z    -0.340641     -0.588590  KCAL/ANGSTROM
      7          3  C    CARTESIAN X    -2.805302     -1.333828  KCAL/ANGSTROM
      8          3  C    CARTESIAN Y     0.889860      0.620442  KCAL/ANGSTROM
      9          3  C    CARTESIAN Z     0.960783      1.170297  KCAL/ANGSTROM
     10          4  C    CARTESIAN X    -1.183173      0.829539  KCAL/ANGSTROM
     11          4  C    CARTESIAN Y    -0.058646     -0.119296  KCAL/ANGSTROM
     12          4  C    CARTESIAN Z    -0.592270     -0.251856  KCAL/ANGSTROM
     13          5  C    CARTESIAN X     0.066717     -0.593322  KCAL/ANGSTROM
     14          5  C    CARTESIAN Y    -0.196523     -0.024791  KCAL/ANGSTROM
     15          5  C    CARTESIAN Z    -0.824727      0.559410  KCAL/ANGSTROM
     16          6  C    CARTESIAN X     1.460554      0.856031  KCAL/ANGSTROM
     17          6  C    CARTESIAN Y    -0.346745     -0.120972  KCAL/ANGSTROM
     18          6  C    CARTESIAN Z    -1.084422     -0.180019  KCAL/ANGSTROM
     19          7  C    CARTESIAN X     2.230332     -3.353753  KCAL/ANGSTROM
     20          7  C    CARTESIAN Y    -0.632815     -0.643191  KCAL/ANGSTROM
     21          7  C    CARTESIAN Z     0.215649      7.383367  KCAL/ANGSTROM
     22          8  C    CARTESIAN X     3.702644     10.363950  KCAL/ANGSTROM
     23          8  C    CARTESIAN Y    -0.793411      0.686082  KCAL/ANGSTROM
     24          8  C    CARTESIAN Z    -0.048050    -14.419222  KCAL/ANGSTROM
     25          9  O    CARTESIAN X     4.175190     -5.088099  KCAL/ANGSTROM
     26          9  O    CARTESIAN Y    -0.701620     -0.850376  KCAL/ANGSTROM
     27          9  O    CARTESIAN Z    -1.153185     10.794782  KCAL/ANGSTROM
     28         10  H    CARTESIAN X    -3.125993      0.562424  KCAL/ANGSTROM
     29         10  H    CARTESIAN Y    -1.846851      0.281724  KCAL/ANGSTROM
     30         10  H    CARTESIAN Z    -1.181172      0.011626  KCAL/ANGSTROM
     31         11  H    CARTESIAN X    -4.341418      0.430154  KCAL/ANGSTROM
     32         11  H    CARTESIAN Y    -1.175799      0.176739  KCAL/ANGSTROM
     33         11  H    CARTESIAN Z    -0.078709     -0.038529  KCAL/ANGSTROM
     34         12  H    CARTESIAN X    -2.849191      0.284671  KCAL/ANGSTROM
     35         12  H    CARTESIAN Y    -1.878711      0.186198  KCAL/ANGSTROM
     36         12  H    CARTESIAN Z     0.563116     -0.366992  KCAL/ANGSTROM
     37         13  H    CARTESIAN X    -3.049500      0.960292  KCAL/ANGSTROM
     38         13  H    CARTESIAN Y     0.673237     -0.439557  KCAL/ANGSTROM
     39         13  H    CARTESIAN Z    -1.191028      0.431002  KCAL/ANGSTROM
     40         14  H    CARTESIAN X    -2.373228      0.169059  KCAL/ANGSTROM
     41         14  H    CARTESIAN Y     0.368485     -0.001189  KCAL/ANGSTROM
     42         14  H    CARTESIAN Z     1.822036     -0.321180  KCAL/ANGSTROM
     43         15  H    CARTESIAN X    -2.335976      0.329316  KCAL/ANGSTROM
     44         15  H    CARTESIAN Y     1.878711     -0.313180  KCAL/ANGSTROM
     45         15  H    CARTESIAN Z     0.905602     -0.359878  KCAL/ANGSTROM
     46         16  H    CARTESIAN X    -3.872975      0.350905  KCAL/ANGSTROM
     47         16  H    CARTESIAN Y     1.032295     -0.234437  KCAL/ANGSTROM
     48         16  H    CARTESIAN Z     1.157375     -0.278227  KCAL/ANGSTROM
     49         17  H    CARTESIAN X     1.878781     -0.048185  KCAL/ANGSTROM
     50         17  H    CARTESIAN Y     0.565999     -0.241518  KCAL/ANGSTROM
     51         17  H    CARTESIAN Z    -1.577960     -0.031104  KCAL/ANGSTROM
     52         18  H    CARTESIAN X     1.646494      0.032300  KCAL/ANGSTROM
     53         18  H    CARTESIAN Y    -1.167020      0.298992  KCAL/ANGSTROM
     54         18  H    CARTESIAN Z    -1.822036      0.036652  KCAL/ANGSTROM
     55         19  H    CARTESIAN X     2.060704     -0.801668  KCAL/ANGSTROM
     56         19  H    CARTESIAN Y     0.186219     -0.205868  KCAL/ANGSTROM
     57         19  H    CARTESIAN Z     0.945281     -1.994283  KCAL/ANGSTROM
     58         20  H    CARTESIAN X     1.828181     -0.649037  KCAL/ANGSTROM
     59         20  H    CARTESIAN Y    -1.546079      1.063610  KCAL/ANGSTROM
     60         20  H    CARTESIAN Z     0.701509     -1.898816  KCAL/ANGSTROM
     61         21  H    CARTESIAN X     4.341418     -1.854082  KCAL/ANGSTROM
     62         21  H    CARTESIAN Y    -1.001300      0.210415  KCAL/ANGSTROM
     63         21  H    CARTESIAN Z     0.820369     -0.185609  KCAL/ANGSTROM




   ATOM   CHEMICAL          X               Y               Z
  NUMBER   SYMBOL      (ANGSTROMS)     (ANGSTROMS)     (ANGSTROMS)

     1       C         -3.26573909  *  -1.27921515  *  -0.25392159  *
     2       C         -2.58455422  *   0.09821660  *  -0.34064060  *
     3       C         -2.80530209  *   0.88986028  *   0.96078272  *
     4       C         -1.18317311  *  -0.05864574  *  -0.59226971  *
     5       C          0.06671730  *  -0.19652293  *  -0.82472713  *
     6       C          1.46055417  *  -0.34674538  *  -1.08442219  *
     7       C          2.23033161  *  -0.63281472  *   0.21564873  *
     8       C          3.70264385  *  -0.79341096  *  -0.04804976  *
     9       O          4.17518986  *  -0.70162040  *  -1.15318488  *
    10       H         -3.12599289  *  -1.84685068  *  -1.18117237  *
    11       H         -4.34141778  *  -1.17579934  *  -0.07870941  *
    12       H         -2.84919123  *  -1.87871118  *   0.56311558  *
    13       H         -3.04950024  *   0.67323683  *  -1.19102814  *
    14       H         -2.37322762  *   0.36848457  *   1.82203579  *
    15       H         -2.33597575  *   1.87871118  *   0.90560242  *
    16       H         -3.87297492  *   1.03229535  *   1.15737451  *
    17       H          1.87878084  *   0.56599950  *  -1.57796049  *
    18       H          1.64649404  *  -1.16701985  *  -1.82203579  *
    19       H          2.06070397  *   0.18621912  *   0.94528084  *
    20       H          1.82818060  *  -1.54607924  *   0.70150941  *
    21       H          4.34141778  *  -1.00129973  *   0.82036871  *

                             CARTESIAN COORDINATES

   1    C       -3.265739094    -1.279215153    -0.253921591
   2    C       -2.584554216     0.098216601    -0.340640605
   3    C       -2.805302086     0.889860279     0.960782716
   4    C       -1.183173107    -0.058645745    -0.592269706
   5    C        0.066717296    -0.196522931    -0.824727130
   6    C        1.460554168    -0.346745384    -1.084422187
   7    C        2.230331615    -0.632814723     0.215648728
   8    C        3.702643849    -0.793410962    -0.048049763
   9    O        4.175189863    -0.701620402    -1.153184877
  10    H       -3.125992888    -1.846850676    -1.181172368
  11    H       -4.341417779    -1.175799342    -0.078709407
  12    H       -2.849191231    -1.878711181     0.563115580
  13    H       -3.049500236     0.673236828    -1.191028142
  14    H       -2.373227617     0.368484572     1.822035788
  15    H       -2.335975749     1.878711181     0.905602418
  16    H       -3.872974918     1.032295347     1.157374506
  17    H        1.878780838     0.565999498    -1.577960493
  18    H        1.646494036    -1.167019847    -1.822035788
  19    H        2.060703974     0.186219120     0.945280835
  20    H        1.828180595    -1.546079238     0.701509412
  21    H        4.341417779    -1.001299730     0.820368706


           Empirical Formula: C8 H12 O  =    21 atoms



      MOLECULAR POINT GROUP   :   C1  


                  EIGENVALUES  
 -31.31526 -28.97412 -28.30226 -25.20690 -23.98973 -23.49657 -20.80313 -19.81799
 -17.49264 -16.56109 -16.29071 -15.53470 -15.17992 -14.52589 -14.36543 -14.07745
 -13.38132 -13.32909 -12.66483 -12.53866 -12.27773 -12.14363 -10.70464  -9.99655
  -9.94905   0.53868   1.18676   1.23912   3.26403   3.86455   4.00361   4.06606
   4.37747   4.67304   5.00413   5.09913   5.28330   5.57924   5.58731   5.81910
   5.84303   5.87162   5.97377   6.13681   6.18548   6.68661   6.92227   7.01328


              NET ATOMIC CHARGES AND DIPOLE CONTRIBUTIONS

  ATOM NO.   TYPE          CHARGE      No. of ELECS.   s-Pop       p-Pop       
    1          C          -0.449691        4.4497     1.05677     3.39292
    2          C          -0.043711        4.0437     1.03682     3.00689
    3          C          -0.449134        4.4491     1.05669     3.39245
    4          C          -0.116636        4.1166     1.12393     2.99271
    5          C          -0.138887        4.1389     1.11125     3.02764
    6          C          -0.224516        4.2245     1.03597     3.18854
    7          C          -0.389068        4.3891     1.07421     3.31486
    8          C           0.436769        3.5632     1.14918     2.41405
    9          O          -0.574381        6.5744     1.87023     4.70415
   10          H           0.151867        0.8481     0.84813
   11          H           0.153954        0.8460     0.84605
   12          H           0.152743        0.8473     0.84726
   13          H           0.161782        0.8382     0.83822
   14          H           0.151562        0.8484     0.84844
   15          H           0.151382        0.8486     0.84862
   16          H           0.154473        0.8455     0.84553
   17          H           0.177326        0.8227     0.82267
   18          H           0.177924        0.8221     0.82208
   19          H           0.189879        0.8101     0.81012
   20          H           0.191007        0.8090     0.80899
   21          H           0.135358        0.8646     0.86464
 DIPOLE           X         Y         Z       TOTAL
 POINT-CHG.    -2.091    -0.272     3.826     4.369
 HYBRID         0.057    -0.010    -0.187     0.196
 SUM           -2.034    -0.282     3.639     4.178


          ATOMIC ORBITAL ELECTRON POPULATIONS

     Atom    s        px        py        pz   
    1  C   1.05677   1.14939   1.05899   1.18454
    2  C   1.03682   0.94911   1.00987   1.04791
    3  C   1.05669   1.17792   1.13990   1.07462
    4  C   1.12393   0.97393   1.02244   0.99634
    5  C   1.11125   0.96671   1.02188   1.03904
    6  C   1.03597   0.96025   1.18319   1.04511
    7  C   1.07421   1.03804   1.19600   1.08082
    8  C   1.14918   0.93190   0.60292   0.87923
    9  O   1.87023   1.82065   1.47010   1.41340
   10  H   0.84813
   11  H   0.84605
   12  H   0.84726
   13  H   0.83822
   14  H   0.84844
   15  H   0.84862
   16  H   0.84553
   17  H   0.82267
   18  H   0.82208
   19  H   0.81012
   20  H   0.80899
   21  H   0.86464

 **********************
 *                    *
 * JOB ENDED NORMALLY *
 *                    *
 **********************



 TOTAL JOB TIME:             0.77 SECONDS

 == MOPAC DONE ==
