 *******************************************************************************
 **                                                                           **
 **                              MOPAC v23.2                                  **
 **                                                                           **
 *******************************************************************************
 **          Digital Object Identifier (DOI): 10.5281/zenodo.6511958          **
 **    Visit the DOI location for information on how to cite this program.    **
 *******************************************************************************

                              PM7 CALCULATION RESULTS

 *******************************************************************************
 *  CALCULATION DONE: (MAX THREADS = 40)             Fri Sep 19 21:26:58 2025  *
 *  PM7        - The PM7 Hamiltonian to be used
 *  1SCF       - DO 1 SCF AND THEN STOP 
 *  T=         - A TIME OF 172800.0 SECONDS REQUESTED
 *  DUMP=N     - RESTART FILE WRITTEN EVERY 7200.0 SECONDS REQUESTED
 *  RELSCF     - DEFAULT SCF CRITERION MULTIPLIED BY 0.0001
 *              (DEFAULT SCF CRITERION = 0.00010)
 *  GRADIENTS  - ALL GRADIENTS TO BE PRINTED
 *  DISP       - PRINT DISPERSION AND HYDROGEN BOND ENERGIES
 *******************************************************************************
PM7 1SCF GRADIENTS DISP RELSCF=0.0001
 Title: ASE calculation

   ATOM   CHEMICAL          X               Y               Z
  NUMBER   SYMBOL      (ANGSTROMS)     (ANGSTROMS)     (ANGSTROMS)

     1       C          2.54081066  *  -0.14185120  *   0.76985053  *
     2       C          1.10244034  *  -0.03450622  *   0.44911185  *
     3       C          0.14988225  *  -0.99601492  *   0.43276990  *
     4       C         -1.18529597  *  -0.40284801  *   0.04110871  *
     5       C         -1.70297023  *  -0.98142222  *  -1.27016658  *
     6       C         -2.21117413  *  -0.51935666  *   1.16194138  *
     7       C         -0.82937003  *   1.08894830  *  -0.16803497  *
     8       O         -1.52387714  *   2.01403176  *  -0.48904831  *
     9       N          0.55111653  *   1.22483059  *   0.09461389  *
    10       H          2.81936274  *  -1.17725385  *   1.02470202  *
    11       H          3.17594620  *   0.16035221  *  -0.07825838  *
    12       H          2.81896973  *   0.48534817  *   1.63199704  *
    13       H          0.25133838  *  -2.03386993  *   0.65100639  *
    14       H         -0.97911352  *  -0.85191096  *  -2.08439522  *
    15       H         -1.90162880  *  -2.05525840  *  -1.17720822  *
    16       H         -2.63682569  *  -0.49145580  *  -1.57765593  *
    17       H         -1.85119147  *  -0.05879894  *   2.09042501  *
    18       H         -3.15246919  *  -0.02253445  *   0.89028631  *
    19       H         -2.43674130  *  -1.56873873  *   1.38364114  *
    20       H          1.06982502  *   2.07382072  *   0.04156933  *



          CARTESIAN COORDINATES 

    NO.       ATOM           X           Y           Z

     1         C          2.5408     -0.1419      0.7699
     2         C          1.1024     -0.0345      0.4491
     3         C          0.1499     -0.9960      0.4328
     4         C         -1.1853     -0.4028      0.0411
     5         C         -1.7030     -0.9814     -1.2702
     6         C         -2.2112     -0.5194      1.1619
     7         C         -0.8294      1.0889     -0.1680
     8         O         -1.5239      2.0140     -0.4890
     9         N          0.5511      1.2248      0.0946
    10         H          2.8194     -1.1773      1.0247
    11         H          3.1759      0.1604     -0.0783
    12         H          2.8190      0.4853      1.6320
    13         H          0.2513     -2.0339      0.6510
    14         H         -0.9791     -0.8519     -2.0844
    15         H         -1.9016     -2.0553     -1.1772
    16         H         -2.6368     -0.4915     -1.5777
    17         H         -1.8512     -0.0588      2.0904
    18         H         -3.1525     -0.0225      0.8903
    19         H         -2.4367     -1.5687      1.3836
    20         H          1.0698      2.0738      0.0416

 General Reference for PM7:
 "Optimization of Parameters for Semiempirical Methods VI: More Modifications to the 
 NDDO Approximations and Re-optimization of Parameters", J. J. P. Stewart, J. Mol. Mod., 1:32, 19 (2013)
 https://link.springer.com/article/10.1007/s00894-012-1667-x

           Empirical Formula: C7 H11 N O  =    20 atoms



      MOLECULAR POINT GROUP   :   Cs  


      RHF CALCULATION, NO. OF DOUBLY OCCUPIED LEVELS = 25

  SCF CRITERION =    0.1000E-07

 -------------------------------------------------------------------------------
 PM7 1SCF GRADIENTS DISP RELSCF=0.0001
 Title: ASE calculation



     1SCF WAS SPECIFIED, SO BFGS WAS NOT USED                 
     SCF FIELD WAS ACHIEVED                                   


                              PM7 CALCULATION
                                                       MOPAC v23.2 Linux
                                                       Fri Sep 19 21:26:58 2025




          FINAL HEAT OF FORMATION =        -48.04187 KCAL/MOL =    -201.00717 KJ/MOL

          TOTAL ENERGY            =     -34369.90731 KCAL/MOL = ELECTRONIC ENERGY + CORE-CORE REPULSION
          ENERGY OF ATOMS         =      34323.93363 KCAL/MOL
                              SUM =        -45.97368 KCAL/MOL
          DISPERSION ENERGY       =         -2.06819 KCAL/MOL
                              SUM =        -48.04187 KCAL/MOL = FINAL HEAT OF FORMATION



          TOTAL ENERGY            =      -1490.42024 EV
          ELECTRONIC ENERGY       =      -7441.08729 EV 
          CORE-CORE REPULSION     =       5950.66705 EV
          COSMO AREA              =        167.15 SQUARE ANGSTROMS
          COSMO VOLUME            =        167.49 CUBIC ANGSTROMS

          GRADIENT NORM           =          1.12794          =       0.25222 PER ATOM
          IONIZATION POTENTIAL    =          8.992414 EV
          HOMO LUMO ENERGIES (EV) =         -8.992  0.507
          NO. OF FILLED LEVELS    =         25
          MOLECULAR WEIGHT        =        125.1700         POINT GROUP:  Cs  

          MOLECULAR DIMENSIONS (Angstroms)

            Atom       Atom       Distance
            H    16    H    12     6.40482
            H    17    H    11     4.42693
            H    13    O     8     4.31878


          SCF CALCULATIONS        =          1

          WALL-CLOCK TIME         =      0.508 SECONDS
          COMPUTATION TIME        =      0.526 SECONDS

          LARGEST ATOMIC GRADIENTS

          Atom     Label                     Cartesian Gradients           Cartesian Coordinates       |Gradient|
                                           X          Y          Z        X          Y          Z

             8       O                   0.150     -0.322      0.101   -1.52388    2.01403   -0.48905      0.369
            18       H                   0.154     -0.233     -0.234   -3.15247   -0.02253    0.89029      0.364
            16       H                   0.033     -0.121      0.340   -2.63683   -0.49146   -1.57766      0.362
            13       H                  -0.000      0.340     -0.067    0.25134   -2.03387    0.65101      0.346
             2       C                   0.222      0.258     -0.006    1.10244   -0.03451    0.44911      0.341
            10       H                  -0.250     -0.194     -0.016    2.81936   -1.17725    1.02470      0.317
             7       C                  -0.299     -0.000     -0.062   -0.82937    1.08895   -0.16803      0.305
            12       H                   0.107     -0.152      0.196    2.81897    0.48535    1.63200      0.270
            11       H                   0.170     -0.199     -0.065    3.17595    0.16035   -0.07826      0.270
            19       H                   0.085      0.155      0.122   -2.43674   -1.56874    1.38364      0.215



       FINAL  POINT  AND  DERIVATIVES

   PARAMETER     ATOM    TYPE            VALUE        GRADIENT
      1          1  C    CARTESIAN X     2.540811     -0.033524  KCAL/ANGSTROM
      2          1  C    CARTESIAN Y    -0.141851      0.003527  KCAL/ANGSTROM
      3          1  C    CARTESIAN Z     0.769851     -0.007160  KCAL/ANGSTROM
      4          2  C    CARTESIAN X     1.102440      0.222212  KCAL/ANGSTROM
      5          2  C    CARTESIAN Y    -0.034506      0.257954  KCAL/ANGSTROM
      6          2  C    CARTESIAN Z     0.449112     -0.005951  KCAL/ANGSTROM
      7          3  C    CARTESIAN X     0.149882     -0.077624  KCAL/ANGSTROM
      8          3  C    CARTESIAN Y    -0.996015      0.170655  KCAL/ANGSTROM
      9          3  C    CARTESIAN Z     0.432770     -0.050889  KCAL/ANGSTROM
     10          4  C    CARTESIAN X    -1.185296     -0.145122  KCAL/ANGSTROM
     11          4  C    CARTESIAN Y    -0.402848     -0.134223  KCAL/ANGSTROM
     12          4  C    CARTESIAN Z     0.041109     -0.006034  KCAL/ANGSTROM
     13          5  C    CARTESIAN X    -1.702970      0.052706  KCAL/ANGSTROM
     14          5  C    CARTESIAN Y    -0.981422     -0.067597  KCAL/ANGSTROM
     15          5  C    CARTESIAN Z    -1.270167      0.019265  KCAL/ANGSTROM
     16          6  C    CARTESIAN X    -2.211174      0.054056  KCAL/ANGSTROM
     17          6  C    CARTESIAN Y    -0.519357     -0.066336  KCAL/ANGSTROM
     18          6  C    CARTESIAN Z     1.161941      0.027741  KCAL/ANGSTROM
     19          7  C    CARTESIAN X    -0.829370     -0.298569  KCAL/ANGSTROM
     20          7  C    CARTESIAN Y     1.088948     -0.000128  KCAL/ANGSTROM
     21          7  C    CARTESIAN Z    -0.168035     -0.061644  KCAL/ANGSTROM
     22          8  O    CARTESIAN X    -1.523877      0.150051  KCAL/ANGSTROM
     23          8  O    CARTESIAN Y     2.014032     -0.321748  KCAL/ANGSTROM
     24          8  O    CARTESIAN Z    -0.489048      0.100663  KCAL/ANGSTROM
     25          9  N    CARTESIAN X     0.551117     -0.109272  KCAL/ANGSTROM
     26          9  N    CARTESIAN Y     1.224831      0.095761  KCAL/ANGSTROM
     27          9  N    CARTESIAN Z     0.094614     -0.046052  KCAL/ANGSTROM
     28         10  H    CARTESIAN X     2.819363     -0.250156  KCAL/ANGSTROM
     29         10  H    CARTESIAN Y    -1.177254     -0.194410  KCAL/ANGSTROM
     30         10  H    CARTESIAN Z     1.024702     -0.015995  KCAL/ANGSTROM
     31         11  H    CARTESIAN X     3.175946      0.169596  KCAL/ANGSTROM
     32         11  H    CARTESIAN Y     0.160352     -0.199192  KCAL/ANGSTROM
     33         11  H    CARTESIAN Z    -0.078258     -0.065195  KCAL/ANGSTROM
     34         12  H    CARTESIAN X     2.818970      0.107164  KCAL/ANGSTROM
     35         12  H    CARTESIAN Y     0.485348     -0.151637  KCAL/ANGSTROM
     36         12  H    CARTESIAN Z     1.631997      0.195988  KCAL/ANGSTROM
     37         13  H    CARTESIAN X     0.251338     -0.000360  KCAL/ANGSTROM
     38         13  H    CARTESIAN Y    -2.033870      0.339748  KCAL/ANGSTROM
     39         13  H    CARTESIAN Z     0.651006     -0.066875  KCAL/ANGSTROM
     40         14  H    CARTESIAN X    -0.979114     -0.128217  KCAL/ANGSTROM
     41         14  H    CARTESIAN Y    -0.851911      0.160942  KCAL/ANGSTROM
     42         14  H    CARTESIAN Z    -2.084395     -0.037305  KCAL/ANGSTROM
     43         15  H    CARTESIAN X    -1.901629      0.130154  KCAL/ANGSTROM
     44         15  H    CARTESIAN Y    -2.055258      0.109135  KCAL/ANGSTROM
     45         15  H    CARTESIAN Z    -1.177208     -0.124360  KCAL/ANGSTROM
     46         16  H    CARTESIAN X    -2.636826      0.032980  KCAL/ANGSTROM
     47         16  H    CARTESIAN Y    -0.491456     -0.120798  KCAL/ANGSTROM
     48         16  H    CARTESIAN Z    -1.577656      0.339901  KCAL/ANGSTROM
     49         17  H    CARTESIAN X    -1.851191     -0.116729  KCAL/ANGSTROM
     50         17  H    CARTESIAN Y    -0.058799      0.157158  KCAL/ANGSTROM
     51         17  H    CARTESIAN Z     2.090425     -0.077072  KCAL/ANGSTROM
     52         18  H    CARTESIAN X    -3.152469      0.153746  KCAL/ANGSTROM
     53         18  H    CARTESIAN Y    -0.022534     -0.233432  KCAL/ANGSTROM
     54         18  H    CARTESIAN Z     0.890286     -0.233827  KCAL/ANGSTROM
     55         19  H    CARTESIAN X    -2.436741      0.085353  KCAL/ANGSTROM
     56         19  H    CARTESIAN Y    -1.568739      0.154880  KCAL/ANGSTROM
     57         19  H    CARTESIAN Z     1.383641      0.121541  KCAL/ANGSTROM
     58         20  H    CARTESIAN X     1.069825      0.001551  KCAL/ANGSTROM
     59         20  H    CARTESIAN Y     2.073821      0.039733  KCAL/ANGSTROM
     60         20  H    CARTESIAN Z     0.041569     -0.006744  KCAL/ANGSTROM




   ATOM   CHEMICAL          X               Y               Z
  NUMBER   SYMBOL      (ANGSTROMS)     (ANGSTROMS)     (ANGSTROMS)

     1       C          2.54081066  *  -0.14185120  *   0.76985053  *
     2       C          1.10244034  *  -0.03450622  *   0.44911185  *
     3       C          0.14988225  *  -0.99601492  *   0.43276990  *
     4       C         -1.18529597  *  -0.40284801  *   0.04110871  *
     5       C         -1.70297023  *  -0.98142222  *  -1.27016658  *
     6       C         -2.21117413  *  -0.51935666  *   1.16194138  *
     7       C         -0.82937003  *   1.08894830  *  -0.16803497  *
     8       O         -1.52387714  *   2.01403176  *  -0.48904831  *
     9       N          0.55111653  *   1.22483059  *   0.09461389  *
    10       H          2.81936274  *  -1.17725385  *   1.02470202  *
    11       H          3.17594620  *   0.16035221  *  -0.07825838  *
    12       H          2.81896973  *   0.48534817  *   1.63199704  *
    13       H          0.25133838  *  -2.03386993  *   0.65100639  *
    14       H         -0.97911352  *  -0.85191096  *  -2.08439522  *
    15       H         -1.90162880  *  -2.05525840  *  -1.17720822  *
    16       H         -2.63682569  *  -0.49145580  *  -1.57765593  *
    17       H         -1.85119147  *  -0.05879894  *   2.09042501  *
    18       H         -3.15246919  *  -0.02253445  *   0.89028631  *
    19       H         -2.43674130  *  -1.56873873  *   1.38364114  *
    20       H          1.06982502  *   2.07382072  *   0.04156933  *

                             CARTESIAN COORDINATES

   1    C        2.540810658    -0.141851203     0.769850532
   2    C        1.102440338    -0.034506219     0.449111849
   3    C        0.149882247    -0.996014917     0.432769900
   4    C       -1.185295970    -0.402848015     0.041108707
   5    C       -1.702970230    -0.981422219    -1.270166585
   6    C       -2.211174128    -0.519356660     1.161941377
   7    C       -0.829370034     1.088948305    -0.168034974
   8    O       -1.523877139     2.014031763    -0.489048311
   9    N        0.551116535     1.224830593     0.094613894
  10    H        2.819362745    -1.177253850     1.024702024
  11    H        3.175946197     0.160352210    -0.078258383
  12    H        2.818969735     0.485348172     1.631997037
  13    H        0.251338382    -2.033869930     0.651006386
  14    H       -0.979113523    -0.851910960    -2.084395218
  15    H       -1.901628804    -2.055258399    -1.177208222
  16    H       -2.636825686    -0.491455800    -1.577655934
  17    H       -1.851191472    -0.058798942     2.090425010
  18    H       -3.152469193    -0.022534453     0.890286315
  19    H       -2.436741302    -1.568738727     1.383641144
  20    H        1.069825016     2.073820724     0.041569329


           Empirical Formula: C7 H11 N O  =    20 atoms



      MOLECULAR POINT GROUP   :   Cs  


                  EIGENVALUES  
 -37.32258 -30.60433 -29.48087 -27.28095 -24.71800 -24.24458 -21.93585 -19.95326
 -18.88085 -17.22247 -15.82672 -15.42251 -15.27128 -14.72961 -14.63680 -14.07518
 -13.74300 -13.72535 -13.32278 -12.73850 -12.41775 -11.98674 -11.61788 -10.25906
  -8.99241   0.50731   1.60975   2.08074   2.98690   3.38879   3.94919   4.00233
   4.61300   4.74893   5.03608   5.05513   5.21699   5.48315   5.70919   5.70980
   5.78178   5.78649   6.22517   6.41022   6.66180   6.80456   6.90743


              NET ATOMIC CHARGES AND DIPOLE CONTRIBUTIONS

  ATOM NO.   TYPE          CHARGE      No. of ELECS.   s-Pop       p-Pop       
    1          C          -0.463218        4.4632     1.04815     3.41507
    2          C           0.226539        3.7735     1.06385     2.70962
    3          C          -0.343497        4.3435     1.08451     3.25898
    4          C           0.039478        3.9605     1.05850     2.90202
    5          C          -0.442294        4.4423     1.05431     3.38799
    6          C          -0.442270        4.4423     1.05432     3.38795
    7          C           0.561917        3.4381     1.11558     2.32250
    8          O          -0.485408        6.4854     1.87539     4.61002
    9          N          -0.598630        5.5986     1.56136     4.03727
   10          H           0.171682        0.8283     0.82832
   11          H           0.170453        0.8295     0.82955
   12          H           0.170459        0.8295     0.82954
   13          H           0.169063        0.8309     0.83094
   14          H           0.153923        0.8461     0.84608
   15          H           0.154158        0.8458     0.84584
   16          H           0.162503        0.8375     0.83750
   17          H           0.153926        0.8461     0.84607
   18          H           0.162497        0.8375     0.83750
   19          H           0.154157        0.8458     0.84584
   20          H           0.324562        0.6754     0.67544
 DIPOLE           X         Y         Z       TOTAL
 POINT-CHG.     2.401    -2.864     1.046     3.881
 HYBRID         0.389     0.840    -0.079     0.929
 SUM            2.790    -2.024     0.967     3.580


          ATOMIC ORBITAL ELECTRON POPULATIONS

     Atom    s        px        py        pz   
    1  C   1.04815   1.03489   1.19979   1.18039
    2  C   1.06385   0.93715   0.83769   0.93478
    3  C   1.08451   0.99456   1.08245   1.18197
    4  C   1.05850   0.97007   0.95105   0.98091
    5  C   1.05431   1.16829   1.16039   1.05931
    6  C   1.05432   1.11043   1.18338   1.09413
    7  C   1.11558   0.74449   0.88065   0.69736
    8  O   1.87539   1.62530   1.48900   1.49572
    9  N   1.56136   1.19648   1.17158   1.66922
   10  H   0.82832
   11  H   0.82955
   12  H   0.82954
   13  H   0.83094
   14  H   0.84608
   15  H   0.84584
   16  H   0.83750
   17  H   0.84607
   18  H   0.83750
   19  H   0.84584
   20  H   0.67544

 **********************
 *                    *
 * JOB ENDED NORMALLY *
 *                    *
 **********************



 TOTAL JOB TIME:             0.96 SECONDS

 == MOPAC DONE ==
