 *******************************************************************************
 **                                                                           **
 **                              MOPAC v23.2                                  **
 **                                                                           **
 *******************************************************************************
 **          Digital Object Identifier (DOI): 10.5281/zenodo.6511958          **
 **    Visit the DOI location for information on how to cite this program.    **
 *******************************************************************************

                              PM7 CALCULATION RESULTS

 *******************************************************************************
 *  CALCULATION DONE: (MAX THREADS = 40)             Fri Sep 19 21:59:47 2025  *
 *  PM7        - The PM7 Hamiltonian to be used
 *
 *
 *
 *                 CHARGE ON SYSTEM = +1
 *
 *
 *
 *  1SCF       - DO 1 SCF AND THEN STOP 
 *  T=         - A TIME OF 172800.0 SECONDS REQUESTED
 *  DUMP=N     - RESTART FILE WRITTEN EVERY 7200.0 SECONDS REQUESTED
 *  RELSCF     - DEFAULT SCF CRITERION MULTIPLIED BY 0.0001
 *              (DEFAULT SCF CRITERION = 0.00010)
 *  GRADIENTS  - ALL GRADIENTS TO BE PRINTED
 *  DISP       - PRINT DISPERSION AND HYDROGEN BOND ENERGIES
 *******************************************************************************
PM7 1SCF GRADIENTS DISP RELSCF=0.0001 CHARGE=1
 Title: ASE calculation

   ATOM   CHEMICAL          X               Y               Z
  NUMBER   SYMBOL      (ANGSTROMS)     (ANGSTROMS)     (ANGSTROMS)

     1       C         -1.10517537  *  -1.73085410  *   0.36365230  *
     2       N         -0.41027376  *  -0.54393999  *   0.11306576  *
     3       C         -0.54736206  *   0.78165636  *  -0.41734104  *
     4       C         -1.80350294  *   1.55755102  *  -0.06706040  *
     5       O         -2.22849279  *   0.99808780  *   1.15992516  *
     6       C          0.49133297  *   0.41571232  *   0.68770316  *
     7       C          1.95995695  *   0.33529774  *   0.30675192  *
     8       O          1.95046308  *   0.06530132  *  -1.07878579  *
     9       H         -2.07494167  *  -1.51673164  *   0.90364314  *
    10       H         -1.39666067  *  -2.24493184  *  -0.58865849  *
    11       H         -0.51813883  *  -2.44711689  *   0.98452255  *
    12       H         -0.16483253  *   0.96597663  *  -1.45123615  *
    13       H         -1.57596577  *   2.63881967  *   0.05467782  *
    14       H         -2.60443683  *   1.42428288  *  -0.82526321  *
    15       H         -2.95043611  *   1.53345679  *   1.56616089  *
    16       H          0.31138450  *   0.72372016  *   1.74109592  *
    17       H          2.47165756  *   1.30248501  *   0.50214860  *
    18       H          2.47946052  *  -0.48678778  *   0.84310608  *
    19       H          2.86624497  *   0.04153580  *  -1.44342515  *



          CARTESIAN COORDINATES 

    NO.       ATOM           X           Y           Z

     1         C         -1.1052     -1.7309      0.3637
     2         N         -0.4103     -0.5439      0.1131
     3         C         -0.5474      0.7817     -0.4173
     4         C         -1.8035      1.5576     -0.0671
     5         O         -2.2285      0.9981      1.1599
     6         C          0.4913      0.4157      0.6877
     7         C          1.9600      0.3353      0.3068
     8         O          1.9505      0.0653     -1.0788
     9         H         -2.0749     -1.5167      0.9036
    10         H         -1.3967     -2.2449     -0.5887
    11         H         -0.5181     -2.4471      0.9845
    12         H         -0.1648      0.9660     -1.4512
    13         H         -1.5760      2.6388      0.0547
    14         H         -2.6044      1.4243     -0.8253
    15         H         -2.9504      1.5335      1.5662
    16         H          0.3114      0.7237      1.7411
    17         H          2.4717      1.3025      0.5021
    18         H          2.4795     -0.4868      0.8431
    19         H          2.8662      0.0415     -1.4434

 General Reference for PM7:
 "Optimization of Parameters for Semiempirical Methods VI: More Modifications to the 
 NDDO Approximations and Re-optimization of Parameters", J. J. P. Stewart, J. Mol. Mod., 1:32, 19 (2013)
 https://link.springer.com/article/10.1007/s00894-012-1667-x

           Empirical Formula: C5 H11 N O2  =    19 atoms



      MOLECULAR POINT GROUP   :   C1  


          UHF CALCULATION, NO. OF ALPHA ELECTRONS =   24
                           NO. OF BETA  ELECTRONS =   23
  SCF CRITERION =    0.1000E-07

 -------------------------------------------------------------------------------
 PM7 1SCF GRADIENTS DISP RELSCF=0.0001 CHARGE=1
 Title: ASE calculation



     1SCF WAS SPECIFIED, SO BFGS WAS NOT USED                 
     SCF FIELD WAS ACHIEVED                                   


                              PM7 CALCULATION
                                                       MOPAC v23.2 Linux
                                                       Fri Sep 19 21:59:47 2025




          FINAL HEAT OF FORMATION =        123.32356 KCAL/MOL =     515.98579 KJ/MOL

          TOTAL ENERGY            =     -35289.89566 KCAL/MOL = ELECTRONIC ENERGY + CORE-CORE REPULSION
          ENERGY OF ATOMS         =      35414.96735 KCAL/MOL
                              SUM =        125.07169 KCAL/MOL
          DISPERSION ENERGY       =         -1.74812 KCAL/MOL
                              SUM =        123.32356 KCAL/MOL = FINAL HEAT OF FORMATION



          TOTAL ENERGY            =      -1530.31471 EV
          ELECTRONIC ENERGY       =      -7044.50372 EV 
          CORE-CORE REPULSION     =       5514.18901 EV
          COSMO AREA              =        154.51 SQUARE ANGSTROMS
          COSMO VOLUME            =        148.94 CUBIC ANGSTROMS

          GRADIENT NORM           =          1.00624          =       0.23085 PER ATOM
          IONIZATION POTENTIAL    =         14.929277 EV
          ALPHA SOMO LUMO (EV)    =        -14.929 -4.314
          BETA  SOMO LUMO (EV)    =        -14.952 -6.110
          NO. OF ALPHA ELECTRONS  =         24
          NO. OF BETA  ELECTRONS  =         23
          MOLECULAR WEIGHT        =        117.1474         POINT GROUP:  C1  

          MOLECULAR DIMENSIONS (Angstroms)

            Atom       Atom       Distance
            H    19    H    15     6.71693
            H    11    H    13     5.01961
            H    17    H    10     3.72535


          SCF CALCULATIONS        =          1

          WALL-CLOCK TIME         =      0.602 SECONDS
          COMPUTATION TIME        =      1.089 SECONDS

          LARGEST ATOMIC GRADIENTS

          Atom     Label                     Cartesian Gradients           Cartesian Coordinates       |Gradient|
                                           X          Y          Z        X          Y          Z

            19       H                  -0.196     -0.101      0.379    2.86624    0.04154   -1.44343      0.439
             5       O                   0.010     -0.318      0.000   -2.22849    0.99809    1.15993      0.318
            16       H                   0.161      0.216     -0.151    0.31138    0.72372    1.74110      0.309
             7       C                   0.103      0.075      0.269    1.95996    0.33530    0.30675      0.298
             4       C                  -0.154     -0.225     -0.015   -1.80350    1.55755   -0.06706      0.273
            18       H                  -0.018     -0.210     -0.155    2.47946   -0.48679    0.84311      0.262
            12       H                  -0.108      0.230     -0.002   -0.16483    0.96598   -1.45124      0.254
            17       H                   0.046     -0.081     -0.223    2.47166    1.30249    0.50215      0.241
            14       H                  -0.091      0.153     -0.137   -2.60444    1.42428   -0.82526      0.225
            11       H                   0.181      0.047     -0.019   -0.51814   -2.44712    0.98452      0.188



       FINAL  POINT  AND  DERIVATIVES

   PARAMETER     ATOM    TYPE            VALUE        GRADIENT
      1          1  C    CARTESIAN X    -1.105175      0.030908  KCAL/ANGSTROM
      2          1  C    CARTESIAN Y    -1.730854      0.065885  KCAL/ANGSTROM
      3          1  C    CARTESIAN Z     0.363652      0.080607  KCAL/ANGSTROM
      4          2  N    CARTESIAN X    -0.410274     -0.114275  KCAL/ANGSTROM
      5          2  N    CARTESIAN Y    -0.543940     -0.099064  KCAL/ANGSTROM
      6          2  N    CARTESIAN Z     0.113066     -0.084788  KCAL/ANGSTROM
      7          3  C    CARTESIAN X    -0.547362      0.052237  KCAL/ANGSTROM
      8          3  C    CARTESIAN Y     0.781656     -0.013988  KCAL/ANGSTROM
      9          3  C    CARTESIAN Z    -0.417341      0.102651  KCAL/ANGSTROM
     10          4  C    CARTESIAN X    -1.803503     -0.154009  KCAL/ANGSTROM
     11          4  C    CARTESIAN Y     1.557551     -0.224897  KCAL/ANGSTROM
     12          4  C    CARTESIAN Z    -0.067060     -0.015088  KCAL/ANGSTROM
     13          5  O    CARTESIAN X    -2.228493      0.009873  KCAL/ANGSTROM
     14          5  O    CARTESIAN Y     0.998088     -0.317585  KCAL/ANGSTROM
     15          5  O    CARTESIAN Z     1.159925      0.000441  KCAL/ANGSTROM
     16          6  C    CARTESIAN X     0.491333     -0.047783  KCAL/ANGSTROM
     17          6  C    CARTESIAN Y     0.415712     -0.102338  KCAL/ANGSTROM
     18          6  C    CARTESIAN Z     0.687703      0.029253  KCAL/ANGSTROM
     19          7  C    CARTESIAN X     1.959957      0.103218  KCAL/ANGSTROM
     20          7  C    CARTESIAN Y     0.335298      0.075028  KCAL/ANGSTROM
     21          7  C    CARTESIAN Z     0.306752      0.269277  KCAL/ANGSTROM
     22          8  O    CARTESIAN X     1.950463      0.062075  KCAL/ANGSTROM
     23          8  O    CARTESIAN Y     0.065301      0.121508  KCAL/ANGSTROM
     24          8  O    CARTESIAN Z    -1.078786     -0.115185  KCAL/ANGSTROM
     25          9  H    CARTESIAN X    -2.074942      0.022140  KCAL/ANGSTROM
     26          9  H    CARTESIAN Y    -1.516732      0.082859  KCAL/ANGSTROM
     27          9  H    CARTESIAN Z     0.903643     -0.068979  KCAL/ANGSTROM
     28         10  H    CARTESIAN X    -1.396661      0.022879  KCAL/ANGSTROM
     29         10  H    CARTESIAN Y    -2.244932     -0.067781  KCAL/ANGSTROM
     30         10  H    CARTESIAN Z    -0.588658      0.085215  KCAL/ANGSTROM
     31         11  H    CARTESIAN X    -0.518139      0.181085  KCAL/ANGSTROM
     32         11  H    CARTESIAN Y    -2.447117      0.046670  KCAL/ANGSTROM
     33         11  H    CARTESIAN Z     0.984523     -0.019448  KCAL/ANGSTROM
     34         12  H    CARTESIAN X    -0.164833     -0.107682  KCAL/ANGSTROM
     35         12  H    CARTESIAN Y     0.965977      0.230472  KCAL/ANGSTROM
     36         12  H    CARTESIAN Z    -1.451236     -0.001897  KCAL/ANGSTROM
     37         13  H    CARTESIAN X    -1.575966      0.095314  KCAL/ANGSTROM
     38         13  H    CARTESIAN Y     2.638820      0.095580  KCAL/ANGSTROM
     39         13  H    CARTESIAN Z     0.054678      0.108876  KCAL/ANGSTROM
     40         14  H    CARTESIAN X    -2.604437     -0.090714  KCAL/ANGSTROM
     41         14  H    CARTESIAN Y     1.424283      0.153332  KCAL/ANGSTROM
     42         14  H    CARTESIAN Z    -0.825263     -0.137273  KCAL/ANGSTROM
     43         15  H    CARTESIAN X    -2.950436     -0.058505  KCAL/ANGSTROM
     44         15  H    CARTESIAN Y     1.533457      0.130491  KCAL/ANGSTROM
     45         15  H    CARTESIAN Z     1.566161     -0.084043  KCAL/ANGSTROM
     46         16  H    CARTESIAN X     0.311384      0.161407  KCAL/ANGSTROM
     47         16  H    CARTESIAN Y     0.723720      0.215693  KCAL/ANGSTROM
     48         16  H    CARTESIAN Z     1.741096     -0.151009  KCAL/ANGSTROM
     49         17  H    CARTESIAN X     2.471658      0.045872  KCAL/ANGSTROM
     50         17  H    CARTESIAN Y     1.302485     -0.080604  KCAL/ANGSTROM
     51         17  H    CARTESIAN Z     0.502149     -0.222921  KCAL/ANGSTROM
     52         18  H    CARTESIAN X     2.479461     -0.017701  KCAL/ANGSTROM
     53         18  H    CARTESIAN Y    -0.486788     -0.209929  KCAL/ANGSTROM
     54         18  H    CARTESIAN Z     0.843106     -0.154932  KCAL/ANGSTROM
     55         19  H    CARTESIAN X     2.866245     -0.196342  KCAL/ANGSTROM
     56         19  H    CARTESIAN Y     0.041536     -0.101333  KCAL/ANGSTROM
     57         19  H    CARTESIAN Z    -1.443425      0.379240  KCAL/ANGSTROM




   ATOM   CHEMICAL          X               Y               Z
  NUMBER   SYMBOL      (ANGSTROMS)     (ANGSTROMS)     (ANGSTROMS)

     1       C         -1.10517537  *  -1.73085410  *   0.36365230  *
     2       N         -0.41027376  *  -0.54393999  *   0.11306576  *
     3       C         -0.54736206  *   0.78165636  *  -0.41734104  *
     4       C         -1.80350294  *   1.55755102  *  -0.06706040  *
     5       O         -2.22849279  *   0.99808780  *   1.15992516  *
     6       C          0.49133297  *   0.41571232  *   0.68770316  *
     7       C          1.95995695  *   0.33529774  *   0.30675192  *
     8       O          1.95046308  *   0.06530132  *  -1.07878579  *
     9       H         -2.07494167  *  -1.51673164  *   0.90364314  *
    10       H         -1.39666067  *  -2.24493184  *  -0.58865849  *
    11       H         -0.51813883  *  -2.44711689  *   0.98452255  *
    12       H         -0.16483253  *   0.96597663  *  -1.45123615  *
    13       H         -1.57596577  *   2.63881967  *   0.05467782  *
    14       H         -2.60443683  *   1.42428288  *  -0.82526321  *
    15       H         -2.95043611  *   1.53345679  *   1.56616089  *
    16       H          0.31138450  *   0.72372016  *   1.74109592  *
    17       H          2.47165756  *   1.30248501  *   0.50214860  *
    18       H          2.47946052  *  -0.48678778  *   0.84310608  *
    19       H          2.86624497  *   0.04153580  *  -1.44342515  *

                             CARTESIAN COORDINATES

   1    C       -1.105175374    -1.730854103     0.363652302
   2    N       -0.410273757    -0.543939990     0.113065763
   3    C       -0.547362063     0.781656355    -0.417341043
   4    C       -1.803502937     1.557551021    -0.067060405
   5    O       -2.228492786     0.998087799     1.159925164
   6    C        0.491332972     0.415712318     0.687703161
   7    C        1.959956950     0.335297737     0.306751920
   8    O        1.950463082     0.065301318    -1.078785794
   9    H       -2.074941675    -1.516731643     0.903643136
  10    H       -1.396660665    -2.244931844    -0.588658493
  11    H       -0.518138827    -2.447116894     0.984522549
  12    H       -0.164832530     0.965976626    -1.451236150
  13    H       -1.575965773     2.638819672     0.054677819
  14    H       -2.604436830     1.424282880    -0.825263209
  15    H       -2.950436110     1.533456792     1.566160887
  16    H        0.311384498     0.723720160     1.741095916
  17    H        2.471657556     1.302485010     0.502148596
  18    H        2.479460522    -0.486787785     0.843106084
  19    H        2.866244969     0.041535796    -1.443425150


           Empirical Formula: C5 H11 N O2  =    19 atoms



      MOLECULAR POINT GROUP   :   C1  


          ALPHA EIGENVALUES  
 -43.43486 -34.03489 -33.81080 -32.60176 -30.04446 -28.90387 -25.45090 -25.21325
 -23.25620 -22.20256 -21.45806 -21.04379 -20.87191 -20.26877 -19.62329 -18.92161
 -18.05779 -17.83304 -17.30618 -17.05627 -16.71199 -15.73147 -15.21841 -14.92928
  -4.31350  -3.19845  -2.09029  -1.71931  -1.59207  -1.13857  -1.04944  -0.37198
   0.19122   0.36363   0.44245   0.69110   0.94170   1.05189   1.12443   1.21314
   1.28936   1.67345   1.90860


           BETA EIGENVALUES 
 -41.93281 -33.88187 -33.79531 -32.39672 -29.99126 -28.72192 -25.02520 -24.93193
 -22.87714 -22.11570 -21.32492 -20.72022 -20.40390 -20.10110 -19.56622 -18.61342
 -17.94832 -17.71403 -17.18640 -16.85051 -16.63693 -15.21317 -14.95174  -6.10996
  -3.64683  -3.05198  -1.94572  -1.66398  -1.50346  -1.07533  -0.99973   0.13097
   0.35820   0.49554   0.53225   0.73512   0.95326   1.05982   1.19394   1.24016
   1.29117   1.68172   1.91669


              NET ATOMIC CHARGES AND DIPOLE CONTRIBUTIONS

  ATOM NO.   TYPE          CHARGE      No. of ELECS.   s-Pop       p-Pop       
    1          C          -0.281089        4.2811     1.06912     3.21196
    2          N           0.019887        4.9801     1.54758     3.43253
    3          C          -0.045008        4.0450     1.10702     2.93799
    4          C          -0.003347        4.0033     1.09030     2.91304
    5          O          -0.588850        6.5888     1.84763     4.74122
    6          C          -0.053997        4.0540     1.10605     2.94794
    7          C           0.003304        3.9967     1.08867     2.90803
    8          O          -0.568344        6.5683     1.84857     4.71977
    9          H           0.239835        0.7602     0.76017
   10          H           0.221264        0.7787     0.77874
   11          H           0.207543        0.7925     0.79246
   12          H           0.241004        0.7590     0.75900
   13          H           0.167660        0.8323     0.83234
   14          H           0.164581        0.8354     0.83542
   15          H           0.366168        0.6338     0.63383
   16          H           0.222436        0.7776     0.77756
   17          H           0.166386        0.8336     0.83361
   18          H           0.159811        0.8402     0.84019
   19          H           0.360758        0.6392     0.63924
 DIPOLE           X         Y         Z       TOTAL
 POINT-CHG.    -0.396    -0.141     0.730     0.842
 HYBRID        -0.178    -0.396     0.014     0.434
 SUM           -0.574    -0.537     0.744     1.082


          ATOMIC ORBITAL ELECTRON POPULATIONS

     Atom    s        px        py        pz   
    1  C   1.06912   1.10335   0.90926   1.19936
    2  N   1.54758   1.17026   1.07436   1.18791
    3  C   1.10702   1.02552   0.81961   1.09285
    4  C   1.09030   0.98062   1.05220   0.88023
    5  O   1.84763   1.67295   1.62388   1.44439
    6  C   1.10605   0.96709   0.89371   1.08713
    7  C   1.08867   0.94342   1.14677   0.81783
    8  O   1.84857   1.46301   1.96058   1.29618
    9  H   0.76017
   10  H   0.77874
   11  H   0.79246
   12  H   0.75900
   13  H   0.83234
   14  H   0.83542
   15  H   0.63383
   16  H   0.77756
   17  H   0.83361
   18  H   0.84019
   19  H   0.63924


                    (SZ)    =    0.500000
                    (S**2)  =    0.762730


          ATOMIC ORBITAL SPIN POPULATIONS

    Atom   Total    s     px     py     pz   
         Atomic
    1  C -0.0289 -0.006  0.000 -0.031  0.008
    2  N  0.9450  0.054  0.334  0.139  0.419
    3  C -0.0586 -0.005 -0.012 -0.044  0.003
    4  C  0.0328  0.004  0.014  0.012  0.002
    5  O -0.0016  0.000  0.000 -0.001 -0.001
    6  C -0.0577 -0.005 -0.014 -0.035 -0.003
    7  C  0.0311  0.004  0.024  0.001  0.001
    8  O  0.0000  0.000  0.000  0.001 -0.001
    9  H  0.0629  0.063
   10  H  0.0276  0.028
   11  H  0.0042  0.004
   12  H  0.0226  0.023
   13  H  0.0001  0.000
   14  H -0.0012 -0.001
   15  H  0.0005  0.001
   16  H  0.0232  0.023
   17  H -0.0030 -0.003
   18  H -0.0000 -0.000
   19  H  0.0010  0.001

 **********************
 *                    *
 * JOB ENDED NORMALLY *
 *                    *
 **********************



 TOTAL JOB TIME:             0.92 SECONDS

 == MOPAC DONE ==
