 *******************************************************************************
 **                                                                           **
 **                              MOPAC v23.2                                  **
 **                                                                           **
 *******************************************************************************
 **          Digital Object Identifier (DOI): 10.5281/zenodo.6511958          **
 **    Visit the DOI location for information on how to cite this program.    **
 *******************************************************************************

                              PM7 CALCULATION RESULTS

 *******************************************************************************
 *  CALCULATION DONE: (MAX THREADS = 40)             Fri Sep 19 21:36:07 2025  *
 *  PM7        - The PM7 Hamiltonian to be used
 *
 *
 *
 *                 CHARGE ON SYSTEM = +1
 *
 *
 *
 *  EPS=37.5   - USE ANDREAS KLAMT'S COSMO IMPLICIT SOLVATION MODEL
 *  1SCF       - DO 1 SCF AND THEN STOP 
 *  T=         - A TIME OF 172800.0 SECONDS REQUESTED
 *  DUMP=N     - RESTART FILE WRITTEN EVERY 7200.0 SECONDS REQUESTED
 *  RELSCF     - DEFAULT SCF CRITERION MULTIPLIED BY 0.0001
 *              (DEFAULT SCF CRITERION = 0.00010)
 *  GRADIENTS  - ALL GRADIENTS TO BE PRINTED
 *  DISP       - PRINT DISPERSION AND HYDROGEN BOND ENERGIES
 *******************************************************************************
PM7 1SCF GRADIENTS EPS=37.5 DISP RELSCF=0.0001 CHARGE=1
 Title: ASE calculation

   ATOM   CHEMICAL          X               Y               Z
  NUMBER   SYMBOL      (ANGSTROMS)     (ANGSTROMS)     (ANGSTROMS)

     1       C          1.91235059  *  -1.43953783  *  -0.42550221  *
     2       O          0.73243615  *  -0.68358103  *  -0.66536856  *
     3       C         -0.00224034  *  -0.33969035  *   0.47861133  *
     4       C         -0.56518361  *   1.03491107  *   0.29336710  *
     5       C          0.21836650  *   2.24638071  *   0.19478429  *
     6       C         -2.02775266  *   0.94706259  *   0.15043024  *
     7       O         -2.34601803  *  -0.50283780  *   0.27465590  *
     8       C         -1.27295797  *  -1.19917653  *   0.45747014  *
     9       C         -1.40852952  *  -2.63437727  *   0.57787918  *
    10       H          2.62231264  *  -0.89162606  *   0.20332694  *
    11       H          2.32033391  *  -1.53711974  *  -1.44895302  *
    12       H          1.68673710  *  -2.42648740  *  -0.01568058  *
    13       H          0.57078266  *  -0.44783097  *   1.43160067  *
    14       H          0.99680072  *   2.32466820  *   0.97837192  *
    15       H          0.77307854  *   2.28973367  *  -0.77085652  *
    16       H         -0.37987376  *   3.17319101  *   0.25250503  *
    17       H         -2.62231264  *   1.43115971  *   0.95391407  *
    18       H         -2.42723989  *   1.22660605  *  -0.84949743  *
    19       H         -0.44325841  *  -3.17319101  *   0.67367880  *
    20       H         -2.03481923  *  -2.94753126  *   1.44895302  *
    21       H         -1.93486707  *  -3.09378385  *  -0.29671215  *



          CARTESIAN COORDINATES 

    NO.       ATOM           X           Y           Z

     1         C          1.9124     -1.4395     -0.4255
     2         O          0.7324     -0.6836     -0.6654
     3         C         -0.0022     -0.3397      0.4786
     4         C         -0.5652      1.0349      0.2934
     5         C          0.2184      2.2464      0.1948
     6         C         -2.0278      0.9471      0.1504
     7         O         -2.3460     -0.5028      0.2747
     8         C         -1.2730     -1.1992      0.4575
     9         C         -1.4085     -2.6344      0.5779
    10         H          2.6223     -0.8916      0.2033
    11         H          2.3203     -1.5371     -1.4490
    12         H          1.6867     -2.4265     -0.0157
    13         H          0.5708     -0.4478      1.4316
    14         H          0.9968      2.3247      0.9784
    15         H          0.7731      2.2897     -0.7709
    16         H         -0.3799      3.1732      0.2525
    17         H         -2.6223      1.4312      0.9539
    18         H         -2.4272      1.2266     -0.8495
    19         H         -0.4433     -3.1732      0.6737
    20         H         -2.0348     -2.9475      1.4490
    21         H         -1.9349     -3.0938     -0.2967

 General Reference for PM7:
 "Optimization of Parameters for Semiempirical Methods VI: More Modifications to the 
 NDDO Approximations and Re-optimization of Parameters", J. J. P. Stewart, J. Mol. Mod., 1:32, 19 (2013)
 https://link.springer.com/article/10.1007/s00894-012-1667-x

           Empirical Formula: C7 H12 O2  =    21 atoms



      MOLECULAR POINT GROUP   :   C1  


          UHF CALCULATION, NO. OF ALPHA ELECTRONS =   26
                           NO. OF BETA  ELECTRONS =   25
  SCF CRITERION =    0.1000E-07

 -------------------------------------------------------------------------------
 PM7 1SCF GRADIENTS EPS=37.5 DISP RELSCF=0.0001 CHARGE=1
 Title: ASE calculation



     1SCF WAS SPECIFIED, SO BFGS WAS NOT USED                 
     SCF FIELD WAS ACHIEVED                                   


                              PM7 CALCULATION
                                                       MOPAC v23.2 Linux
                                                       Fri Sep 19 21:36:10 2025




          FINAL HEAT OF FORMATION =         56.22772 KCAL/MOL =     235.25677 KJ/MOL

          TOTAL ENERGY            =     -37038.68427 KCAL/MOL = ELECTRONIC ENERGY + CORE-CORE REPULSION + SOLVATION ENERGY
          ENERGY OF ATOMS         =      37097.27293 KCAL/MOL
                              SUM =         58.58866 KCAL/MOL
          DISPERSION ENERGY       =         -2.36094 KCAL/MOL
                              SUM =         56.22772 KCAL/MOL = FINAL HEAT OF FORMATION

          VAN DER WAALS AREA      =        171.70 SQUARE ANGSTROMS


          TOTAL ENERGY            =      -1606.14937 EV
          ELECTRONIC ENERGY       =      -2428.17870 EV 
          CORE-CORE REPULSION     =        822.02934 EV

          DIELECTRIC ENERGY       =         -2.20687 EV
          COSMO AREA              =        171.70 SQUARE ANGSTROMS
          COSMO VOLUME            =        170.35 CUBIC ANGSTROMS

          GRADIENT NORM           =         12.59641          =       2.74876 PER ATOM
          IONIZATION POTENTIAL    =          9.643792 EV
          ALPHA SOMO LUMO (EV)    =         -9.644 -1.640
          BETA  SOMO LUMO (EV)    =        -11.069 -1.668
          NO. OF ALPHA ELECTRONS  =         26
          NO. OF BETA  ELECTRONS  =         25
          MOLECULAR WEIGHT        =        128.1706         POINT GROUP:  C1  

          MOLECULAR DIMENSIONS (Angstroms)

            Atom       Atom       Distance
            H    21    H    16     6.48033
            H    17    H    11     5.95390
            H    13    H    18     3.42759


          SCF CALCULATIONS        =          2

          WALL-CLOCK TIME         =      2.773 SECONDS
          COMPUTATION TIME        =      0.665 SECONDS

          LARGEST ATOMIC GRADIENTS

          Atom     Label                     Cartesian Gradients           Cartesian Coordinates       |Gradient|
                                           X          Y          Z        X          Y          Z

             1       C                  -1.299     -1.400      4.769    1.91235   -1.43954   -0.42550      5.137
             8       C                  -0.250      4.868     -1.435   -1.27296   -1.19918    0.45747      5.081
             9       C                  -2.148     -2.909      2.785   -1.40853   -2.63438    0.57788      4.564
             3       C                   4.183     -0.997      0.152   -0.00224   -0.33969    0.47861      4.302
             5       C                  -2.714     -2.965      1.270    0.21837    2.24638    0.19478      4.215
             6       C                  -1.125      2.520     -0.109   -2.02775    0.94706    0.15043      2.762
             2       O                  -2.532      0.169      1.014    0.73244   -0.68358   -0.66537      2.733
             7       O                   0.354     -2.641     -0.352   -2.34602   -0.50284    0.27466      2.688
             4       C                   0.752      1.549      1.189   -0.56518    1.03491    0.29337      2.092
            11       H                   0.260      0.608     -1.885    2.32033   -1.53712   -1.44895      1.998



       FINAL  POINT  AND  DERIVATIVES

   PARAMETER     ATOM    TYPE            VALUE        GRADIENT
      1          1  C    CARTESIAN X     1.912351     -1.298566  KCAL/ANGSTROM
      2          1  C    CARTESIAN Y    -1.439538     -1.399948  KCAL/ANGSTROM
      3          1  C    CARTESIAN Z    -0.425502      4.769124  KCAL/ANGSTROM
      4          2  O    CARTESIAN X     0.732436     -2.532256  KCAL/ANGSTROM
      5          2  O    CARTESIAN Y    -0.683581      0.169332  KCAL/ANGSTROM
      6          2  O    CARTESIAN Z    -0.665369      1.014282  KCAL/ANGSTROM
      7          3  C    CARTESIAN X    -0.002240      4.182599  KCAL/ANGSTROM
      8          3  C    CARTESIAN Y    -0.339690     -0.996731  KCAL/ANGSTROM
      9          3  C    CARTESIAN Z     0.478611      0.151865  KCAL/ANGSTROM
     10          4  C    CARTESIAN X    -0.565184      0.751874  KCAL/ANGSTROM
     11          4  C    CARTESIAN Y     1.034911      1.548854  KCAL/ANGSTROM
     12          4  C    CARTESIAN Z     0.293367      1.189197  KCAL/ANGSTROM
     13          5  C    CARTESIAN X     0.218367     -2.714335  KCAL/ANGSTROM
     14          5  C    CARTESIAN Y     2.246381     -2.964615  KCAL/ANGSTROM
     15          5  C    CARTESIAN Z     0.194784      1.270381  KCAL/ANGSTROM
     16          6  C    CARTESIAN X    -2.027753     -1.124520  KCAL/ANGSTROM
     17          6  C    CARTESIAN Y     0.947063      2.519905  KCAL/ANGSTROM
     18          6  C    CARTESIAN Z     0.150430     -0.108905  KCAL/ANGSTROM
     19          7  O    CARTESIAN X    -2.346018      0.354242  KCAL/ANGSTROM
     20          7  O    CARTESIAN Y    -0.502838     -2.641022  KCAL/ANGSTROM
     21          7  O    CARTESIAN Z     0.274656     -0.352015  KCAL/ANGSTROM
     22          8  C    CARTESIAN X    -1.272958     -0.250075  KCAL/ANGSTROM
     23          8  C    CARTESIAN Y    -1.199177      4.867944  KCAL/ANGSTROM
     24          8  C    CARTESIAN Z     0.457470     -1.434524  KCAL/ANGSTROM
     25          9  C    CARTESIAN X    -1.408530     -2.147633  KCAL/ANGSTROM
     26          9  C    CARTESIAN Y    -2.634377     -2.908909  KCAL/ANGSTROM
     27          9  C    CARTESIAN Z     0.577879      2.785369  KCAL/ANGSTROM
     28         10  H    CARTESIAN X     2.622313      1.390144  KCAL/ANGSTROM
     29         10  H    CARTESIAN Y    -0.891626      0.133738  KCAL/ANGSTROM
     30         10  H    CARTESIAN Z     0.203327     -1.049253  KCAL/ANGSTROM
     31         11  H    CARTESIAN X     2.320334      0.260359  KCAL/ANGSTROM
     32         11  H    CARTESIAN Y    -1.537120      0.608168  KCAL/ANGSTROM
     33         11  H    CARTESIAN Z    -1.448953     -1.885345  KCAL/ANGSTROM
     34         12  H    CARTESIAN X     1.686737      1.039570  KCAL/ANGSTROM
     35         12  H    CARTESIAN Y    -2.426487     -0.112872  KCAL/ANGSTROM
     36         12  H    CARTESIAN Z    -0.015681     -1.431382  KCAL/ANGSTROM
     37         13  H    CARTESIAN X     0.570783     -0.578877  KCAL/ANGSTROM
     38         13  H    CARTESIAN Y    -0.447831      0.915228  KCAL/ANGSTROM
     39         13  H    CARTESIAN Z     1.431601     -1.198069  KCAL/ANGSTROM
     40         14  H    CARTESIAN X     0.996801      0.579303  KCAL/ANGSTROM
     41         14  H    CARTESIAN Y     2.324668      1.123182  KCAL/ANGSTROM
     42         14  H    CARTESIAN Z     0.978372      0.025581  KCAL/ANGSTROM
     43         15  H    CARTESIAN X     0.773079      0.896454  KCAL/ANGSTROM
     44         15  H    CARTESIAN Y     2.289734      0.273987  KCAL/ANGSTROM
     45         15  H    CARTESIAN Z    -0.770857     -1.370941  KCAL/ANGSTROM
     46         16  H    CARTESIAN X    -0.379874      0.555524  KCAL/ANGSTROM
     47         16  H    CARTESIAN Y     3.173191      1.094655  KCAL/ANGSTROM
     48         16  H    CARTESIAN Z     0.252505      0.244282  KCAL/ANGSTROM
     49         17  H    CARTESIAN X    -2.622313     -0.094846  KCAL/ANGSTROM
     50         17  H    CARTESIAN Y     1.431160      0.023902  KCAL/ANGSTROM
     51         17  H    CARTESIAN Z     0.953914      0.066821  KCAL/ANGSTROM
     52         18  H    CARTESIAN X    -2.427240      0.154216  KCAL/ANGSTROM
     53         18  H    CARTESIAN Y     1.226606     -0.195969  KCAL/ANGSTROM
     54         18  H    CARTESIAN Z    -0.849497     -0.919990  KCAL/ANGSTROM
     55         19  H    CARTESIAN X    -0.443258      0.448900  KCAL/ANGSTROM
     56         19  H    CARTESIAN Y    -3.173191     -0.860135  KCAL/ANGSTROM
     57         19  H    CARTESIAN Z     0.673679     -0.705356  KCAL/ANGSTROM
     58         20  H    CARTESIAN X    -2.034819     -0.133234  KCAL/ANGSTROM
     59         20  H    CARTESIAN Y    -2.947531     -0.826939  KCAL/ANGSTROM
     60         20  H    CARTESIAN Z     1.448953     -0.306467  KCAL/ANGSTROM
     61         21  H    CARTESIAN X    -1.934867      0.261157  KCAL/ANGSTROM
     62         21  H    CARTESIAN Y    -3.093784     -0.371752  KCAL/ANGSTROM
     63         21  H    CARTESIAN Z    -0.296712     -0.754656  KCAL/ANGSTROM




   ATOM   CHEMICAL          X               Y               Z
  NUMBER   SYMBOL      (ANGSTROMS)     (ANGSTROMS)     (ANGSTROMS)

     1       C          1.91235059  *  -1.43953783  *  -0.42550221  *
     2       O          0.73243615  *  -0.68358103  *  -0.66536856  *
     3       C         -0.00224034  *  -0.33969035  *   0.47861133  *
     4       C         -0.56518361  *   1.03491107  *   0.29336710  *
     5       C          0.21836650  *   2.24638071  *   0.19478429  *
     6       C         -2.02775266  *   0.94706259  *   0.15043024  *
     7       O         -2.34601803  *  -0.50283780  *   0.27465590  *
     8       C         -1.27295797  *  -1.19917653  *   0.45747014  *
     9       C         -1.40852952  *  -2.63437727  *   0.57787918  *
    10       H          2.62231264  *  -0.89162606  *   0.20332694  *
    11       H          2.32033391  *  -1.53711974  *  -1.44895302  *
    12       H          1.68673710  *  -2.42648740  *  -0.01568058  *
    13       H          0.57078266  *  -0.44783097  *   1.43160067  *
    14       H          0.99680072  *   2.32466820  *   0.97837192  *
    15       H          0.77307854  *   2.28973367  *  -0.77085652  *
    16       H         -0.37987376  *   3.17319101  *   0.25250503  *
    17       H         -2.62231264  *   1.43115971  *   0.95391407  *
    18       H         -2.42723989  *   1.22660605  *  -0.84949743  *
    19       H         -0.44325841  *  -3.17319101  *   0.67367880  *
    20       H         -2.03481923  *  -2.94753126  *   1.44895302  *
    21       H         -1.93486707  *  -3.09378385  *  -0.29671215  *

                             CARTESIAN COORDINATES

   1    C        1.912350590    -1.439537833    -0.425502215
   2    O        0.732436153    -0.683581030    -0.665368559
   3    C       -0.002240339    -0.339690349     0.478611335
   4    C       -0.565183612     1.034911073     0.293367101
   5    C        0.218366502     2.246380706     0.194784285
   6    C       -2.027752662     0.947062591     0.150430239
   7    O       -2.346018028    -0.502837797     0.274655897
   8    C       -1.272957969    -1.199176527     0.457470141
   9    C       -1.408529517    -2.634377268     0.577879178
  10    H        2.622312644    -0.891626060     0.203326941
  11    H        2.320333910    -1.537119737    -1.448953017
  12    H        1.686737100    -2.426487401    -0.015680577
  13    H        0.570782660    -0.447830966     1.431600670
  14    H        0.996800720     2.324668203     0.978371920
  15    H        0.773078542     2.289733672    -0.770856521
  16    H       -0.379873758     3.173191009     0.252505029
  17    H       -2.622312644     1.431159709     0.953914067
  18    H       -2.427239894     1.226606045    -0.849497428
  19    H       -0.443258412    -3.173191009     0.673678803
  20    H       -2.034819227    -2.947531261     1.448953017
  21    H       -1.934867068    -3.093783845    -0.296712146


           Empirical Formula: C7 H12 O2  =    21 atoms



      MOLECULAR POINT GROUP   :   C1  


          ALPHA EIGENVALUES  
 -34.09444 -31.03767 -29.02131 -28.40412 -25.76808 -25.08257 -24.22158 -21.40625
 -20.03257 -18.46355 -18.19360 -16.82090 -16.59295 -16.33911 -15.48917 -15.30886
 -14.83614 -14.58936 -14.43806 -14.14473 -13.58715 -13.28236 -13.02262 -12.85684
 -11.12590  -9.64379  -1.63969  -0.08842   1.29475   1.36254   2.07371   2.85584
   3.01140   3.17019   3.83429   4.06046   4.50140   4.57998   4.60071   4.64062
   4.95840   5.22229   5.29186   5.33776   5.36745   5.77200   5.96627   6.47200


           BETA EIGENVALUES 
 -34.07508 -30.89433 -28.86580 -28.37886 -25.69947 -25.02229 -24.16244 -21.36637
 -19.85516 -18.30645 -18.15211 -16.74839 -16.52366 -16.26307 -15.38261 -15.16351
 -14.79999 -14.54265 -14.15138 -14.04439 -13.55947 -13.19788 -12.95706 -12.78018
 -11.06893  -1.66785  -0.51820  -0.09348   1.35084   1.56596   2.18257   2.87696
   3.14337   3.45873   3.88559   4.37624   4.51196   4.61524   4.64382   4.69500
   5.01565   5.29430   5.33793   5.34698   5.40447   5.77246   5.96734   6.51431


              NET ATOMIC CHARGES AND DIPOLE CONTRIBUTIONS

  ATOM NO.   TYPE          CHARGE      No. of ELECS.   s-Pop       p-Pop       
    1          C          -0.205449        4.2054     1.09197     3.11348
    2          O          -0.369392        6.3694     1.87975     4.48965
    3          C           0.019606        3.9804     1.10279     2.87760
    4          C          -0.102900        4.1029     1.09659     3.00631
    5          C          -0.441676        4.4417     1.04061     3.40107
    6          C          -0.063945        4.0639     1.12229     2.94166
    7          O          -0.173804        6.1738     1.86790     4.30590
    8          C           0.483164        3.5168     1.20088     2.31595
    9          C          -0.537101        4.5371     1.05681     3.48029
   10          H           0.150248        0.8498     0.84975
   11          H           0.171037        0.8290     0.82896
   12          H           0.145296        0.8547     0.85470
   13          H           0.217208        0.7828     0.78279
   14          H           0.186020        0.8140     0.81398
   15          H           0.195277        0.8047     0.80472
   16          H           0.181908        0.8181     0.81809
   17          H           0.211195        0.7888     0.78880
   18          H           0.209262        0.7907     0.79074
   19          H           0.222906        0.7771     0.77709
   20          H           0.252363        0.7476     0.74764
   21          H           0.248776        0.7512     0.75122
 DIPOLE           X         Y         Z       TOTAL
 POINT-CHG.    -1.191    -2.097     2.790     3.688
 HYBRID        -0.588    -0.199    -0.277     0.680
 SUM           -1.779    -2.296     2.513     3.841


          ATOMIC ORBITAL ELECTRON POPULATIONS

     Atom    s        px        py        pz   
    1  C   1.09197   0.88485   1.05169   1.17694
    2  O   1.87975   1.43963   1.75277   1.29724
    3  C   1.10279   0.93714   0.94591   0.99455
    4  C   1.09659   0.95822   0.97649   1.07160
    5  C   1.04061   1.14620   1.05861   1.19626
    6  C   1.12229   1.03234   0.71757   1.19175
    7  O   1.86790   1.37448   1.31530   1.61612
    8  C   1.20088   0.87061   0.93567   0.50968
    9  C   1.05681   1.25224   0.98532   1.24273
   10  H   0.84975
   11  H   0.82896
   12  H   0.85470
   13  H   0.78279
   14  H   0.81398
   15  H   0.80472
   16  H   0.81809
   17  H   0.78880
   18  H   0.79074
   19  H   0.77709
   20  H   0.74764
   21  H   0.75122


                    (SZ)    =    0.500000
                    (S**2)  =    0.754286


          ATOMIC ORBITAL SPIN POPULATIONS

    Atom   Total    s     px     py     pz   
         Atomic
    1  C -0.0009 -0.000 -0.001  0.000 -0.000
    2  O  0.0421  0.001  0.003  0.000  0.037
    3  C -0.0517 -0.004 -0.007 -0.023 -0.018
    4  C  0.9499  0.026  0.036  0.038  0.850
    5  C -0.0323 -0.006 -0.013 -0.016  0.003
    6  C -0.0381 -0.006 -0.026 -0.002 -0.003
    7  O -0.0020 -0.000  0.000  0.001 -0.003
    8  C  0.0047  0.001  0.000  0.001  0.003
    9  C -0.0003 -0.000 -0.000 -0.000  0.000
   10  H  0.0001  0.000
   11  H  0.0014  0.001
   12  H -0.0001 -0.000
   13  H  0.0178  0.018
   14  H  0.0213  0.021
   15  H  0.0385  0.039
   16  H  0.0034  0.003
   17  H  0.0219  0.022
   18  H  0.0240  0.024
   19  H  0.0000  0.000
   20  H  0.0001  0.000
   21  H  0.0001  0.000

 **********************
 *                    *
 * JOB ENDED NORMALLY *
 *                    *
 **********************



 TOTAL JOB TIME:             3.38 SECONDS

 == MOPAC DONE ==
