 *******************************************************************************
 **                                                                           **
 **                              MOPAC v23.2                                  **
 **                                                                           **
 *******************************************************************************
 **          Digital Object Identifier (DOI): 10.5281/zenodo.6511958          **
 **    Visit the DOI location for information on how to cite this program.    **
 *******************************************************************************

                              PM7 CALCULATION RESULTS

 *******************************************************************************
 *  CALCULATION DONE: (MAX THREADS = 40)             Fri Sep 19 21:41:27 2025  *
 *  PM7        - The PM7 Hamiltonian to be used
 *
 *
 *
 *                 CHARGE ON SYSTEM = +1
 *
 *
 *
 *  1SCF       - DO 1 SCF AND THEN STOP 
 *  T=         - A TIME OF 172800.0 SECONDS REQUESTED
 *  DUMP=N     - RESTART FILE WRITTEN EVERY 7200.0 SECONDS REQUESTED
 *  RELSCF     - DEFAULT SCF CRITERION MULTIPLIED BY 0.0001
 *              (DEFAULT SCF CRITERION = 0.00010)
 *  GRADIENTS  - ALL GRADIENTS TO BE PRINTED
 *  DISP       - PRINT DISPERSION AND HYDROGEN BOND ENERGIES
 *******************************************************************************
PM7 1SCF GRADIENTS DISP RELSCF=0.0001 CHARGE=1
 Title: ASE calculation

   ATOM   CHEMICAL          X               Y               Z
  NUMBER   SYMBOL      (ANGSTROMS)     (ANGSTROMS)     (ANGSTROMS)

     1       C          1.62272590  *   0.50645127  *  -1.22321551  *
     2       C          2.26198729  *   0.15464608  *  -0.00771480  *
     3       C          1.27256639  *  -0.13885522  *   1.02067792  *
     4       C         -0.09281052  *   0.05227169  *   0.37041101  *
     5       C          0.17585743  *   0.46526126  *  -1.06719087  *
     6       C         -1.23650080  *  -0.86266873  *   0.78820625  *
     7       C         -2.50716029  *  -0.63542282  *  -0.05034258  *
     8       C         -2.50311651  *   0.87035994  *   0.38315347  *
     9       C         -1.23256472  *   0.61062221  *   1.21244890  *
    10       H          2.12710018  *   0.77225598  *  -2.15146141  *
    11       H          3.33803605  *   0.10492751  *   0.15444851  *
    12       H          1.39693852  *  -1.16654327  *   1.46649778  *
    13       H          1.40163110  *   0.49325654  *   1.94487544  *
    14       H         -0.32745421  *  -0.21904856  *  -1.80921286  *
    15       H         -0.32354355  *   1.44140321  *  -1.33162408  *
    16       H         -1.09377051  *  -1.76379929  *   1.35602302  *
    17       H         -2.42185379  *  -0.82518358  *  -1.12100188  *
    18       H         -3.37678464  *  -1.19736682  *   0.31909655  *
    19       H         -3.37055672  *   1.15419350  *   0.99597130  *
    20       H         -2.41522556  *   1.59983128  *  -0.42293521  *
    21       H         -1.08617426  *   1.07100559  *   2.17237822  *



          CARTESIAN COORDINATES 

    NO.       ATOM           X           Y           Z

     1         C          1.6227      0.5065     -1.2232
     2         C          2.2620      0.1546     -0.0077
     3         C          1.2726     -0.1389      1.0207
     4         C         -0.0928      0.0523      0.3704
     5         C          0.1759      0.4653     -1.0672
     6         C         -1.2365     -0.8627      0.7882
     7         C         -2.5072     -0.6354     -0.0503
     8         C         -2.5031      0.8704      0.3832
     9         C         -1.2326      0.6106      1.2124
    10         H          2.1271      0.7723     -2.1515
    11         H          3.3380      0.1049      0.1544
    12         H          1.3969     -1.1665      1.4665
    13         H          1.4016      0.4933      1.9449
    14         H         -0.3275     -0.2190     -1.8092
    15         H         -0.3235      1.4414     -1.3316
    16         H         -1.0938     -1.7638      1.3560
    17         H         -2.4219     -0.8252     -1.1210
    18         H         -3.3768     -1.1974      0.3191
    19         H         -3.3706      1.1542      0.9960
    20         H         -2.4152      1.5998     -0.4229
    21         H         -1.0862      1.0710      2.1724

 General Reference for PM7:
 "Optimization of Parameters for Semiempirical Methods VI: More Modifications to the 
 NDDO Approximations and Re-optimization of Parameters", J. J. P. Stewart, J. Mol. Mod., 1:32, 19 (2013)
 https://link.springer.com/article/10.1007/s00894-012-1667-x

           Empirical Formula: C9 H12  =    21 atoms



      MOLECULAR POINT GROUP   :   Cs  


          UHF CALCULATION, NO. OF ALPHA ELECTRONS =   24
                           NO. OF BETA  ELECTRONS =   23
  SCF CRITERION =    0.1000E-07

 -------------------------------------------------------------------------------
 PM7 1SCF GRADIENTS DISP RELSCF=0.0001 CHARGE=1
 Title: ASE calculation



     1SCF WAS SPECIFIED, SO BFGS WAS NOT USED                 
     SCF FIELD WAS ACHIEVED                                   


                              PM7 CALCULATION
                                                       MOPAC v23.2 Linux
                                                       Fri Sep 19 21:41:28 2025




          FINAL HEAT OF FORMATION =        254.53218 KCAL/MOL =    1064.96266 KJ/MOL

          TOTAL ENERGY            =     -28981.09423 KCAL/MOL = ELECTRONIC ENERGY + CORE-CORE REPULSION
          ENERGY OF ATOMS         =      29237.64417 KCAL/MOL
                              SUM =        256.54994 KCAL/MOL
          DISPERSION ENERGY       =         -2.01776 KCAL/MOL
                              SUM =        254.53218 KCAL/MOL = FINAL HEAT OF FORMATION



          TOTAL ENERGY            =      -1256.73919 EV
          ELECTRONIC ENERGY       =      -6862.56545 EV 
          CORE-CORE REPULSION     =       5605.82626 EV
          COSMO AREA              =        161.85 SQUARE ANGSTROMS
          COSMO VOLUME            =        164.20 CUBIC ANGSTROMS

          GRADIENT NORM           =          1.04935          =       0.22899 PER ATOM
          IONIZATION POTENTIAL    =         14.406714 EV
          ALPHA SOMO LUMO (EV)    =        -14.422 -5.907
          BETA  SOMO LUMO (EV)    =        -14.407 -7.954
          NO. OF ALPHA ELECTRONS  =         24
          NO. OF BETA  ELECTRONS  =         23
          MOLECULAR WEIGHT        =        120.1938         POINT GROUP:  Cs  

          MOLECULAR DIMENSIONS (Angstroms)

            Atom       Atom       Distance
            H    19    H    11     6.84210
            H    10    H    16     4.34337
            H    21    H    17     3.84976


          SCF CALCULATIONS        =          1

          WALL-CLOCK TIME         =      1.195 SECONDS
          COMPUTATION TIME        =      0.387 SECONDS

          LARGEST ATOMIC GRADIENTS

          Atom     Label                     Cartesian Gradients           Cartesian Coordinates       |Gradient|
                                           X          Y          Z        X          Y          Z

            21       H                  -0.006      0.077      0.344   -1.08617    1.07101    2.17238      0.353
            16       H                  -0.007     -0.247      0.251   -1.09377   -1.76380    1.35602      0.352
             9       C                   0.001      0.234     -0.258   -1.23256    0.61062    1.21245      0.348
             6       C                   0.001     -0.059     -0.343   -1.23650   -0.86267    0.78821      0.348
             2       C                  -0.025      0.068     -0.240    2.26199    0.15465   -0.00771      0.251
            13       H                   0.040     -0.143     -0.180    1.40163    0.49326    1.94488      0.233
            12       H                   0.039      0.217     -0.076    1.39694   -1.16654    1.46650      0.233
             7       C                  -0.057      0.174      0.139   -2.50716   -0.63542   -0.05034      0.229
             8       C                  -0.057     -0.219      0.025   -2.50312    0.87036    0.38315      0.227
            10       H                   0.058     -0.065      0.210    2.12710    0.77226   -2.15146      0.227



       FINAL  POINT  AND  DERIVATIVES

   PARAMETER     ATOM    TYPE            VALUE        GRADIENT
      1          1  C    CARTESIAN X     1.622726      0.099341  KCAL/ANGSTROM
      2          1  C    CARTESIAN Y     0.506451     -0.021659  KCAL/ANGSTROM
      3          1  C    CARTESIAN Z    -1.223216      0.067360  KCAL/ANGSTROM
      4          2  C    CARTESIAN X     2.261987     -0.024705  KCAL/ANGSTROM
      5          2  C    CARTESIAN Y     0.154646      0.067503  KCAL/ANGSTROM
      6          2  C    CARTESIAN Z    -0.007715     -0.240068  KCAL/ANGSTROM
      7          3  C    CARTESIAN X     1.272566     -0.149813  KCAL/ANGSTROM
      8          3  C    CARTESIAN Y    -0.138855      0.019557  KCAL/ANGSTROM
      9          3  C    CARTESIAN Z     1.020678     -0.065850  KCAL/ANGSTROM
     10          4  C    CARTESIAN X    -0.092811     -0.097895  KCAL/ANGSTROM
     11          4  C    CARTESIAN Y     0.052272     -0.008471  KCAL/ANGSTROM
     12          4  C    CARTESIAN Z     0.370411      0.034515  KCAL/ANGSTROM
     13          5  C    CARTESIAN X     0.175857     -0.202809  KCAL/ANGSTROM
     14          5  C    CARTESIAN Y     0.465261      0.002818  KCAL/ANGSTROM
     15          5  C    CARTESIAN Z    -1.067191     -0.008802  KCAL/ANGSTROM
     16          6  C    CARTESIAN X    -1.236501      0.000640  KCAL/ANGSTROM
     17          6  C    CARTESIAN Y    -0.862669     -0.058786  KCAL/ANGSTROM
     18          6  C    CARTESIAN Z     0.788206     -0.342544  KCAL/ANGSTROM
     19          7  C    CARTESIAN X    -2.507160     -0.056782  KCAL/ANGSTROM
     20          7  C    CARTESIAN Y    -0.635423      0.173737  KCAL/ANGSTROM
     21          7  C    CARTESIAN Z    -0.050343      0.138557  KCAL/ANGSTROM
     22          8  C    CARTESIAN X    -2.503117     -0.057474  KCAL/ANGSTROM
     23          8  C    CARTESIAN Y     0.870360     -0.218561  KCAL/ANGSTROM
     24          8  C    CARTESIAN Z     0.383153      0.025464  KCAL/ANGSTROM
     25          9  C    CARTESIAN X    -1.232565      0.001239  KCAL/ANGSTROM
     26          9  C    CARTESIAN Y     0.610622      0.233622  KCAL/ANGSTROM
     27          9  C    CARTESIAN Z     1.212449     -0.258390  KCAL/ANGSTROM
     28         10  H    CARTESIAN X     2.127100      0.058232  KCAL/ANGSTROM
     29         10  H    CARTESIAN Y     0.772256     -0.064677  KCAL/ANGSTROM
     30         10  H    CARTESIAN Z    -2.151461      0.210043  KCAL/ANGSTROM
     31         11  H    CARTESIAN X     3.338036     -0.211530  KCAL/ANGSTROM
     32         11  H    CARTESIAN Y     0.104928     -0.009147  KCAL/ANGSTROM
     33         11  H    CARTESIAN Z     0.154449      0.020366  KCAL/ANGSTROM
     34         12  H    CARTESIAN X     1.396939      0.038674  KCAL/ANGSTROM
     35         12  H    CARTESIAN Y    -1.166543      0.216898  KCAL/ANGSTROM
     36         12  H    CARTESIAN Z     1.466498     -0.075663  KCAL/ANGSTROM
     37         13  H    CARTESIAN X     1.401631      0.039969  KCAL/ANGSTROM
     38         13  H    CARTESIAN Y     0.493257     -0.142648  KCAL/ANGSTROM
     39         13  H    CARTESIAN Z     1.944875     -0.180457  KCAL/ANGSTROM
     40         14  H    CARTESIAN X    -0.327454      0.144695  KCAL/ANGSTROM
     41         14  H    CARTESIAN Y    -0.219049      0.085875  KCAL/ANGSTROM
     42         14  H    CARTESIAN Z    -1.809213      0.001779  KCAL/ANGSTROM
     43         15  H    CARTESIAN X    -0.323544      0.146704  KCAL/ANGSTROM
     44         15  H    CARTESIAN Y     1.441403     -0.074018  KCAL/ANGSTROM
     45         15  H    CARTESIAN Z    -1.331624     -0.045826  KCAL/ANGSTROM
     46         16  H    CARTESIAN X    -1.093771     -0.006680  KCAL/ANGSTROM
     47         16  H    CARTESIAN Y    -1.763799     -0.246717  KCAL/ANGSTROM
     48         16  H    CARTESIAN Z     1.356023      0.250798  KCAL/ANGSTROM
     49         17  H    CARTESIAN X    -2.421854      0.188923  KCAL/ANGSTROM
     50         17  H    CARTESIAN Y    -0.825184      0.045683  KCAL/ANGSTROM
     51         17  H    CARTESIAN Z    -1.121002      0.038460  KCAL/ANGSTROM
     52         18  H    CARTESIAN X    -3.376785     -0.046997  KCAL/ANGSTROM
     53         18  H    CARTESIAN Y    -1.197367     -0.006348  KCAL/ANGSTROM
     54         18  H    CARTESIAN Z     0.319097      0.040705  KCAL/ANGSTROM
     55         19  H    CARTESIAN X    -3.370557     -0.046828  KCAL/ANGSTROM
     56         19  H    CARTESIAN Y     1.154194     -0.013170  KCAL/ANGSTROM
     57         19  H    CARTESIAN Z     0.995971      0.037189  KCAL/ANGSTROM
     58         20  H    CARTESIAN X    -2.415226      0.189575  KCAL/ANGSTROM
     59         20  H    CARTESIAN Y     1.599831     -0.058495  KCAL/ANGSTROM
     60         20  H    CARTESIAN Z    -0.422935      0.008102  KCAL/ANGSTROM
     61         21  H    CARTESIAN X    -1.086174     -0.006481  KCAL/ANGSTROM
     62         21  H    CARTESIAN Y     1.071006      0.077001  KCAL/ANGSTROM
     63         21  H    CARTESIAN Z     2.172378      0.344259  KCAL/ANGSTROM




   ATOM   CHEMICAL          X               Y               Z
  NUMBER   SYMBOL      (ANGSTROMS)     (ANGSTROMS)     (ANGSTROMS)

     1       C          1.62272590  *   0.50645127  *  -1.22321551  *
     2       C          2.26198729  *   0.15464608  *  -0.00771480  *
     3       C          1.27256639  *  -0.13885522  *   1.02067792  *
     4       C         -0.09281052  *   0.05227169  *   0.37041101  *
     5       C          0.17585743  *   0.46526126  *  -1.06719087  *
     6       C         -1.23650080  *  -0.86266873  *   0.78820625  *
     7       C         -2.50716029  *  -0.63542282  *  -0.05034258  *
     8       C         -2.50311651  *   0.87035994  *   0.38315347  *
     9       C         -1.23256472  *   0.61062221  *   1.21244890  *
    10       H          2.12710018  *   0.77225598  *  -2.15146141  *
    11       H          3.33803605  *   0.10492751  *   0.15444851  *
    12       H          1.39693852  *  -1.16654327  *   1.46649778  *
    13       H          1.40163110  *   0.49325654  *   1.94487544  *
    14       H         -0.32745421  *  -0.21904856  *  -1.80921286  *
    15       H         -0.32354355  *   1.44140321  *  -1.33162408  *
    16       H         -1.09377051  *  -1.76379929  *   1.35602302  *
    17       H         -2.42185379  *  -0.82518358  *  -1.12100188  *
    18       H         -3.37678464  *  -1.19736682  *   0.31909655  *
    19       H         -3.37055672  *   1.15419350  *   0.99597130  *
    20       H         -2.41522556  *   1.59983128  *  -0.42293521  *
    21       H         -1.08617426  *   1.07100559  *   2.17237822  *

                             CARTESIAN COORDINATES

   1    C        1.622725900     0.506451266    -1.223215511
   2    C        2.261987292     0.154646083    -0.007714800
   3    C        1.272566393    -0.138855221     1.020677924
   4    C       -0.092810521     0.052271688     0.370411009
   5    C        0.175857431     0.465261255    -1.067190869
   6    C       -1.236500797    -0.862668730     0.788206250
   7    C       -2.507160286    -0.635422822    -0.050342579
   8    C       -2.503116507     0.870359939     0.383153467
   9    C       -1.232564721     0.610622211     1.212448902
  10    H        2.127100179     0.772255979    -2.151461411
  11    H        3.338036052     0.104927505     0.154448509
  12    H        1.396938520    -1.166543267     1.466497777
  13    H        1.401631102     0.493256539     1.944875443
  14    H       -0.327454206    -0.219048563    -1.809212856
  15    H       -0.323543547     1.441403212    -1.331624078
  16    H       -1.093770506    -1.763799286     1.356023020
  17    H       -2.421853788    -0.825183577    -1.121001882
  18    H       -3.376784643    -1.197366817     0.319096545
  19    H       -3.370556717     1.154193501     0.995971295
  20    H       -2.415225559     1.599831276    -0.422935207
  21    H       -1.086174264     1.071005593     2.172378224


           Empirical Formula: C9 H12  =    21 atoms



      MOLECULAR POINT GROUP   :   Cs  


          ALPHA EIGENVALUES  
 -37.04569 -35.06981 -30.84106 -29.51465 -27.17504 -26.32376 -24.51196 -23.60752
 -22.21763 -22.00929 -20.49445 -20.48288 -19.12034 -18.91031 -18.78141 -18.72668
 -18.32731 -17.26614 -16.72237 -16.05841 -15.69535 -15.42247 -14.53607 -14.42150
  -5.90655  -2.01621  -1.97622  -1.95348  -1.30962  -1.08189  -0.55292  -0.46869
  -0.14972  -0.13789   0.05036   0.06588   0.10307   0.22663   0.24972   0.96188
   1.12011   1.53258   1.99866   2.31322   2.37503   2.63178   3.00166   3.06994


           BETA EIGENVALUES 
 -36.96657 -34.95513 -30.73520 -29.38926 -27.04440 -26.31353 -24.38318 -23.48917
 -22.14596 -21.95550 -20.45450 -20.01036 -19.02484 -18.80951 -18.66686 -18.33328
 -18.26946 -17.24540 -16.34019 -16.05340 -15.50712 -14.67975 -14.40671  -7.95394
  -4.59847  -1.98268  -1.87039  -1.82963  -1.24781  -0.96070  -0.46457  -0.43592
  -0.13032  -0.11694   0.07042   0.15131   0.18961   0.32417   0.35066   1.03359
   1.18308   1.53703   2.00117   2.31598   2.37740   2.63292   3.00251   3.07072


              NET ATOMIC CHARGES AND DIPOLE CONTRIBUTIONS

  ATOM NO.   TYPE          CHARGE      No. of ELECS.   s-Pop       p-Pop       
    1          C           0.099886        3.9001     1.16068     2.73944
    2          C           0.101002        3.8990     1.16009     2.73891
    3          C          -0.338911        4.3389     1.06597     3.27294
    4          C          -0.062327        4.0623     1.04375     3.01858
    5          C          -0.331816        4.3318     1.06437     3.26745
    6          C          -0.162472        4.1625     1.07440     3.08807
    7          C          -0.259091        4.2591     1.06989     3.18920
    8          C          -0.259063        4.2591     1.06990     3.18916
    9          C          -0.162360        4.1624     1.07442     3.08794
   10          H           0.199335        0.8007     0.80066
   11          H           0.200308        0.7997     0.79969
   12          H           0.240745        0.7593     0.75925
   13          H           0.240744        0.7593     0.75926
   14          H           0.242126        0.7579     0.75787
   15          H           0.242116        0.7579     0.75788
   16          H           0.179342        0.8207     0.82066
   17          H           0.146891        0.8531     0.85311
   18          H           0.178650        0.8214     0.82135
   19          H           0.178654        0.8213     0.82135
   20          H           0.146891        0.8531     0.85311
   21          H           0.179349        0.8207     0.82065
 DIPOLE           X         Y         Z       TOTAL
 POINT-CHG.     5.682     0.538    -1.926     6.023
 HYBRID         0.465     0.016    -0.060     0.469
 SUM            6.147     0.554    -1.985     6.483


          ATOMIC ORBITAL ELECTRON POPULATIONS

     Atom    s        px        py        pz   
    1  C   1.16068   1.01986   0.69478   1.02480
    2  C   1.16009   1.08632   0.69188   0.96072
    3  C   1.06597   1.00831   1.17908   1.08556
    4  C   1.04375   0.92183   1.15625   0.94049
    5  C   1.06437   1.00755   1.17621   1.08368
    6  C   1.07440   0.97122   1.01240   1.10445
    7  C   1.06989   1.04902   1.02698   1.11320
    8  C   1.06990   1.04879   1.03278   1.10759
    9  C   1.07442   0.97179   1.03345   1.08270
   10  H   0.80066
   11  H   0.79969
   12  H   0.75925
   13  H   0.75926
   14  H   0.75787
   15  H   0.75788
   16  H   0.82066
   17  H   0.85311
   18  H   0.82135
   19  H   0.82135
   20  H   0.85311
   21  H   0.82065


                    (SZ)    =    0.500000
                    (S**2)  =    0.752299


          ATOMIC ORBITAL SPIN POPULATIONS

    Atom   Total    s     px     py     pz   
         Atomic
    1  C  0.3908  0.007  0.009  0.341  0.033
    2  C  0.4022  0.007  0.010  0.351  0.034
    3  C  0.0163 -0.004 -0.004  0.033 -0.009
    4  C  0.0017 -0.001 -0.002  0.004 -0.000
    5  C  0.0187 -0.004 -0.013  0.036  0.000
    6  C  0.0136  0.001  0.008  0.001  0.003
    7  C -0.0000 -0.000  0.000 -0.000 -0.000
    8  C -0.0000 -0.000  0.000  0.000 -0.000
    9  C  0.0137  0.001  0.008  0.000  0.004
   10  H -0.0110 -0.011
   11  H -0.0113 -0.011
   12  H  0.0407  0.041
   13  H  0.0407  0.041
   14  H  0.0417  0.042
   15  H  0.0417  0.042
   16  H  0.0000  0.000
   17  H -0.0000 -0.000
   18  H  0.0003  0.000
   19  H  0.0003  0.000
   20  H -0.0000 -0.000
   21  H  0.0000  0.000

 **********************
 *                    *
 * JOB ENDED NORMALLY *
 *                    *
 **********************



 TOTAL JOB TIME:             1.62 SECONDS

 == MOPAC DONE ==
