 *******************************************************************************
 **                                                                           **
 **                              MOPAC v23.2                                  **
 **                                                                           **
 *******************************************************************************
 **          Digital Object Identifier (DOI): 10.5281/zenodo.6511958          **
 **    Visit the DOI location for information on how to cite this program.    **
 *******************************************************************************

                              PM7 CALCULATION RESULTS

 *******************************************************************************
 *  CALCULATION DONE: (MAX THREADS = 40)             Fri Sep 19 21:31:12 2025  *
 *  PM7        - The PM7 Hamiltonian to be used
 *
 *
 *
 *                 CHARGE ON SYSTEM = +1
 *
 *
 *
 *  1SCF       - DO 1 SCF AND THEN STOP 
 *  T=         - A TIME OF 172800.0 SECONDS REQUESTED
 *  DUMP=N     - RESTART FILE WRITTEN EVERY 7200.0 SECONDS REQUESTED
 *  RELSCF     - DEFAULT SCF CRITERION MULTIPLIED BY 0.0001
 *              (DEFAULT SCF CRITERION = 0.00010)
 *  GRADIENTS  - ALL GRADIENTS TO BE PRINTED
 *  DISP       - PRINT DISPERSION AND HYDROGEN BOND ENERGIES
 *******************************************************************************
PM7 1SCF GRADIENTS DISP RELSCF=0.0001 CHARGE=1
 Title: ASE calculation

   ATOM   CHEMICAL          X               Y               Z
  NUMBER   SYMBOL      (ANGSTROMS)     (ANGSTROMS)     (ANGSTROMS)

     1       O         -2.75071594  *  -1.11646954  *  -0.35547352  *
     2       C         -1.61599596  *  -1.50308828  *  -0.45043385  *
     3       C         -0.50563527  *  -0.50640934  *  -0.49881020  *
     4       C          0.79662587  *  -0.81465420  *  -0.58557924  *
     5       C          1.86408032  *   0.22979308  *  -0.66069290  *
     6       C          1.50807544  *   1.54947322  *   0.06889563  *
     7       N          0.11190454  *   1.79283403  *  -0.00485631  *
     8       C         -1.01118150  *   1.73166381  *   0.87567651  *
     9       C         -0.93339325  *   0.90859607  *  -0.45856270  *
    10       H         -1.34448298  *  -2.56506121  *  -0.49775365  *
    11       H          1.15118652  *  -1.85279293  *  -0.63597988  *
    12       H          2.83172213  *  -0.15330391  *  -0.25224641  *
    13       H          2.08855886  *   0.43040074  *  -1.74074641  *
    14       H          1.86960024  *   1.54614497  *   1.13455574  *
    15       H          2.05786873  *   2.41958615  *  -0.40863599  *
    16       H         -0.90344440  *   1.29351460  *   1.88083165  *
    17       H         -1.72936597  *   2.57619564  *   0.90514537  *
    18       H         -1.63008110  *   1.21315258  *  -1.27404559  *



          CARTESIAN COORDINATES 

    NO.       ATOM           X           Y           Z

     1         O         -2.7507     -1.1165     -0.3555
     2         C         -1.6160     -1.5031     -0.4504
     3         C         -0.5056     -0.5064     -0.4988
     4         C          0.7966     -0.8147     -0.5856
     5         C          1.8641      0.2298     -0.6607
     6         C          1.5081      1.5495      0.0689
     7         N          0.1119      1.7928     -0.0049
     8         C         -1.0112      1.7317      0.8757
     9         C         -0.9334      0.9086     -0.4586
    10         H         -1.3445     -2.5651     -0.4978
    11         H          1.1512     -1.8528     -0.6360
    12         H          2.8317     -0.1533     -0.2522
    13         H          2.0886      0.4304     -1.7407
    14         H          1.8696      1.5461      1.1346
    15         H          2.0579      2.4196     -0.4086
    16         H         -0.9034      1.2935      1.8808
    17         H         -1.7294      2.5762      0.9051
    18         H         -1.6301      1.2132     -1.2740

 General Reference for PM7:
 "Optimization of Parameters for Semiempirical Methods VI: More Modifications to the 
 NDDO Approximations and Re-optimization of Parameters", J. J. P. Stewart, J. Mol. Mod., 1:32, 19 (2013)
 https://link.springer.com/article/10.1007/s00894-012-1667-x

           Empirical Formula: C7 H9 N O  =    18 atoms



      MOLECULAR POINT GROUP   :   C1  


          UHF CALCULATION, NO. OF ALPHA ELECTRONS =   24
                           NO. OF BETA  ELECTRONS =   23
  SCF CRITERION =    0.1000E-07

 -------------------------------------------------------------------------------
 PM7 1SCF GRADIENTS DISP RELSCF=0.0001 CHARGE=1
 Title: ASE calculation



     1SCF WAS SPECIFIED, SO BFGS WAS NOT USED                 
     SCF FIELD WAS ACHIEVED                                   


                              PM7 CALCULATION
                                                       MOPAC v23.2 Linux
                                                       Fri Sep 19 21:31:12 2025




          FINAL HEAT OF FORMATION =        213.87337 KCAL/MOL =     894.84620 KJ/MOL

          TOTAL ENERGY            =     -33493.43816 KCAL/MOL = ELECTRONIC ENERGY + CORE-CORE REPULSION
          ENERGY OF ATOMS         =      33709.16394 KCAL/MOL
                              SUM =        215.72577 KCAL/MOL
          DISPERSION ENERGY       =         -1.85240 KCAL/MOL
                              SUM =        213.87337 KCAL/MOL = FINAL HEAT OF FORMATION



          TOTAL ENERGY            =      -1452.41294 EV
          ELECTRONIC ENERGY       =      -6959.96323 EV 
          CORE-CORE REPULSION     =       5507.55029 EV
          COSMO AREA              =        159.10 SQUARE ANGSTROMS
          COSMO VOLUME            =        157.49 CUBIC ANGSTROMS

          GRADIENT NORM           =          1.07739          =       0.25394 PER ATOM
          IONIZATION POTENTIAL    =         14.101479 EV
          ALPHA SOMO LUMO (EV)    =        -14.101 -4.832
          BETA  SOMO LUMO (EV)    =        -14.105 -7.278
          NO. OF ALPHA ELECTRONS  =         24
          NO. OF BETA  ELECTRONS  =         23
          MOLECULAR WEIGHT        =        123.1542         POINT GROUP:  C1  

          MOLECULAR DIMENSIONS (Angstroms)

            Atom       Atom       Distance
            H    15    H    10     6.03578
            H    17    H    12     5.43170
            H    18    H    16     3.19334


          SCF CALCULATIONS        =          1

          WALL-CLOCK TIME         =      0.758 SECONDS
          COMPUTATION TIME        =      0.546 SECONDS

          LARGEST ATOMIC GRADIENTS

          Atom     Label                     Cartesian Gradients           Cartesian Coordinates       |Gradient|
                                           X          Y          Z        X          Y          Z

             2       C                  -0.292     -0.031     -0.258   -1.61600   -1.50309   -0.45043      0.391
            14       H                   0.171     -0.321      0.088    1.86960    1.54614    1.13456      0.374
            10       H                   0.253      0.078      0.225   -1.34448   -2.56506   -0.49775      0.347
             1       O                  -0.072      0.149      0.264   -2.75072   -1.11647   -0.35547      0.312
            13       H                  -0.109      0.149     -0.239    2.08856    0.43040   -1.74075      0.302
            16       H                  -0.116     -0.149     -0.235   -0.90344    1.29351    1.88083      0.301
            11       H                   0.162     -0.029      0.228    1.15119   -1.85279   -0.63598      0.281
             9       C                   0.163      0.016     -0.213   -0.93339    0.90860   -0.45856      0.268
             6       C                  -0.148      0.128      0.135    1.50808    1.54947    0.06890      0.238
             7       N                  -0.100      0.111      0.156    0.11190    1.79283   -0.00486      0.216



       FINAL  POINT  AND  DERIVATIVES

   PARAMETER     ATOM    TYPE            VALUE        GRADIENT
      1          1  O    CARTESIAN X    -2.750716     -0.072476  KCAL/ANGSTROM
      2          1  O    CARTESIAN Y    -1.116470      0.149383  KCAL/ANGSTROM
      3          1  O    CARTESIAN Z    -0.355474      0.263726  KCAL/ANGSTROM
      4          2  C    CARTESIAN X    -1.615996     -0.291922  KCAL/ANGSTROM
      5          2  C    CARTESIAN Y    -1.503088     -0.030960  KCAL/ANGSTROM
      6          2  C    CARTESIAN Z    -0.450434     -0.257739  KCAL/ANGSTROM
      7          3  C    CARTESIAN X    -0.505635     -0.128614  KCAL/ANGSTROM
      8          3  C    CARTESIAN Y    -0.506409     -0.086063  KCAL/ANGSTROM
      9          3  C    CARTESIAN Z    -0.498810      0.060415  KCAL/ANGSTROM
     10          4  C    CARTESIAN X     0.796626     -0.102836  KCAL/ANGSTROM
     11          4  C    CARTESIAN Y    -0.814654     -0.049794  KCAL/ANGSTROM
     12          4  C    CARTESIAN Z    -0.585579     -0.088680  KCAL/ANGSTROM
     13          5  C    CARTESIAN X     1.864080     -0.044519  KCAL/ANGSTROM
     14          5  C    CARTESIAN Y     0.229793      0.026664  KCAL/ANGSTROM
     15          5  C    CARTESIAN Z    -0.660693     -0.092709  KCAL/ANGSTROM
     16          6  C    CARTESIAN X     1.508075     -0.148273  KCAL/ANGSTROM
     17          6  C    CARTESIAN Y     1.549473      0.128173  KCAL/ANGSTROM
     18          6  C    CARTESIAN Z     0.068896      0.134744  KCAL/ANGSTROM
     19          7  N    CARTESIAN X     0.111905     -0.099735  KCAL/ANGSTROM
     20          7  N    CARTESIAN Y     1.792834      0.110568  KCAL/ANGSTROM
     21          7  N    CARTESIAN Z    -0.004856      0.156238  KCAL/ANGSTROM
     22          8  C    CARTESIAN X    -1.011181     -0.058026  KCAL/ANGSTROM
     23          8  C    CARTESIAN Y     1.731664      0.158005  KCAL/ANGSTROM
     24          8  C    CARTESIAN Z     0.875677      0.041765  KCAL/ANGSTROM
     25          9  C    CARTESIAN X    -0.933393      0.163074  KCAL/ANGSTROM
     26          9  C    CARTESIAN Y     0.908596      0.016252  KCAL/ANGSTROM
     27          9  C    CARTESIAN Z    -0.458563     -0.212565  KCAL/ANGSTROM
     28         10  H    CARTESIAN X    -1.344483      0.252861  KCAL/ANGSTROM
     29         10  H    CARTESIAN Y    -2.565061      0.077889  KCAL/ANGSTROM
     30         10  H    CARTESIAN Z    -0.497754      0.224579  KCAL/ANGSTROM
     31         11  H    CARTESIAN X     1.151187      0.161828  KCAL/ANGSTROM
     32         11  H    CARTESIAN Y    -1.852793     -0.028639  KCAL/ANGSTROM
     33         11  H    CARTESIAN Z    -0.635980      0.227682  KCAL/ANGSTROM
     34         12  H    CARTESIAN X     2.831722      0.206551  KCAL/ANGSTROM
     35         12  H    CARTESIAN Y    -0.153304     -0.033736  KCAL/ANGSTROM
     36         12  H    CARTESIAN Z    -0.252246     -0.047311  KCAL/ANGSTROM
     37         13  H    CARTESIAN X     2.088559     -0.109045  KCAL/ANGSTROM
     38         13  H    CARTESIAN Y     0.430401      0.149147  KCAL/ANGSTROM
     39         13  H    CARTESIAN Z    -1.740746     -0.239180  KCAL/ANGSTROM
     40         14  H    CARTESIAN X     1.869600      0.170501  KCAL/ANGSTROM
     41         14  H    CARTESIAN Y     1.546145     -0.320914  KCAL/ANGSTROM
     42         14  H    CARTESIAN Z     1.134556      0.087963  KCAL/ANGSTROM
     43         15  H    CARTESIAN X     2.057869      0.145533  KCAL/ANGSTROM
     44         15  H    CARTESIAN Y     2.419586      0.069390  KCAL/ANGSTROM
     45         15  H    CARTESIAN Z    -0.408636      0.068335  KCAL/ANGSTROM
     46         16  H    CARTESIAN X    -0.903444     -0.116196  KCAL/ANGSTROM
     47         16  H    CARTESIAN Y     1.293515     -0.148987  KCAL/ANGSTROM
     48         16  H    CARTESIAN Z     1.880832     -0.234789  KCAL/ANGSTROM
     49         17  H    CARTESIAN X    -1.729366     -0.050066  KCAL/ANGSTROM
     50         17  H    CARTESIAN Y     2.576196     -0.070605  KCAL/ANGSTROM
     51         17  H    CARTESIAN Z     0.905145      0.017459  KCAL/ANGSTROM
     52         18  H    CARTESIAN X    -1.630081      0.121359  KCAL/ANGSTROM
     53         18  H    CARTESIAN Y     1.213153     -0.115773  KCAL/ANGSTROM
     54         18  H    CARTESIAN Z    -1.274046     -0.109939  KCAL/ANGSTROM




   ATOM   CHEMICAL          X               Y               Z
  NUMBER   SYMBOL      (ANGSTROMS)     (ANGSTROMS)     (ANGSTROMS)

     1       O         -2.75071594  *  -1.11646954  *  -0.35547352  *
     2       C         -1.61599596  *  -1.50308828  *  -0.45043385  *
     3       C         -0.50563527  *  -0.50640934  *  -0.49881020  *
     4       C          0.79662587  *  -0.81465420  *  -0.58557924  *
     5       C          1.86408032  *   0.22979308  *  -0.66069290  *
     6       C          1.50807544  *   1.54947322  *   0.06889563  *
     7       N          0.11190454  *   1.79283403  *  -0.00485631  *
     8       C         -1.01118150  *   1.73166381  *   0.87567651  *
     9       C         -0.93339325  *   0.90859607  *  -0.45856270  *
    10       H         -1.34448298  *  -2.56506121  *  -0.49775365  *
    11       H          1.15118652  *  -1.85279293  *  -0.63597988  *
    12       H          2.83172213  *  -0.15330391  *  -0.25224641  *
    13       H          2.08855886  *   0.43040074  *  -1.74074641  *
    14       H          1.86960024  *   1.54614497  *   1.13455574  *
    15       H          2.05786873  *   2.41958615  *  -0.40863599  *
    16       H         -0.90344440  *   1.29351460  *   1.88083165  *
    17       H         -1.72936597  *   2.57619564  *   0.90514537  *
    18       H         -1.63008110  *   1.21315258  *  -1.27404559  *

                             CARTESIAN COORDINATES

   1    O       -2.750715938    -1.116469537    -0.355473522
   2    C       -1.615995961    -1.503088285    -0.450433848
   3    C       -0.505635275    -0.506409344    -0.498810195
   4    C        0.796625874    -0.814654202    -0.585579238
   5    C        1.864080320     0.229793082    -0.660692898
   6    C        1.508075440     1.549473217     0.068895629
   7    N        0.111904537     1.792834034    -0.004856315
   8    C       -1.011181498     1.731663812     0.875676513
   9    C       -0.933393245     0.908596072    -0.458562703
  10    H       -1.344482985    -2.565061209    -0.497753655
  11    H        1.151186519    -1.852792927    -0.635979883
  12    H        2.831722127    -0.153303914    -0.252246410
  13    H        2.088558856     0.430400735    -1.740746406
  14    H        1.869600235     1.546144967     1.134555741
  15    H        2.057868728     2.419586153    -0.408635988
  16    H       -0.903444396     1.293514596     1.880831653
  17    H       -1.729365973     2.576195642     0.905145374
  18    H       -1.630081103     1.213152584    -1.274045590


           Empirical Formula: C7 H9 N O  =    18 atoms



      MOLECULAR POINT GROUP   :   C1  


          ALPHA EIGENVALUES  
 -44.11374 -35.15870 -34.04228 -32.90575 -29.35552 -27.70232 -27.46468 -25.46192
 -23.55896 -22.84630 -22.05289 -21.59608 -20.26945 -20.00325 -19.23953 -18.94264
 -18.55909 -18.15272 -17.78627 -17.63332 -17.35225 -16.22242 -14.91805 -14.10148
  -4.83184  -4.47709  -3.69641  -2.70074  -2.39390  -1.68495  -1.59351  -1.46395
  -0.82052  -0.45345  -0.31382  -0.09910   0.18275   0.21795   0.30032   0.39917
   0.53676   1.05565   1.16372   1.32314   1.52021


           BETA EIGENVALUES 
 -42.86969 -35.14055 -33.94272 -32.65442 -29.17027 -27.53224 -27.20158 -25.25655
 -23.03695 -22.51129 -21.83332 -21.35241 -19.95634 -19.82644 -19.13060 -18.65682
 -18.44379 -17.93551 -17.65553 -17.44818 -17.15360 -14.91882 -14.10456  -7.27765
  -4.80651  -3.87732  -3.44690  -2.61078  -2.34586  -1.56726  -1.51093  -1.18152
  -0.59962  -0.33998  -0.28691   0.01975   0.22154   0.32167   0.35981   0.42805
   0.55033   1.06282   1.16902   1.32643   1.52640


              NET ATOMIC CHARGES AND DIPOLE CONTRIBUTIONS

  ATOM NO.   TYPE          CHARGE      No. of ELECS.   s-Pop       p-Pop       
    1          O          -0.356888        6.3569     1.87991     4.47698
    2          C           0.342171        3.6578     1.13788     2.51995
    3          C          -0.254516        4.2545     1.09007     3.16444
    4          C          -0.018886        4.0189     1.10707     2.91181
    5          C          -0.315153        4.3152     1.06651     3.24864
    6          C          -0.139658        4.1397     1.08213     3.05752
    7          N          -0.019280        5.0193     1.58495     3.43433
    8          C          -0.159473        4.1595     1.10615     3.05332
    9          C           0.026007        3.9740     1.09565     2.87834
   10          H           0.153519        0.8465     0.84648
   11          H           0.192030        0.8080     0.80797
   12          H           0.202847        0.7972     0.79715
   13          H           0.204733        0.7953     0.79527
   14          H           0.206522        0.7935     0.79348
   15          H           0.232812        0.7672     0.76719
   16          H           0.218954        0.7810     0.78105
   17          H           0.239141        0.7609     0.76086
   18          H           0.245116        0.7549     0.75488
 DIPOLE           X         Y         Z       TOTAL
 POINT-CHG.     5.037     2.808     1.094     5.870
 HYBRID         0.208     0.793     0.088     0.824
 SUM            5.245     3.601     1.181     6.471


          ATOMIC ORBITAL ELECTRON POPULATIONS

     Atom    s        px        py        pz   
    1  O   1.87991   1.30648   1.84392   1.32658
    2  C   1.13788   0.83752   0.97959   0.70284
    3  C   1.09007   1.03787   0.98660   1.13997
    4  C   1.10707   0.97088   1.08338   0.85756
    5  C   1.06651   1.10757   0.97426   1.16681
    6  C   1.08213   0.80187   1.08169   1.17396
    7  N   1.58495   1.08976   1.12765   1.21691
    8  C   1.10615   0.91763   1.09379   1.04190
    9  C   1.09565   0.92621   0.93146   1.02067
   10  H   0.84648
   11  H   0.80797
   12  H   0.79715
   13  H   0.79527
   14  H   0.79348
   15  H   0.76719
   16  H   0.78105
   17  H   0.76086
   18  H   0.75488


                    (SZ)    =    0.500000
                    (S**2)  =    0.757774


          ATOMIC ORBITAL SPIN POPULATIONS

    Atom   Total    s     px     py     pz   
         Atomic
    1  O  0.0012  0.000 -0.000  0.002 -0.000
    2  C  0.0027 -0.000  0.001  0.002  0.000
    3  C  0.0182  0.001 -0.001  0.019 -0.001
    4  C  0.0021 -0.000 -0.001 -0.001  0.005
    5  C  0.0247  0.002  0.003  0.018  0.002
    6  C -0.0188 -0.005 -0.030  0.013  0.003
    7  N  0.8233  0.059  0.035  0.522  0.208
    8  C  0.0239 -0.005 -0.022  0.056 -0.006
    9  C  0.0013 -0.005 -0.024  0.002  0.028
   10  H  0.0023  0.002
   11  H  0.0010  0.001
   12  H  0.0008  0.001
   13  H -0.0011 -0.001
   14  H  0.0228  0.023
   15  H  0.0415  0.042
   16  H  0.0170  0.017
   17  H  0.0199  0.020
   18  H  0.0171  0.017

 **********************
 *                    *
 * JOB ENDED NORMALLY *
 *                    *
 **********************



 TOTAL JOB TIME:             0.93 SECONDS

 == MOPAC DONE ==
