 *******************************************************************************
 **                                                                           **
 **                              MOPAC v23.2                                  **
 **                                                                           **
 *******************************************************************************
 **          Digital Object Identifier (DOI): 10.5281/zenodo.6511958          **
 **    Visit the DOI location for information on how to cite this program.    **
 *******************************************************************************

                              PM7 CALCULATION RESULTS

 *******************************************************************************
 *  CALCULATION DONE: (MAX THREADS = 40)             Fri Sep 19 21:40:19 2025  *
 *  PM7        - The PM7 Hamiltonian to be used
 *  1SCF       - DO 1 SCF AND THEN STOP 
 *  T=         - A TIME OF 172800.0 SECONDS REQUESTED
 *  DUMP=N     - RESTART FILE WRITTEN EVERY 7200.0 SECONDS REQUESTED
 *  RELSCF     - DEFAULT SCF CRITERION MULTIPLIED BY 0.0001
 *              (DEFAULT SCF CRITERION = 0.00010)
 *  GRADIENTS  - ALL GRADIENTS TO BE PRINTED
 *  DISP       - PRINT DISPERSION AND HYDROGEN BOND ENERGIES
 *******************************************************************************
PM7 1SCF GRADIENTS DISP RELSCF=0.0001
 Title: ASE calculation

   ATOM   CHEMICAL          X               Y               Z
  NUMBER   SYMBOL      (ANGSTROMS)     (ANGSTROMS)     (ANGSTROMS)

     1       C          0.81137228  *  -1.91244279  *   0.63499661  *
     2       C          0.64359389  *  -0.48955838  *   0.29502994  *
     3       C          1.56877546  *   0.48053536  *   0.22756647  *
     4       C          0.90802469  *   1.77079693  *  -0.16161092  *
     5       O         -0.49127810  *   1.46560373  *  -0.31493620  *
     6       C         -0.69657593  *   0.09158171  *  -0.04523807  *
     7       C         -1.58922282  *  -0.56933740  *  -1.12990050  *
     8       O         -2.65902023  *  -0.77330459  *  -0.16641525  *
     9       C         -1.91114469  *  -0.12291286  *   0.89766069  *
    10       H          0.20982697  *  -2.19178519  *   1.51552295  *
    11       H          1.85587414  *  -2.17314348  *   0.85877766  *
    12       H          0.48151032  *  -2.56673856  *  -0.18859311  *
    13       H          2.62301774  *   0.42075485  *   0.40763379  *
    14       H          1.24201671  *   2.16901366  *  -1.13460781  *
    15       H          0.96638980  *   2.55490237  *   0.61209743  *
    16       H         -1.25770059  *  -1.53236438  *  -1.51932661  *
    17       H         -1.92838765  *   0.10232693  *  -1.92401006  *
    18       H         -1.77300895  *  -0.81772147  *   1.72661094  *
    19       H         -2.42551759  *   0.79173946  *   1.20690462  *



          CARTESIAN COORDINATES 

    NO.       ATOM           X           Y           Z

     1         C          0.8114     -1.9124      0.6350
     2         C          0.6436     -0.4896      0.2950
     3         C          1.5688      0.4805      0.2276
     4         C          0.9080      1.7708     -0.1616
     5         O         -0.4913      1.4656     -0.3149
     6         C         -0.6966      0.0916     -0.0452
     7         C         -1.5892     -0.5693     -1.1299
     8         O         -2.6590     -0.7733     -0.1664
     9         C         -1.9111     -0.1229      0.8977
    10         H          0.2098     -2.1918      1.5155
    11         H          1.8559     -2.1731      0.8588
    12         H          0.4815     -2.5667     -0.1886
    13         H          2.6230      0.4208      0.4076
    14         H          1.2420      2.1690     -1.1346
    15         H          0.9664      2.5549      0.6121
    16         H         -1.2577     -1.5324     -1.5193
    17         H         -1.9284      0.1023     -1.9240
    18         H         -1.7730     -0.8177      1.7266
    19         H         -2.4255      0.7917      1.2069

 General Reference for PM7:
 "Optimization of Parameters for Semiempirical Methods VI: More Modifications to the 
 NDDO Approximations and Re-optimization of Parameters", J. J. P. Stewart, J. Mol. Mod., 1:32, 19 (2013)
 https://link.springer.com/article/10.1007/s00894-012-1667-x

           Empirical Formula: C7 H10 O2  =    19 atoms



      MOLECULAR POINT GROUP   :   Cs  


      RHF CALCULATION, NO. OF DOUBLY OCCUPIED LEVELS = 25

  SCF CRITERION =    0.1000E-07

 -------------------------------------------------------------------------------
 PM7 1SCF GRADIENTS DISP RELSCF=0.0001
 Title: ASE calculation



     1SCF WAS SPECIFIED, SO BFGS WAS NOT USED                 
     SCF FIELD WAS ACHIEVED                                   


                              PM7 CALCULATION
                                                       MOPAC v23.2 Linux
                                                       Fri Sep 19 21:40:19 2025




          FINAL HEAT OF FORMATION =        -47.84899 KCAL/MOL =    -200.20016 KJ/MOL

          TOTAL ENERGY            =     -36528.39274 KCAL/MOL = ELECTRONIC ENERGY + CORE-CORE REPULSION
          ENERGY OF ATOMS         =      36482.50324 KCAL/MOL
                              SUM =        -45.88950 KCAL/MOL
          DISPERSION ENERGY       =         -1.95949 KCAL/MOL
                              SUM =        -47.84899 KCAL/MOL = FINAL HEAT OF FORMATION



          TOTAL ENERGY            =      -1584.02103 EV
          ELECTRONIC ENERGY       =      -7698.94119 EV 
          CORE-CORE REPULSION     =       6114.92016 EV
          COSMO AREA              =        158.68 SQUARE ANGSTROMS
          COSMO VOLUME            =        157.61 CUBIC ANGSTROMS

          GRADIENT NORM           =          0.99902          =       0.22919 PER ATOM
          IONIZATION POTENTIAL    =          9.535439 EV
          HOMO LUMO ENERGIES (EV) =         -9.535  0.458
          NO. OF FILLED LEVELS    =         25
          MOLECULAR WEIGHT        =        126.1548         POINT GROUP:  Cs  

          MOLECULAR DIMENSIONS (Angstroms)

            Atom       Atom       Distance
            H    13    O     8     5.44566
            H    12    H    15     4.92876
            H    18    H    17     3.72470


          SCF CALCULATIONS        =          1

          WALL-CLOCK TIME         =      0.789 SECONDS
          COMPUTATION TIME        =      0.521 SECONDS

          LARGEST ATOMIC GRADIENTS

          Atom     Label                     Cartesian Gradients           Cartesian Coordinates       |Gradient|
                                           X          Y          Z        X          Y          Z

            12       H                  -0.292      0.253      0.130    0.48151   -2.56674   -0.18859      0.407
            10       H                  -0.213      0.160     -0.299    0.20983   -2.19179    1.51552      0.400
             2       C                  -0.304     -0.210     -0.005    0.64359   -0.48956    0.29503      0.370
             6       C                  -0.034     -0.236      0.046   -0.69658    0.09158   -0.04524      0.242
            19       H                   0.102     -0.169      0.091   -2.42552    0.79174    1.20690      0.218
            17       H                   0.106     -0.186      0.025   -1.92839    0.10233   -1.92401      0.216
             8       O                   0.202      0.049      0.024   -2.65902   -0.77330   -0.16642      0.209
             3       C                  -0.201      0.013     -0.034    1.56878    0.48054    0.22757      0.205
            13       H                   0.199      0.023      0.025    2.62302    0.42075    0.40763      0.202
            16       H                   0.017      0.004      0.197   -1.25770   -1.53236   -1.51933      0.198



       FINAL  POINT  AND  DERIVATIVES

   PARAMETER     ATOM    TYPE            VALUE        GRADIENT
      1          1  C    CARTESIAN X     0.811372      0.014868  KCAL/ANGSTROM
      2          1  C    CARTESIAN Y    -1.912443     -0.142271  KCAL/ANGSTROM
      3          1  C    CARTESIAN Z     0.634997      0.030852  KCAL/ANGSTROM
      4          2  C    CARTESIAN X     0.643594     -0.304484  KCAL/ANGSTROM
      5          2  C    CARTESIAN Y    -0.489558     -0.209517  KCAL/ANGSTROM
      6          2  C    CARTESIAN Z     0.295030     -0.004623  KCAL/ANGSTROM
      7          3  C    CARTESIAN X     1.568775     -0.201473  KCAL/ANGSTROM
      8          3  C    CARTESIAN Y     0.480535      0.013331  KCAL/ANGSTROM
      9          3  C    CARTESIAN Z     0.227566     -0.034500  KCAL/ANGSTROM
     10          4  C    CARTESIAN X     0.908025     -0.104844  KCAL/ANGSTROM
     11          4  C    CARTESIAN Y     1.770797      0.126301  KCAL/ANGSTROM
     12          4  C    CARTESIAN Z    -0.161611     -0.043741  KCAL/ANGSTROM
     13          5  O    CARTESIAN X    -0.491278      0.056377  KCAL/ANGSTROM
     14          5  O    CARTESIAN Y     1.465604     -0.038545  KCAL/ANGSTROM
     15          5  O    CARTESIAN Z    -0.314936      0.015406  KCAL/ANGSTROM
     16          6  C    CARTESIAN X    -0.696576     -0.033583  KCAL/ANGSTROM
     17          6  C    CARTESIAN Y     0.091582     -0.235626  KCAL/ANGSTROM
     18          6  C    CARTESIAN Z    -0.045238      0.046155  KCAL/ANGSTROM
     19          7  C    CARTESIAN X    -1.589223      0.104417  KCAL/ANGSTROM
     20          7  C    CARTESIAN Y    -0.569337      0.085925  KCAL/ANGSTROM
     21          7  C    CARTESIAN Z    -1.129901      0.105493  KCAL/ANGSTROM
     22          8  O    CARTESIAN X    -2.659020      0.202211  KCAL/ANGSTROM
     23          8  O    CARTESIAN Y    -0.773305      0.048827  KCAL/ANGSTROM
     24          8  O    CARTESIAN Z    -0.166415      0.024018  KCAL/ANGSTROM
     25          9  C    CARTESIAN X    -1.911145      0.138539  KCAL/ANGSTROM
     26          9  C    CARTESIAN Y    -0.122913      0.041732  KCAL/ANGSTROM
     27          9  C    CARTESIAN Z     0.897661     -0.092565  KCAL/ANGSTROM
     28         10  H    CARTESIAN X     0.209827     -0.212723  KCAL/ANGSTROM
     29         10  H    CARTESIAN Y    -2.191785      0.159501  KCAL/ANGSTROM
     30         10  H    CARTESIAN Z     1.515523     -0.299491  KCAL/ANGSTROM
     31         11  H    CARTESIAN X     1.855874      0.020349  KCAL/ANGSTROM
     32         11  H    CARTESIAN Y    -2.173143     -0.024072  KCAL/ANGSTROM
     33         11  H    CARTESIAN Z     0.858778     -0.000646  KCAL/ANGSTROM
     34         12  H    CARTESIAN X     0.481510     -0.291533  KCAL/ANGSTROM
     35         12  H    CARTESIAN Y    -2.566739      0.252725  KCAL/ANGSTROM
     36         12  H    CARTESIAN Z    -0.188593      0.129623  KCAL/ANGSTROM
     37         13  H    CARTESIAN X     2.623018      0.198704  KCAL/ANGSTROM
     38         13  H    CARTESIAN Y     0.420755      0.022792  KCAL/ANGSTROM
     39         13  H    CARTESIAN Z     0.407634      0.025461  KCAL/ANGSTROM
     40         14  H    CARTESIAN X     1.242017      0.062997  KCAL/ANGSTROM
     41         14  H    CARTESIAN Y     2.169014      0.155155  KCAL/ANGSTROM
     42         14  H    CARTESIAN Z    -1.134608     -0.066328  KCAL/ANGSTROM
     43         15  H    CARTESIAN X     0.966390      0.048161  KCAL/ANGSTROM
     44         15  H    CARTESIAN Y     2.554902      0.171003  KCAL/ANGSTROM
     45         15  H    CARTESIAN Z     0.612097      0.014227  KCAL/ANGSTROM
     46         16  H    CARTESIAN X    -1.257701      0.017209  KCAL/ANGSTROM
     47         16  H    CARTESIAN Y    -1.532364      0.003506  KCAL/ANGSTROM
     48         16  H    CARTESIAN Z    -1.519327      0.197053  KCAL/ANGSTROM
     49         17  H    CARTESIAN X    -1.928388      0.106367  KCAL/ANGSTROM
     50         17  H    CARTESIAN Y     0.102327     -0.186214  KCAL/ANGSTROM
     51         17  H    CARTESIAN Z    -1.924010      0.024661  KCAL/ANGSTROM
     52         18  H    CARTESIAN X    -1.773009      0.076015  KCAL/ANGSTROM
     53         18  H    CARTESIAN Y    -0.817721     -0.075469  KCAL/ANGSTROM
     54         18  H    CARTESIAN Z     1.726611     -0.162058  KCAL/ANGSTROM
     55         19  H    CARTESIAN X    -2.425518      0.102428  KCAL/ANGSTROM
     56         19  H    CARTESIAN Y     0.791739     -0.169085  KCAL/ANGSTROM
     57         19  H    CARTESIAN Z     1.206905      0.091000  KCAL/ANGSTROM




   ATOM   CHEMICAL          X               Y               Z
  NUMBER   SYMBOL      (ANGSTROMS)     (ANGSTROMS)     (ANGSTROMS)

     1       C          0.81137228  *  -1.91244279  *   0.63499661  *
     2       C          0.64359389  *  -0.48955838  *   0.29502994  *
     3       C          1.56877546  *   0.48053536  *   0.22756647  *
     4       C          0.90802469  *   1.77079693  *  -0.16161092  *
     5       O         -0.49127810  *   1.46560373  *  -0.31493620  *
     6       C         -0.69657593  *   0.09158171  *  -0.04523807  *
     7       C         -1.58922282  *  -0.56933740  *  -1.12990050  *
     8       O         -2.65902023  *  -0.77330459  *  -0.16641525  *
     9       C         -1.91114469  *  -0.12291286  *   0.89766069  *
    10       H          0.20982697  *  -2.19178519  *   1.51552295  *
    11       H          1.85587414  *  -2.17314348  *   0.85877766  *
    12       H          0.48151032  *  -2.56673856  *  -0.18859311  *
    13       H          2.62301774  *   0.42075485  *   0.40763379  *
    14       H          1.24201671  *   2.16901366  *  -1.13460781  *
    15       H          0.96638980  *   2.55490237  *   0.61209743  *
    16       H         -1.25770059  *  -1.53236438  *  -1.51932661  *
    17       H         -1.92838765  *   0.10232693  *  -1.92401006  *
    18       H         -1.77300895  *  -0.81772147  *   1.72661094  *
    19       H         -2.42551759  *   0.79173946  *   1.20690462  *

                             CARTESIAN COORDINATES

   1    C        0.811372279    -1.912442786     0.634996609
   2    C        0.643593889    -0.489558375     0.295029938
   3    C        1.568775455     0.480535363     0.227566465
   4    C        0.908024693     1.770796931    -0.161610917
   5    O       -0.491278101     1.465603731    -0.314936204
   6    C       -0.696575932     0.091581715    -0.045238070
   7    C       -1.589222824    -0.569337397    -1.129900504
   8    O       -2.659020232    -0.773304587    -0.166415249
   9    C       -1.911144690    -0.122912860     0.897660693
  10    H        0.209826974    -2.191785193     1.515522945
  11    H        1.855874137    -2.173143484     0.858777662
  12    H        0.481510320    -2.566738558    -0.188593107
  13    H        2.623017739     0.420754848     0.407633788
  14    H        1.242016707     2.169013661    -1.134607808
  15    H        0.966389805     2.554902373     0.612097428
  16    H       -1.257700587    -1.532364379    -1.519326607
  17    H       -1.928387652     0.102326927    -1.924010060
  18    H       -1.773008949    -0.817721469     1.726610938
  19    H       -2.425517592     0.791739455     1.206904617


           Empirical Formula: C7 H10 O2  =    19 atoms



      MOLECULAR POINT GROUP   :   Cs  


                  EIGENVALUES  
 -31.62756 -30.22237 -27.87906 -25.88284 -24.63793 -23.72392 -22.52062 -20.22984
 -18.59804 -16.90506 -16.55362 -16.29352 -15.49780 -15.02726 -14.66316 -14.42906
 -13.60376 -13.52943 -13.16854 -12.63313 -12.42639 -11.64491 -10.75717  -9.98548
  -9.53544   0.45810   1.92362   2.02045   3.23136   3.56248   3.67282   3.99590
   4.16208   4.42299   4.52484   5.21057   5.23812   5.40196   5.59241   5.64762
   5.69896   5.79656   5.90873   5.98751   6.02992   6.49895


              NET ATOMIC CHARGES AND DIPOLE CONTRIBUTIONS

  ATOM NO.   TYPE          CHARGE      No. of ELECS.   s-Pop       p-Pop       
    1          C          -0.442201        4.4422     1.04389     3.39831
    2          C          -0.018382        4.0184     1.08045     2.93793
    3          C          -0.230028        4.2300     1.09886     3.13117
    4          C          -0.043116        4.0431     1.08992     2.95320
    5          O          -0.390844        6.3908     1.88718     4.50366
    6          C           0.162073        3.8379     1.09959     2.73834
    7          C          -0.087721        4.0877     1.10636     2.98136
    8          O          -0.380336        6.3803     1.90797     4.47237
    9          C          -0.087616        4.0876     1.10638     2.98124
   10          H           0.166096        0.8339     0.83390
   11          H           0.159482        0.8405     0.84052
   12          H           0.166095        0.8339     0.83391
   13          H           0.163056        0.8369     0.83694
   14          H           0.142780        0.8572     0.85722
   15          H           0.142811        0.8572     0.85719
   16          H           0.136731        0.8633     0.86327
   17          H           0.152180        0.8478     0.84782
   18          H           0.136738        0.8633     0.86326
   19          H           0.152200        0.8478     0.84780
 DIPOLE           X         Y         Z       TOTAL
 POINT-CHG.     3.379    -0.549     0.655     3.485
 HYBRID        -0.398    -0.037    -0.055     0.403
 SUM            2.981    -0.586     0.600     3.097


          ATOMIC ORBITAL ELECTRON POPULATIONS

     Atom    s        px        py        pz   
    1  C   1.04389   1.18628   1.03518   1.17686
    2  C   1.08045   0.97967   0.97061   0.98765
    3  C   1.09886   1.07660   1.00073   1.05384
    4  C   1.08992   0.80727   1.02260   1.12333
    5  O   1.88718   1.29195   1.29831   1.91340
    6  C   1.09959   0.94674   0.80488   0.98672
    7  C   1.10636   0.89508   1.10333   0.98295
    8  O   1.90797   1.37285   1.81192   1.28761
    9  C   1.10638   0.94792   1.07466   0.95866
   10  H   0.83390
   11  H   0.84052
   12  H   0.83391
   13  H   0.83694
   14  H   0.85722
   15  H   0.85719
   16  H   0.86327
   17  H   0.84782
   18  H   0.86326
   19  H   0.84780

 **********************
 *                    *
 * JOB ENDED NORMALLY *
 *                    *
 **********************



 TOTAL JOB TIME:             1.24 SECONDS

 == MOPAC DONE ==
