 *******************************************************************************
 **                                                                           **
 **                              MOPAC v23.2                                  **
 **                                                                           **
 *******************************************************************************
 **          Digital Object Identifier (DOI): 10.5281/zenodo.6511958          **
 **    Visit the DOI location for information on how to cite this program.    **
 *******************************************************************************

                              PM7 CALCULATION RESULTS

 *******************************************************************************
 *  CALCULATION DONE: (MAX THREADS = 40)             Fri Sep 19 21:55:55 2025  *
 *  PM7        - The PM7 Hamiltonian to be used
 *
 *
 *
 *                 CHARGE ON SYSTEM = +1
 *
 *
 *
 *  1SCF       - DO 1 SCF AND THEN STOP 
 *  T=         - A TIME OF 172800.0 SECONDS REQUESTED
 *  DUMP=N     - RESTART FILE WRITTEN EVERY 7200.0 SECONDS REQUESTED
 *  RELSCF     - DEFAULT SCF CRITERION MULTIPLIED BY 0.0001
 *              (DEFAULT SCF CRITERION = 0.00010)
 *  GRADIENTS  - ALL GRADIENTS TO BE PRINTED
 *  DISP       - PRINT DISPERSION AND HYDROGEN BOND ENERGIES
 *******************************************************************************
PM7 1SCF GRADIENTS DISP RELSCF=0.0001 CHARGE=1
 Title: ASE calculation

   ATOM   CHEMICAL          X               Y               Z
  NUMBER   SYMBOL      (ANGSTROMS)     (ANGSTROMS)     (ANGSTROMS)

     1       C          1.12778323  *  -0.48485874  *   1.20243130  *
     2       C          0.52198222  *  -0.03117668  *  -0.11791654  *
     3       C          1.56627058  *   0.12710279  *  -1.11720888  *
     4       N          2.39815396  *   0.25093077  *  -1.90799994  *
     5       C         -0.55255763  *  -1.04050847  *  -0.63808715  *
     6       C         -1.79094651  *  -0.29842040  *  -0.79166128  *
     7       C         -1.62442304  *   1.05863252  *  -0.40091346  *
     8       C         -0.26372356  *   1.31134070  *   0.03799503  *
     9       H          1.66727382  *  -1.44254372  *   1.10301871  *
    10       H          1.87543260  *   0.23236430  *   1.58297538  *
    11       H          0.38062753  *  -0.61945638  *   1.99587441  *
    12       H         -0.65308249  *  -1.93501055  *   0.04112032  *
    13       H         -0.22883343  *  -1.57045696  *  -1.57936487  *
    14       H         -2.71965447  *  -0.74103277  *  -1.15885178  *
    15       H         -2.40544468  *   1.82216084  *  -0.41976220  *
    16       H         -0.20464462  *   1.71344521  *   1.08984964  *
    17       H          0.23007345  *   2.16730090  *  -0.50530222  *



          CARTESIAN COORDINATES 

    NO.       ATOM           X           Y           Z

     1         C          1.1278     -0.4849      1.2024
     2         C          0.5220     -0.0312     -0.1179
     3         C          1.5663      0.1271     -1.1172
     4         N          2.3982      0.2509     -1.9080
     5         C         -0.5526     -1.0405     -0.6381
     6         C         -1.7909     -0.2984     -0.7917
     7         C         -1.6244      1.0586     -0.4009
     8         C         -0.2637      1.3113      0.0380
     9         H          1.6673     -1.4425      1.1030
    10         H          1.8754      0.2324      1.5830
    11         H          0.3806     -0.6195      1.9959
    12         H         -0.6531     -1.9350      0.0411
    13         H         -0.2288     -1.5705     -1.5794
    14         H         -2.7197     -0.7410     -1.1589
    15         H         -2.4054      1.8222     -0.4198
    16         H         -0.2046      1.7134      1.0898
    17         H          0.2301      2.1673     -0.5053

 General Reference for PM7:
 "Optimization of Parameters for Semiempirical Methods VI: More Modifications to the 
 NDDO Approximations and Re-optimization of Parameters", J. J. P. Stewart, J. Mol. Mod., 1:32, 19 (2013)
 https://link.springer.com/article/10.1007/s00894-012-1667-x

           Empirical Formula: C7 H9 N  =    17 atoms



      MOLECULAR POINT GROUP   :   Cs  


          UHF CALCULATION, NO. OF ALPHA ELECTRONS =   21
                           NO. OF BETA  ELECTRONS =   20
  SCF CRITERION =    0.1000E-07

 -------------------------------------------------------------------------------
 PM7 1SCF GRADIENTS DISP RELSCF=0.0001 CHARGE=1
 Title: ASE calculation



     1SCF WAS SPECIFIED, SO BFGS WAS NOT USED                 
     SCF FIELD WAS ACHIEVED                                   


                              PM7 CALCULATION
                                                       MOPAC v23.2 Linux
                                                       Fri Sep 19 21:55:55 2025




          FINAL HEAT OF FORMATION =        242.69106 KCAL/MOL =    1015.41941 KJ/MOL

          TOTAL ENERGY            =     -26696.34177 KCAL/MOL = ELECTRONIC ENERGY + CORE-CORE REPULSION
          ENERGY OF ATOMS         =      26940.56889 KCAL/MOL
                              SUM =        244.22713 KCAL/MOL
          DISPERSION ENERGY       =         -1.53606 KCAL/MOL
                              SUM =        242.69106 KCAL/MOL = FINAL HEAT OF FORMATION



          TOTAL ENERGY            =      -1157.66295 EV
          ELECTRONIC ENERGY       =      -5498.41368 EV 
          CORE-CORE REPULSION     =       4340.75073 EV
          COSMO AREA              =        152.22 SQUARE ANGSTROMS
          COSMO VOLUME            =        149.57 CUBIC ANGSTROMS

          GRADIENT NORM           =          0.83465          =       0.20243 PER ATOM
          IONIZATION POTENTIAL    =         15.867563 EV
          ALPHA SOMO LUMO (EV)    =        -15.868 -6.482
          BETA  SOMO LUMO (EV)    =        -16.674 -8.366
          NO. OF ALPHA ELECTRONS  =         21
          NO. OF BETA  ELECTRONS  =         20
          MOLECULAR WEIGHT        =        107.1548         POINT GROUP:  Cs  

          MOLECULAR DIMENSIONS (Angstroms)

            Atom       Atom       Distance
            H    14    H    10     5.43874
            H    11    N     4     4.47846
            H     9    H    15     4.05300


          SCF CALCULATIONS        =          1

          WALL-CLOCK TIME         =      0.945 SECONDS
          COMPUTATION TIME        =      0.504 SECONDS

          LARGEST ATOMIC GRADIENTS

          Atom     Label                     Cartesian Gradients           Cartesian Coordinates       |Gradient|
                                           X          Y          Z        X          Y          Z

            11       H                  -0.096     -0.082      0.346    0.38063   -0.61946    1.99587      0.368
             1       C                  -0.278      0.017      0.063    1.12778   -0.48486    1.20243      0.285
            16       H                   0.202     -0.143     -0.003   -0.20464    1.71345    1.08985      0.248
            12       H                   0.221      0.070      0.052   -0.65308   -1.93501    0.04112      0.237
             4       N                  -0.074      0.058     -0.203    2.39815    0.25093   -1.90800      0.224
             3       C                   0.062      0.046     -0.201    1.56627    0.12710   -1.11721      0.215
            15       H                   0.124      0.156      0.052   -2.40544    1.82216   -0.41976      0.206
            17       H                   0.006     -0.146      0.143    0.23007    2.16730   -0.50530      0.205
            13       H                   0.028      0.050      0.195   -0.22883   -1.57046   -1.57936      0.203
            14       H                   0.085     -0.174     -0.059   -2.71965   -0.74103   -1.15885      0.203



       FINAL  POINT  AND  DERIVATIVES

   PARAMETER     ATOM    TYPE            VALUE        GRADIENT
      1          1  C    CARTESIAN X     1.127783     -0.277819  KCAL/ANGSTROM
      2          1  C    CARTESIAN Y    -0.484859      0.017446  KCAL/ANGSTROM
      3          1  C    CARTESIAN Z     1.202431      0.062851  KCAL/ANGSTROM
      4          2  C    CARTESIAN X     0.521982      0.031423  KCAL/ANGSTROM
      5          2  C    CARTESIAN Y    -0.031177      0.031163  KCAL/ANGSTROM
      6          2  C    CARTESIAN Z    -0.117917     -0.120048  KCAL/ANGSTROM
      7          3  C    CARTESIAN X     1.566271      0.062360  KCAL/ANGSTROM
      8          3  C    CARTESIAN Y     0.127103      0.046059  KCAL/ANGSTROM
      9          3  C    CARTESIAN Z    -1.117209     -0.200773  KCAL/ANGSTROM
     10          4  N    CARTESIAN X     2.398154     -0.074187  KCAL/ANGSTROM
     11          4  N    CARTESIAN Y     0.250931      0.058380  KCAL/ANGSTROM
     12          4  N    CARTESIAN Z    -1.908000     -0.202693  KCAL/ANGSTROM
     13          5  C    CARTESIAN X    -0.552558     -0.026302  KCAL/ANGSTROM
     14          5  C    CARTESIAN Y    -1.040508      0.059139  KCAL/ANGSTROM
     15          5  C    CARTESIAN Z    -0.638087     -0.091883  KCAL/ANGSTROM
     16          6  C    CARTESIAN X    -1.790947      0.031990  KCAL/ANGSTROM
     17          6  C    CARTESIAN Y    -0.298420     -0.010902  KCAL/ANGSTROM
     18          6  C    CARTESIAN Z    -0.791661     -0.003651  KCAL/ANGSTROM
     19          7  C    CARTESIAN X    -1.624423      0.029757  KCAL/ANGSTROM
     20          7  C    CARTESIAN Y     1.058633      0.000289  KCAL/ANGSTROM
     21          7  C    CARTESIAN Z    -0.400913      0.011038  KCAL/ANGSTROM
     22          8  C    CARTESIAN X    -0.263724     -0.034392  KCAL/ANGSTROM
     23          8  C    CARTESIAN Y     1.311341      0.005387  KCAL/ANGSTROM
     24          8  C    CARTESIAN Z     0.037995     -0.104769  KCAL/ANGSTROM
     25          9  H    CARTESIAN X     1.667274     -0.154708  KCAL/ANGSTROM
     26          9  H    CARTESIAN Y    -1.442544      0.054076  KCAL/ANGSTROM
     27          9  H    CARTESIAN Z     1.103019     -0.027919  KCAL/ANGSTROM
     28         10  H    CARTESIAN X     1.875433     -0.159270  KCAL/ANGSTROM
     29         10  H    CARTESIAN Y     0.232364      0.007891  KCAL/ANGSTROM
     30         10  H    CARTESIAN Z     1.582975     -0.048928  KCAL/ANGSTROM
     31         11  H    CARTESIAN X     0.380628     -0.096049  KCAL/ANGSTROM
     32         11  H    CARTESIAN Y    -0.619456     -0.081954  KCAL/ANGSTROM
     33         11  H    CARTESIAN Z     1.995874      0.345980  KCAL/ANGSTROM
     34         12  H    CARTESIAN X    -0.653082      0.220910  KCAL/ANGSTROM
     35         12  H    CARTESIAN Y    -1.935011      0.069731  KCAL/ANGSTROM
     36         12  H    CARTESIAN Z     0.041120      0.052085  KCAL/ANGSTROM
     37         13  H    CARTESIAN X    -0.228833      0.028425  KCAL/ANGSTROM
     38         13  H    CARTESIAN Y    -1.570457      0.049503  KCAL/ANGSTROM
     39         13  H    CARTESIAN Z    -1.579365      0.195010  KCAL/ANGSTROM
     40         14  H    CARTESIAN X    -2.719654      0.085296  KCAL/ANGSTROM
     41         14  H    CARTESIAN Y    -0.741033     -0.173959  KCAL/ANGSTROM
     42         14  H    CARTESIAN Z    -1.158852     -0.059214  KCAL/ANGSTROM
     43         15  H    CARTESIAN X    -2.405445      0.123964  KCAL/ANGSTROM
     44         15  H    CARTESIAN Y     1.822161      0.156425  KCAL/ANGSTROM
     45         15  H    CARTESIAN Z    -0.419762      0.052315  KCAL/ANGSTROM
     46         16  H    CARTESIAN X    -0.204645      0.202302  KCAL/ANGSTROM
     47         16  H    CARTESIAN Y     1.713445     -0.142624  KCAL/ANGSTROM
     48         16  H    CARTESIAN Z     1.089850     -0.002568  KCAL/ANGSTROM
     49         17  H    CARTESIAN X     0.230073      0.006297  KCAL/ANGSTROM
     50         17  H    CARTESIAN Y     2.167301     -0.146054  KCAL/ANGSTROM
     51         17  H    CARTESIAN Z    -0.505302      0.143164  KCAL/ANGSTROM




   ATOM   CHEMICAL          X               Y               Z
  NUMBER   SYMBOL      (ANGSTROMS)     (ANGSTROMS)     (ANGSTROMS)

     1       C          1.12778323  *  -0.48485874  *   1.20243130  *
     2       C          0.52198222  *  -0.03117668  *  -0.11791654  *
     3       C          1.56627058  *   0.12710279  *  -1.11720888  *
     4       N          2.39815396  *   0.25093077  *  -1.90799994  *
     5       C         -0.55255763  *  -1.04050847  *  -0.63808715  *
     6       C         -1.79094651  *  -0.29842040  *  -0.79166128  *
     7       C         -1.62442304  *   1.05863252  *  -0.40091346  *
     8       C         -0.26372356  *   1.31134070  *   0.03799503  *
     9       H          1.66727382  *  -1.44254372  *   1.10301871  *
    10       H          1.87543260  *   0.23236430  *   1.58297538  *
    11       H          0.38062753  *  -0.61945638  *   1.99587441  *
    12       H         -0.65308249  *  -1.93501055  *   0.04112032  *
    13       H         -0.22883343  *  -1.57045696  *  -1.57936487  *
    14       H         -2.71965447  *  -0.74103277  *  -1.15885178  *
    15       H         -2.40544468  *   1.82216084  *  -0.41976220  *
    16       H         -0.20464462  *   1.71344521  *   1.08984964  *
    17       H          0.23007345  *   2.16730090  *  -0.50530222  *

                             CARTESIAN COORDINATES

   1    C        1.127783230    -0.484858741     1.202431299
   2    C        0.521982220    -0.031176685    -0.117916541
   3    C        1.566270579     0.127102789    -1.117208881
   4    N        2.398153964     0.250930766    -1.907999939
   5    C       -0.552557627    -1.040508468    -0.638087148
   6    C       -1.790946505    -0.298420400    -0.791661281
   7    C       -1.624423042     1.058632520    -0.400913456
   8    C       -0.263723564     1.311340700     0.037995032
   9    H        1.667273820    -1.442543722     1.103018710
  10    H        1.875432605     0.232364305     1.582975382
  11    H        0.380627534    -0.619456376     1.995874408
  12    H       -0.653082486    -1.935010551     0.041120323
  13    H       -0.228833431    -1.570456961    -1.579364874
  14    H       -2.719654466    -0.741032768    -1.158851785
  15    H       -2.405444682     1.822160837    -0.419762203
  16    H       -0.204644617     1.713445209     1.089849641
  17    H        0.230073447     2.167300898    -0.505302225


           Empirical Formula: C7 H9 N  =    17 atoms



      MOLECULAR POINT GROUP   :   Cs  


          ALPHA EIGENVALUES  
 -38.64542 -37.09148 -32.36132 -31.16411 -28.13345 -26.16269 -25.01227 -23.75930
 -21.75793 -20.14468 -19.69503 -19.56838 -19.46215 -19.07086 -18.96469 -17.82356
 -17.40930 -16.81492 -16.77643 -16.68297 -15.86756  -6.48158  -3.13480  -2.94577
  -2.43742  -2.37796  -1.78319  -1.63703  -1.52322  -1.34925  -0.69377  -0.50278
  -0.42964  -0.27681  -0.27497   0.51677   0.62421   1.31005   1.34991   1.89955
   2.54383


           BETA EIGENVALUES 
 -38.64456 -36.94812 -32.22064 -31.05570 -28.02605 -26.04816 -24.87558 -23.64623
 -21.56079 -19.83800 -19.65388 -19.37396 -19.10040 -18.99282 -18.73240 -17.64935
 -17.36724 -16.79915 -16.67673 -16.67413  -8.36604  -5.09974  -3.11649  -2.92445
  -2.33985  -2.27993  -1.71078  -1.53481  -1.46826  -1.28592  -0.66879  -0.41994
  -0.31720  -0.19462  -0.16767   0.58039   0.68250   1.31051   1.35123   1.89897
   2.54423


              NET ATOMIC CHARGES AND DIPOLE CONTRIBUTIONS

  ATOM NO.   TYPE          CHARGE      No. of ELECS.   s-Pop       p-Pop       
    1          C          -0.473602        4.4736     1.05803     3.41557
    2          C           0.135751        3.8642     1.04855     2.81570
    3          C          -0.000265        4.0003     1.11685     2.88341
    4          N          -0.109897        5.1099     1.82757     3.28233
    5          C          -0.375391        4.3754     1.07562     3.29977
    6          C           0.118003        3.8820     1.16399     2.71801
    7          C           0.118002        3.8820     1.16401     2.71799
    8          C          -0.375318        4.3753     1.07563     3.29969
    9          H           0.190277        0.8097     0.80972
   10          H           0.190331        0.8097     0.80967
   11          H           0.172001        0.8280     0.82800
   12          H           0.249538        0.7505     0.75046
   13          H           0.249803        0.7502     0.75020
   14          H           0.205725        0.7943     0.79427
   15          H           0.205727        0.7943     0.79427
   16          H           0.249498        0.7505     0.75050
   17          H           0.249818        0.7502     0.75018
 DIPOLE           X         Y         Z       TOTAL
 POINT-CHG.    -7.361     0.308     2.084     7.657
 HYBRID        -0.437    -0.010     0.221     0.489
 SUM           -7.798     0.298     2.305     8.137


          ATOMIC ORBITAL ELECTRON POPULATIONS

     Atom    s        px        py        pz   
    1  C   1.05803   1.17641   1.21060   1.02856
    2  C   1.04855   0.92524   0.91336   0.97710
    3  C   1.11685   0.95358   0.97858   0.95125
    4  N   1.82757   1.12368   1.03228   1.12637
    5  C   1.07562   1.00350   1.10273   1.19354
    6  C   1.16399   1.04924   0.97192   0.69685
    7  C   1.16401   1.02836   1.00389   0.68574
    8  C   1.07563   1.00538   1.10435   1.18995
    9  H   0.80972
   10  H   0.80967
   11  H   0.82800
   12  H   0.75046
   13  H   0.75020
   14  H   0.79427
   15  H   0.79427
   16  H   0.75050
   17  H   0.75018


                    (SZ)    =    0.500000
                    (S**2)  =    0.751837


          ATOMIC ORBITAL SPIN POPULATIONS

    Atom   Total    s     px     py     pz   
         Atomic
    1  C  0.0032  0.001  0.001  0.000  0.001
    2  C -0.0013 -0.000 -0.001 -0.000  0.000
    3  C  0.0039  0.001  0.001  0.000  0.001
    4  N -0.0006  0.000 -0.000 -0.001  0.000
    5  C  0.0157 -0.003 -0.005 -0.006  0.031
    6  C  0.4221  0.008  0.037  0.026  0.351
    7  C  0.4222  0.008  0.037  0.027  0.351
    8  C  0.0157 -0.003 -0.008 -0.002  0.029
    9  H -0.0001 -0.000
   10  H -0.0001 -0.000
   11  H -0.0001 -0.000
   12  H  0.0368  0.037
   13  H  0.0348  0.035
   14  H -0.0119 -0.012
   15  H -0.0119 -0.012
   16  H  0.0367  0.037
   17  H  0.0348  0.035

 **********************
 *                    *
 * JOB ENDED NORMALLY *
 *                    *
 **********************



 TOTAL JOB TIME:             1.46 SECONDS

 == MOPAC DONE ==
