 *******************************************************************************
 **                                                                           **
 **                              MOPAC v23.2                                  **
 **                                                                           **
 *******************************************************************************
 **          Digital Object Identifier (DOI): 10.5281/zenodo.6511958          **
 **    Visit the DOI location for information on how to cite this program.    **
 *******************************************************************************

                              PM7 CALCULATION RESULTS

 *******************************************************************************
 *  CALCULATION DONE: (MAX THREADS = 40)             Fri Sep 19 21:51:38 2025  *
 *  PM7        - The PM7 Hamiltonian to be used
 *  1SCF       - DO 1 SCF AND THEN STOP 
 *  T=         - A TIME OF 172800.0 SECONDS REQUESTED
 *  DUMP=N     - RESTART FILE WRITTEN EVERY 7200.0 SECONDS REQUESTED
 *  RELSCF     - DEFAULT SCF CRITERION MULTIPLIED BY 0.0001
 *              (DEFAULT SCF CRITERION = 0.00010)
 *  GRADIENTS  - ALL GRADIENTS TO BE PRINTED
 *  DISP       - PRINT DISPERSION AND HYDROGEN BOND ENERGIES
 *******************************************************************************
PM7 1SCF GRADIENTS DISP RELSCF=0.0001
 Title: ASE calculation

   ATOM   CHEMICAL          X               Y               Z
  NUMBER   SYMBOL      (ANGSTROMS)     (ANGSTROMS)     (ANGSTROMS)

     1       C         -3.40433351  *  -0.79950485  *  -0.42643565  *
     2       C         -2.27317632  *   0.19429092  *  -0.69393008  *
     3       C         -1.26001810  *   0.18140181  *   0.43564540  *
     4       C          0.02690585  *   1.05339897  *   0.17044693  *
     5       C          0.87408735  *  -0.23908240  *   0.20801272  *
     6       C          2.15775439  *  -0.48177490  *  -0.48919031  *
     7       C          3.20183418  *   0.55995175  *  -0.08403174  *
     8       O          0.63728718  *  -0.87577827  *   1.47172750  *
     9       C         -0.35374761  *  -1.07842860  *   0.45839036  *
    10       H         -3.01938541  *  -1.81791619  *  -0.29765820  *
    11       H         -4.12097983  *  -0.81836937  *  -1.25479270  *
    12       H         -3.95984617  *  -0.54470789  *   0.48353856  *
    13       H         -2.68644795  *   1.21609952  *  -0.81095659  *
    14       H         -1.78261557  *  -0.04150477  *  -1.65848864  *
    15       H         -1.72889823  *   0.39325258  *   1.40976504  *
    16       H          0.03768809  *   1.56550841  *  -0.79121474  *
    17       H          0.25664995  *   1.77068211  *   0.96063219  *
    18       H          2.00541542  *  -0.46485097  *  -1.58863478  *
    19       H          2.53119987  *  -1.50231295  *  -0.25108869  *
    20       H          3.40946489  *   0.51062223  *   0.99276162  *
    21       H          4.14861322  *   0.40219114  *  -0.61142508  *
    22       H          2.85959498  *   1.57775946  *  -0.30355248  *
    23       H         -0.64644121  *  -2.07260708  *   0.21916194  *



          CARTESIAN COORDINATES 

    NO.       ATOM           X           Y           Z

     1         C         -3.4043     -0.7995     -0.4264
     2         C         -2.2732      0.1943     -0.6939
     3         C         -1.2600      0.1814      0.4356
     4         C          0.0269      1.0534      0.1704
     5         C          0.8741     -0.2391      0.2080
     6         C          2.1578     -0.4818     -0.4892
     7         C          3.2018      0.5600     -0.0840
     8         O          0.6373     -0.8758      1.4717
     9         C         -0.3537     -1.0784      0.4584
    10         H         -3.0194     -1.8179     -0.2977
    11         H         -4.1210     -0.8184     -1.2548
    12         H         -3.9598     -0.5447      0.4835
    13         H         -2.6864      1.2161     -0.8110
    14         H         -1.7826     -0.0415     -1.6585
    15         H         -1.7289      0.3933      1.4098
    16         H          0.0377      1.5655     -0.7912
    17         H          0.2566      1.7707      0.9606
    18         H          2.0054     -0.4649     -1.5886
    19         H          2.5312     -1.5023     -0.2511
    20         H          3.4095      0.5106      0.9928
    21         H          4.1486      0.4022     -0.6114
    22         H          2.8596      1.5778     -0.3036
    23         H         -0.6464     -2.0726      0.2192

 General Reference for PM7:
 "Optimization of Parameters for Semiempirical Methods VI: More Modifications to the 
 NDDO Approximations and Re-optimization of Parameters", J. J. P. Stewart, J. Mol. Mod., 1:32, 19 (2013)
 https://link.springer.com/article/10.1007/s00894-012-1667-x

           Empirical Formula: C8 H14 O  =    23 atoms



      MOLECULAR POINT GROUP   :   C1  


      RHF CALCULATION, NO. OF DOUBLY OCCUPIED LEVELS = 26

  SCF CRITERION =    0.1000E-07

 -------------------------------------------------------------------------------
 PM7 1SCF GRADIENTS DISP RELSCF=0.0001
 Title: ASE calculation



     1SCF WAS SPECIFIED, SO BFGS WAS NOT USED                 
     SCF FIELD WAS ACHIEVED                                   


                              PM7 CALCULATION
                                                       MOPAC v23.2 Linux
                                                       Fri Sep 19 21:51:38 2025




          FINAL HEAT OF FORMATION =        -14.83034 KCAL/MOL =     -62.05013 KJ/MOL

          TOTAL ENERGY            =     -33794.93699 KCAL/MOL = ELECTRONIC ENERGY + CORE-CORE REPULSION
          ENERGY OF ATOMS         =      33782.22825 KCAL/MOL
                              SUM =        -12.70874 KCAL/MOL
          DISPERSION ENERGY       =         -2.12159 KCAL/MOL
                              SUM =        -14.83034 KCAL/MOL = FINAL HEAT OF FORMATION



          TOTAL ENERGY            =      -1465.48717 EV
          ELECTRONIC ENERGY       =      -7712.42900 EV 
          CORE-CORE REPULSION     =       6246.94183 EV
          COSMO AREA              =        178.19 SQUARE ANGSTROMS
          COSMO VOLUME            =        179.92 CUBIC ANGSTROMS

          GRADIENT NORM           =          1.19835          =       0.24987 PER ATOM
          IONIZATION POTENTIAL    =          9.926425 EV
          HOMO LUMO ENERGIES (EV) =         -9.926  2.197
          NO. OF FILLED LEVELS    =         26
          MOLECULAR WEIGHT        =        126.1980         POINT GROUP:  C1  

          MOLECULAR DIMENSIONS (Angstroms)

            Atom       Atom       Distance
            H    21    H    11     8.38390
            H    17    H    23     3.72352
            H    18    O     8     3.14944


          SCF CALCULATIONS        =          1

          WALL-CLOCK TIME         =      0.906 SECONDS
          COMPUTATION TIME        =      0.549 SECONDS

          LARGEST ATOMIC GRADIENTS

          Atom     Label                     Cartesian Gradients           Cartesian Coordinates       |Gradient|
                                           X          Y          Z        X          Y          Z

             4       C                   0.384     -0.177     -0.035    0.02691    1.05340    0.17045      0.424
            12       H                  -0.230     -0.311      0.005   -3.95985   -0.54471    0.48354      0.386
            15       H                  -0.002      0.280     -0.253   -1.72890    0.39325    1.40977      0.378
            10       H                   0.275     -0.001      0.221   -3.01939   -1.81792   -0.29766      0.353
             3       C                   0.222     -0.233     -0.071   -1.26002    0.18140    0.43565      0.330
            23       H                  -0.109      0.291      0.081   -0.64644   -2.07261    0.21916      0.321
            19       H                  -0.230      0.110      0.127    2.53120   -1.50231   -0.25109      0.285
            17       H                  -0.233      0.097      0.093    0.25665    1.77068    0.96063      0.269
             8       O                  -0.240     -0.062      0.083    0.63729   -0.87578    1.47173      0.262
             5       C                   0.050     -0.173     -0.177    0.87409   -0.23908    0.20801      0.252



       FINAL  POINT  AND  DERIVATIVES

   PARAMETER     ATOM    TYPE            VALUE        GRADIENT
      1          1  C    CARTESIAN X    -3.404334     -0.011289  KCAL/ANGSTROM
      2          1  C    CARTESIAN Y    -0.799505     -0.059611  KCAL/ANGSTROM
      3          1  C    CARTESIAN Z    -0.426436     -0.009855  KCAL/ANGSTROM
      4          2  C    CARTESIAN X    -2.273176      0.030896  KCAL/ANGSTROM
      5          2  C    CARTESIAN Y     0.194291      0.043252  KCAL/ANGSTROM
      6          2  C    CARTESIAN Z    -0.693930      0.071237  KCAL/ANGSTROM
      7          3  C    CARTESIAN X    -1.260018      0.221919  KCAL/ANGSTROM
      8          3  C    CARTESIAN Y     0.181402     -0.233456  KCAL/ANGSTROM
      9          3  C    CARTESIAN Z     0.435645     -0.070733  KCAL/ANGSTROM
     10          4  C    CARTESIAN X     0.026906      0.384051  KCAL/ANGSTROM
     11          4  C    CARTESIAN Y     1.053399     -0.177014  KCAL/ANGSTROM
     12          4  C    CARTESIAN Z     0.170447     -0.035305  KCAL/ANGSTROM
     13          5  C    CARTESIAN X     0.874087      0.050171  KCAL/ANGSTROM
     14          5  C    CARTESIAN Y    -0.239082     -0.172876  KCAL/ANGSTROM
     15          5  C    CARTESIAN Z     0.208013     -0.176556  KCAL/ANGSTROM
     16          6  C    CARTESIAN X     2.157754      0.080884  KCAL/ANGSTROM
     17          6  C    CARTESIAN Y    -0.481775     -0.010298  KCAL/ANGSTROM
     18          6  C    CARTESIAN Z    -0.489190     -0.028824  KCAL/ANGSTROM
     19          7  C    CARTESIAN X     3.201834      0.017490  KCAL/ANGSTROM
     20          7  C    CARTESIAN Y     0.559952      0.001738  KCAL/ANGSTROM
     21          7  C    CARTESIAN Z    -0.084032     -0.144404  KCAL/ANGSTROM
     22          8  O    CARTESIAN X     0.637287     -0.240093  KCAL/ANGSTROM
     23          8  O    CARTESIAN Y    -0.875778     -0.062228  KCAL/ANGSTROM
     24          8  O    CARTESIAN Z     1.471728      0.083360  KCAL/ANGSTROM
     25          9  C    CARTESIAN X    -0.353748      0.140261  KCAL/ANGSTROM
     26          9  C    CARTESIAN Y    -1.078429     -0.029869  KCAL/ANGSTROM
     27          9  C    CARTESIAN Z     0.458390     -0.197665  KCAL/ANGSTROM
     28         10  H    CARTESIAN X    -3.019385      0.274675  KCAL/ANGSTROM
     29         10  H    CARTESIAN Y    -1.817916     -0.000930  KCAL/ANGSTROM
     30         10  H    CARTESIAN Z    -0.297658      0.221016  KCAL/ANGSTROM
     31         11  H    CARTESIAN X    -4.120980     -0.105322  KCAL/ANGSTROM
     32         11  H    CARTESIAN Y    -0.818369     -0.000697  KCAL/ANGSTROM
     33         11  H    CARTESIAN Z    -1.254793     -0.049733  KCAL/ANGSTROM
     34         12  H    CARTESIAN X    -3.959846     -0.229564  KCAL/ANGSTROM
     35         12  H    CARTESIAN Y    -0.544708     -0.310595  KCAL/ANGSTROM
     36         12  H    CARTESIAN Z     0.483539      0.005060  KCAL/ANGSTROM
     37         13  H    CARTESIAN X    -2.686448     -0.002929  KCAL/ANGSTROM
     38         13  H    CARTESIAN Y     1.216100      0.119208  KCAL/ANGSTROM
     39         13  H    CARTESIAN Z    -0.810957      0.089784  KCAL/ANGSTROM
     40         14  H    CARTESIAN X    -1.782616      0.082687  KCAL/ANGSTROM
     41         14  H    CARTESIAN Y    -0.041505      0.208496  KCAL/ANGSTROM
     42         14  H    CARTESIAN Z    -1.658489      0.038643  KCAL/ANGSTROM
     43         15  H    CARTESIAN X    -1.728898     -0.002087  KCAL/ANGSTROM
     44         15  H    CARTESIAN Y     0.393253      0.280416  KCAL/ANGSTROM
     45         15  H    CARTESIAN Z     1.409765     -0.253416  KCAL/ANGSTROM
     46         16  H    CARTESIAN X     0.037688     -0.108817  KCAL/ANGSTROM
     47         16  H    CARTESIAN Y     1.565508      0.040327  KCAL/ANGSTROM
     48         16  H    CARTESIAN Z    -0.791215      0.024479  KCAL/ANGSTROM
     49         17  H    CARTESIAN X     0.256650     -0.233301  KCAL/ANGSTROM
     50         17  H    CARTESIAN Y     1.770682      0.097158  KCAL/ANGSTROM
     51         17  H    CARTESIAN Z     0.960632      0.092754  KCAL/ANGSTROM
     52         18  H    CARTESIAN X     2.005415      0.027063  KCAL/ANGSTROM
     53         18  H    CARTESIAN Y    -0.464851     -0.078330  KCAL/ANGSTROM
     54         18  H    CARTESIAN Z    -1.588635      0.144950  KCAL/ANGSTROM
     55         19  H    CARTESIAN X     2.531200     -0.229976  KCAL/ANGSTROM
     56         19  H    CARTESIAN Y    -1.502313      0.110332  KCAL/ANGSTROM
     57         19  H    CARTESIAN Z    -0.251089      0.127462  KCAL/ANGSTROM
     58         20  H    CARTESIAN X     3.409465      0.024548  KCAL/ANGSTROM
     59         20  H    CARTESIAN Y     0.510622     -0.053138  KCAL/ANGSTROM
     60         20  H    CARTESIAN Z     0.992762     -0.222719  KCAL/ANGSTROM
     61         21  H    CARTESIAN X     4.148613      0.082482  KCAL/ANGSTROM
     62         21  H    CARTESIAN Y     0.402191      0.003437  KCAL/ANGSTROM
     63         21  H    CARTESIAN Z    -0.611425      0.035938  KCAL/ANGSTROM
     64         22  H    CARTESIAN X     2.859595     -0.144954  KCAL/ANGSTROM
     65         22  H    CARTESIAN Y     1.577759     -0.006648  KCAL/ANGSTROM
     66         22  H    CARTESIAN Z    -0.303552      0.173089  KCAL/ANGSTROM
     67         23  H    CARTESIAN X    -0.646441     -0.108793  KCAL/ANGSTROM
     68         23  H    CARTESIAN Y    -2.072607      0.291323  KCAL/ANGSTROM
     69         23  H    CARTESIAN Z     0.219162      0.081435  KCAL/ANGSTROM




   ATOM   CHEMICAL          X               Y               Z
  NUMBER   SYMBOL      (ANGSTROMS)     (ANGSTROMS)     (ANGSTROMS)

     1       C         -3.40433351  *  -0.79950485  *  -0.42643565  *
     2       C         -2.27317632  *   0.19429092  *  -0.69393008  *
     3       C         -1.26001810  *   0.18140181  *   0.43564540  *
     4       C          0.02690585  *   1.05339897  *   0.17044693  *
     5       C          0.87408735  *  -0.23908240  *   0.20801272  *
     6       C          2.15775439  *  -0.48177490  *  -0.48919031  *
     7       C          3.20183418  *   0.55995175  *  -0.08403174  *
     8       O          0.63728718  *  -0.87577827  *   1.47172750  *
     9       C         -0.35374761  *  -1.07842860  *   0.45839036  *
    10       H         -3.01938541  *  -1.81791619  *  -0.29765820  *
    11       H         -4.12097983  *  -0.81836937  *  -1.25479270  *
    12       H         -3.95984617  *  -0.54470789  *   0.48353856  *
    13       H         -2.68644795  *   1.21609952  *  -0.81095659  *
    14       H         -1.78261557  *  -0.04150477  *  -1.65848864  *
    15       H         -1.72889823  *   0.39325258  *   1.40976504  *
    16       H          0.03768809  *   1.56550841  *  -0.79121474  *
    17       H          0.25664995  *   1.77068211  *   0.96063219  *
    18       H          2.00541542  *  -0.46485097  *  -1.58863478  *
    19       H          2.53119987  *  -1.50231295  *  -0.25108869  *
    20       H          3.40946489  *   0.51062223  *   0.99276162  *
    21       H          4.14861322  *   0.40219114  *  -0.61142508  *
    22       H          2.85959498  *   1.57775946  *  -0.30355248  *
    23       H         -0.64644121  *  -2.07260708  *   0.21916194  *

                             CARTESIAN COORDINATES

   1    C       -3.404333510    -0.799504847    -0.426435652
   2    C       -2.273176321     0.194290916    -0.693930078
   3    C       -1.260018095     0.181401805     0.435645398
   4    C        0.026905852     1.053398973     0.170446928
   5    C        0.874087351    -0.239082397     0.208012723
   6    C        2.157754393    -0.481774901    -0.489190309
   7    C        3.201834183     0.559951747    -0.084031743
   8    O        0.637287176    -0.875778274     1.471727503
   9    C       -0.353747608    -1.078428604     0.458390360
  10    H       -3.019385415    -1.817916193    -0.297658199
  11    H       -4.120979833    -0.818369368    -1.254792705
  12    H       -3.959846173    -0.544707887     0.483538562
  13    H       -2.686447953     1.216099522    -0.810956590
  14    H       -1.782615573    -0.041504769    -1.658488640
  15    H       -1.728898230     0.393252579     1.409765043
  16    H        0.037688094     1.565508414    -0.791214738
  17    H        0.256649954     1.770682107     0.960632190
  18    H        2.005415417    -0.464850975    -1.588634783
  19    H        2.531199871    -1.502312947    -0.251088688
  20    H        3.409464888     0.510622230     0.992761623
  21    H        4.148613225     0.402191142    -0.611425077
  22    H        2.859594977     1.577759461    -0.303552484
  23    H       -0.646441206    -2.072607075     0.219161937


           Empirical Formula: C8 H14 O  =    23 atoms



      MOLECULAR POINT GROUP   :   C1  


                  EIGENVALUES  
 -32.69951 -28.56447 -27.80982 -26.06522 -22.83385 -22.39294 -21.56260 -19.52860
 -18.44030 -16.63582 -16.35003 -15.75197 -15.31503 -14.52451 -14.30868 -13.99668
 -13.60188 -13.03590 -12.97425 -12.28623 -12.17513 -11.97190 -11.72390 -11.27913
 -10.66153  -9.92643   2.19664   2.67507   3.20207   3.36864   3.65626   4.06338
   4.29659   4.39749   4.52441   4.98074   5.36733   5.41882   5.70227   5.78104
   5.81220   5.91427   5.93863   5.96850   6.24361   6.28105   6.43733   6.49022
   6.93087   6.94020


              NET ATOMIC CHARGES AND DIPOLE CONTRIBUTIONS

  ATOM NO.   TYPE          CHARGE      No. of ELECS.   s-Pop       p-Pop       
    1          C          -0.434063        4.4341     1.05144     3.38262
    2          C          -0.261214        4.2612     1.05414     3.20707
    3          C          -0.123546        4.1235     1.07773     3.04582
    4          C          -0.320225        4.3202     1.08001     3.24022
    5          C           0.141177        3.8588     1.08240     2.77642
    6          C          -0.269028        4.2690     1.04967     3.21935
    7          C          -0.425033        4.4250     1.05073     3.37430
    8          O          -0.353213        6.3532     1.92213     4.43108
    9          C          -0.041801        4.0418     1.10402     2.93778
   10          H           0.145022        0.8550     0.85498
   11          H           0.141106        0.8589     0.85889
   12          H           0.145755        0.8542     0.85424
   13          H           0.141310        0.8587     0.85869
   14          H           0.139813        0.8602     0.86019
   15          H           0.153650        0.8463     0.84635
   16          H           0.149537        0.8505     0.85046
   17          H           0.156327        0.8437     0.84367
   18          H           0.150348        0.8497     0.84965
   19          H           0.160746        0.8393     0.83925
   20          H           0.154590        0.8454     0.84541
   21          H           0.143295        0.8567     0.85671
   22          H           0.145163        0.8548     0.85484
   23          H           0.160282        0.8397     0.83972
 DIPOLE           X         Y         Z       TOTAL
 POINT-CHG.    -0.546     0.719    -2.663     2.812
 HYBRID         0.176    -0.126     0.593     0.631
 SUM           -0.369     0.593    -2.070     2.185


          ATOMIC ORBITAL ELECTRON POPULATIONS

     Atom    s        px        py        pz   
    1  C   1.05144   1.09472   1.11788   1.17002
    2  C   1.05414   1.03075   1.10230   1.07403
    3  C   1.07773   0.97783   0.98827   1.07972
    4  C   1.08001   1.02431   1.05171   1.16421
    5  C   1.08240   0.95482   0.94345   0.87815
    6  C   1.04967   0.99796   1.10721   1.11418
    7  C   1.05073   1.09635   1.10357   1.17438
    8  O   1.92213   1.45792   1.73741   1.23575
    9  C   1.10402   0.92483   1.04522   0.96774
   10  H   0.85498
   11  H   0.85889
   12  H   0.85424
   13  H   0.85869
   14  H   0.86019
   15  H   0.84635
   16  H   0.85046
   17  H   0.84367
   18  H   0.84965
   19  H   0.83925
   20  H   0.84541
   21  H   0.85671
   22  H   0.85484
   23  H   0.83972

 **********************
 *                    *
 * JOB ENDED NORMALLY *
 *                    *
 **********************



 TOTAL JOB TIME:             1.45 SECONDS

 == MOPAC DONE ==
