 *******************************************************************************
 **                                                                           **
 **                              MOPAC v23.2                                  **
 **                                                                           **
 *******************************************************************************
 **          Digital Object Identifier (DOI): 10.5281/zenodo.6511958          **
 **    Visit the DOI location for information on how to cite this program.    **
 *******************************************************************************

                              PM7 CALCULATION RESULTS

 *******************************************************************************
 *  CALCULATION DONE: (MAX THREADS = 40)             Fri Sep 19 21:47:09 2025  *
 *  PM7        - The PM7 Hamiltonian to be used
 *
 *
 *
 *                 CHARGE ON SYSTEM = +1
 *
 *
 *
 *  EPS=37.5   - USE ANDREAS KLAMT'S COSMO IMPLICIT SOLVATION MODEL
 *  1SCF       - DO 1 SCF AND THEN STOP 
 *  T=         - A TIME OF 172800.0 SECONDS REQUESTED
 *  DUMP=N     - RESTART FILE WRITTEN EVERY 7200.0 SECONDS REQUESTED
 *  RELSCF     - DEFAULT SCF CRITERION MULTIPLIED BY 0.0001
 *              (DEFAULT SCF CRITERION = 0.00010)
 *  GRADIENTS  - ALL GRADIENTS TO BE PRINTED
 *  DISP       - PRINT DISPERSION AND HYDROGEN BOND ENERGIES
 *******************************************************************************
PM7 1SCF GRADIENTS EPS=37.5 DISP RELSCF=0.0001 CHARGE=1
 Title: ASE calculation

   ATOM   CHEMICAL          X               Y               Z
  NUMBER   SYMBOL      (ANGSTROMS)     (ANGSTROMS)     (ANGSTROMS)

     1       C         -2.73358112  *   0.39610403  *   0.29736991  *
     2       C         -1.39025738  *   0.30482443  *  -0.42176010  *
     3       C         -0.60127624  *  -0.89930725  *   0.06083976  *
     4       C         -0.02641665  *  -0.79954117  *   1.50173814  *
     5       C          1.44225606  *  -1.01609351  *   0.95067278  *
     6       C          2.26690703  *   0.16851310  *   1.02256036  *
     7       C          2.29066510  *   0.89274041  *  -0.24141551  *
     8       C          1.40788784  *   0.14376341  *  -1.17213527  *
     9       C          0.84785569  *  -1.04791765  *  -0.51588595  *
    10       H         -2.61657198  *   0.55979172  *   1.37403090  *
    11       H         -3.33858240  *   1.22736182  *  -0.09345352  *
    12       H         -3.33168032  *  -0.51529552  *   0.16424715  *
    13       H         -0.82212925  *   1.24358725  *  -0.28569099  *
    14       H         -1.56140354  *   0.21965267  *  -1.51777543  *
    15       H         -1.19536058  *  -1.82595762  *  -0.08774360  *
    16       H         -0.20229119  *   0.15395201  *   2.00792805  *
    17       H         -0.34294206  *  -1.60691128  *   2.17822538  *
    18       H          1.88653941  *  -1.95420143  *   1.34173077  *
    19       H          2.81427163  *   0.48645948  *   1.91781200  *
    20       H          2.01062010  *   1.98436468  *  -0.15167138  *
    21       H          3.33858240  *   1.01205343  *  -0.66125464  *
    22       H          1.20246075  *   0.44014349  *  -2.17822538  *
    23       H          1.00350220  *  -1.98436468  *  -1.08025748  *



          CARTESIAN COORDINATES 

    NO.       ATOM           X           Y           Z

     1         C         -2.7336      0.3961      0.2974
     2         C         -1.3903      0.3048     -0.4218
     3         C         -0.6013     -0.8993      0.0608
     4         C         -0.0264     -0.7995      1.5017
     5         C          1.4423     -1.0161      0.9507
     6         C          2.2669      0.1685      1.0226
     7         C          2.2907      0.8927     -0.2414
     8         C          1.4079      0.1438     -1.1721
     9         C          0.8479     -1.0479     -0.5159
    10         H         -2.6166      0.5598      1.3740
    11         H         -3.3386      1.2274     -0.0935
    12         H         -3.3317     -0.5153      0.1642
    13         H         -0.8221      1.2436     -0.2857
    14         H         -1.5614      0.2197     -1.5178
    15         H         -1.1954     -1.8260     -0.0877
    16         H         -0.2023      0.1540      2.0079
    17         H         -0.3429     -1.6069      2.1782
    18         H          1.8865     -1.9542      1.3417
    19         H          2.8143      0.4865      1.9178
    20         H          2.0106      1.9844     -0.1517
    21         H          3.3386      1.0121     -0.6613
    22         H          1.2025      0.4401     -2.1782
    23         H          1.0035     -1.9844     -1.0803

 General Reference for PM7:
 "Optimization of Parameters for Semiempirical Methods VI: More Modifications to the 
 NDDO Approximations and Re-optimization of Parameters", J. J. P. Stewart, J. Mol. Mod., 1:32, 19 (2013)
 https://link.springer.com/article/10.1007/s00894-012-1667-x

           Empirical Formula: C9 H14  =    23 atoms



      MOLECULAR POINT GROUP   :   C1  


          UHF CALCULATION, NO. OF ALPHA ELECTRONS =   25
                           NO. OF BETA  ELECTRONS =   24
  SCF CRITERION =    0.1000E-07

 -------------------------------------------------------------------------------
 PM7 1SCF GRADIENTS EPS=37.5 DISP RELSCF=0.0001 CHARGE=1
 Title: ASE calculation



     1SCF WAS SPECIFIED, SO BFGS WAS NOT USED                 
     SCF FIELD WAS ACHIEVED                                   


                              PM7 CALCULATION
                                                       MOPAC v23.2 Linux
                                                       Fri Sep 19 21:47:11 2025




          FINAL HEAT OF FORMATION =        165.24986 KCAL/MOL =     691.40543 KJ/MOL

          TOTAL ENERGY            =     -29684.85416 KCAL/MOL = ELECTRONIC ENERGY + CORE-CORE REPULSION + SOLVATION ENERGY
          ENERGY OF ATOMS         =      29852.41387 KCAL/MOL
                              SUM =        167.55971 KCAL/MOL
          DISPERSION ENERGY       =         -2.30985 KCAL/MOL
                              SUM =        165.24986 KCAL/MOL = FINAL HEAT OF FORMATION

          VAN DER WAALS AREA      =        171.37 SQUARE ANGSTROMS


          TOTAL ENERGY            =      -1287.25711 EV
          ELECTRONIC ENERGY       =      -2219.83054 EV 
          CORE-CORE REPULSION     =        932.57343 EV

          DIELECTRIC ENERGY       =         -2.46929 EV
          COSMO AREA              =        171.37 SQUARE ANGSTROMS
          COSMO VOLUME            =        175.46 CUBIC ANGSTROMS

          GRADIENT NORM           =         22.34711          =       4.65969 PER ATOM
          IONIZATION POTENTIAL    =          9.485096 EV
          ALPHA SOMO LUMO (EV)    =         -9.485 -2.229
          BETA  SOMO LUMO (EV)    =        -11.471 -2.187
          NO. OF ALPHA ELECTRONS  =         25
          NO. OF BETA  ELECTRONS  =         24
          MOLECULAR WEIGHT        =        122.2096         POINT GROUP:  C1  

          MOLECULAR DIMENSIONS (Angstroms)

            Atom       Atom       Distance
            H    21    H    12     6.89251
            H    18    H    11     4.69189
            H    19    H    23     3.79260


          SCF CALCULATIONS        =          2

          WALL-CLOCK TIME         =      1.664 SECONDS
          COMPUTATION TIME        =      1.084 SECONDS

          LARGEST ATOMIC GRADIENTS

          Atom     Label                     Cartesian Gradients           Cartesian Coordinates       |Gradient|
                                           X          Y          Z        X          Y          Z

             5       C                  14.313      4.928      0.294    1.44226   -1.01609    0.95067     15.140
             6       C                  -5.464     -7.449      2.489    2.26691    0.16851    1.02256      9.567
             7       C                   5.081      6.335      2.668    2.29067    0.89274   -0.24142      8.548
             1       C                   4.348     -1.237      1.259   -2.73358    0.39610    0.29737      4.692
             4       C                  -3.876      1.998      1.534   -0.02642   -0.79954    1.50174      4.623
             2       C                   2.437      0.786      1.162   -1.39026    0.30482   -0.42176      2.812
            18       H                  -2.206     -1.011      0.865    1.88654   -1.95420    1.34173      2.576
            21       H                  -0.819     -1.240     -2.009    3.33858    1.01205   -0.66125      2.499
            20       H                  -1.816     -0.312     -1.450    2.01062    1.98436   -0.15167      2.344
            22       H                  -0.798      0.254     -2.185    1.20246    0.44014   -2.17823      2.340



       FINAL  POINT  AND  DERIVATIVES

   PARAMETER     ATOM    TYPE            VALUE        GRADIENT
      1          1  C    CARTESIAN X    -2.733581      4.347649  KCAL/ANGSTROM
      2          1  C    CARTESIAN Y     0.396104     -1.237314  KCAL/ANGSTROM
      3          1  C    CARTESIAN Z     0.297370      1.259147  KCAL/ANGSTROM
      4          2  C    CARTESIAN X    -1.390257      2.436973  KCAL/ANGSTROM
      5          2  C    CARTESIAN Y     0.304824      0.786149  KCAL/ANGSTROM
      6          2  C    CARTESIAN Z    -0.421760      1.161503  KCAL/ANGSTROM
      7          3  C    CARTESIAN X    -0.601276     -0.655393  KCAL/ANGSTROM
      8          3  C    CARTESIAN Y    -0.899307      0.916497  KCAL/ANGSTROM
      9          3  C    CARTESIAN Z     0.060840     -0.867212  KCAL/ANGSTROM
     10          4  C    CARTESIAN X    -0.026417     -3.876282  KCAL/ANGSTROM
     11          4  C    CARTESIAN Y    -0.799541      1.998062  KCAL/ANGSTROM
     12          4  C    CARTESIAN Z     1.501738      1.534030  KCAL/ANGSTROM
     13          5  C    CARTESIAN X     1.442256     14.312596  KCAL/ANGSTROM
     14          5  C    CARTESIAN Y    -1.016094      4.928304  KCAL/ANGSTROM
     15          5  C    CARTESIAN Z     0.950673      0.294237  KCAL/ANGSTROM
     16          6  C    CARTESIAN X     2.266907     -5.463912  KCAL/ANGSTROM
     17          6  C    CARTESIAN Y     0.168513     -7.448733  KCAL/ANGSTROM
     18          6  C    CARTESIAN Z     1.022560      2.488958  KCAL/ANGSTROM
     19          7  C    CARTESIAN X     2.290665      5.081044  KCAL/ANGSTROM
     20          7  C    CARTESIAN Y     0.892740      6.334580  KCAL/ANGSTROM
     21          7  C    CARTESIAN Z    -0.241416      2.668443  KCAL/ANGSTROM
     22          8  C    CARTESIAN X     1.407888     -0.823912  KCAL/ANGSTROM
     23          8  C    CARTESIAN Y     0.143763     -1.692497  KCAL/ANGSTROM
     24          8  C    CARTESIAN Z    -1.172135      0.547418  KCAL/ANGSTROM
     25          9  C    CARTESIAN X     0.847856      0.411382  KCAL/ANGSTROM
     26          9  C    CARTESIAN Y    -1.047918      1.475795  KCAL/ANGSTROM
     27          9  C    CARTESIAN Z    -0.515886     -0.034782  KCAL/ANGSTROM
     28         10  H    CARTESIAN X    -2.616572     -1.231652  KCAL/ANGSTROM
     29         10  H    CARTESIAN Y     0.559792      0.453976  KCAL/ANGSTROM
     30         10  H    CARTESIAN Z     1.374031     -0.220947  KCAL/ANGSTROM
     31         11  H    CARTESIAN X    -3.338582     -1.357510  KCAL/ANGSTROM
     32         11  H    CARTESIAN Y     1.227362      0.096648  KCAL/ANGSTROM
     33         11  H    CARTESIAN Z    -0.093454     -0.526646  KCAL/ANGSTROM
     34         12  H    CARTESIAN X    -3.331680     -1.280990  KCAL/ANGSTROM
     35         12  H    CARTESIAN Y    -0.515296      0.335506  KCAL/ANGSTROM
     36         12  H    CARTESIAN Z     0.164247     -0.517695  KCAL/ANGSTROM
     37         13  H    CARTESIAN X    -0.822129     -1.371749  KCAL/ANGSTROM
     38         13  H    CARTESIAN Y     1.243587     -0.116647  KCAL/ANGSTROM
     39         13  H    CARTESIAN Z    -0.285691     -0.549761  KCAL/ANGSTROM
     40         14  H    CARTESIAN X    -1.561404     -1.390470  KCAL/ANGSTROM
     41         14  H    CARTESIAN Y     0.219653     -0.404045  KCAL/ANGSTROM
     42         14  H    CARTESIAN Z    -1.517775     -0.735553  KCAL/ANGSTROM
     43         15  H    CARTESIAN X    -1.195361     -1.348601  KCAL/ANGSTROM
     44         15  H    CARTESIAN Y    -1.825958     -0.654345  KCAL/ANGSTROM
     45         15  H    CARTESIAN Z    -0.087744     -0.290936  KCAL/ANGSTROM
     46         16  H    CARTESIAN X    -0.202291     -1.145647  KCAL/ANGSTROM
     47         16  H    CARTESIAN Y     0.153952     -0.311715  KCAL/ANGSTROM
     48         16  H    CARTESIAN Z     2.007928      0.115466  KCAL/ANGSTROM
     49         17  H    CARTESIAN X    -0.342942     -0.801714  KCAL/ANGSTROM
     50         17  H    CARTESIAN Y    -1.606911     -1.455426  KCAL/ANGSTROM
     51         17  H    CARTESIAN Z     2.178225      0.801491  KCAL/ANGSTROM
     52         18  H    CARTESIAN X     1.886539     -2.205746  KCAL/ANGSTROM
     53         18  H    CARTESIAN Y    -1.954201     -1.010658  KCAL/ANGSTROM
     54         18  H    CARTESIAN Z     1.341731      0.865247  KCAL/ANGSTROM
     55         19  H    CARTESIAN X     2.814272      0.050037  KCAL/ANGSTROM
     56         19  H    CARTESIAN Y     0.486459     -0.760906  KCAL/ANGSTROM
     57         19  H    CARTESIAN Z     1.917812     -1.085265  KCAL/ANGSTROM
     58         20  H    CARTESIAN X     2.010620     -1.815894  KCAL/ANGSTROM
     59         20  H    CARTESIAN Y     1.984365     -0.312002  KCAL/ANGSTROM
     60         20  H    CARTESIAN Z    -0.151671     -1.449611  KCAL/ANGSTROM
     61         21  H    CARTESIAN X     3.338582     -0.818682  KCAL/ANGSTROM
     62         21  H    CARTESIAN Y     1.012053     -1.239815  KCAL/ANGSTROM
     63         21  H    CARTESIAN Z    -0.661255     -2.009424  KCAL/ANGSTROM
     64         22  H    CARTESIAN X     1.202461     -0.797875  KCAL/ANGSTROM
     65         22  H    CARTESIAN Y     0.440143      0.253972  KCAL/ANGSTROM
     66         22  H    CARTESIAN Z    -2.178225     -2.185101  KCAL/ANGSTROM
     67         23  H    CARTESIAN X     1.003502     -0.253656  KCAL/ANGSTROM
     68         23  H    CARTESIAN Y    -1.984365     -0.935391  KCAL/ANGSTROM
     69         23  H    CARTESIAN Z    -1.080257     -1.263012  KCAL/ANGSTROM




   ATOM   CHEMICAL          X               Y               Z
  NUMBER   SYMBOL      (ANGSTROMS)     (ANGSTROMS)     (ANGSTROMS)

     1       C         -2.73358112  *   0.39610403  *   0.29736991  *
     2       C         -1.39025738  *   0.30482443  *  -0.42176010  *
     3       C         -0.60127624  *  -0.89930725  *   0.06083976  *
     4       C         -0.02641665  *  -0.79954117  *   1.50173814  *
     5       C          1.44225606  *  -1.01609351  *   0.95067278  *
     6       C          2.26690703  *   0.16851310  *   1.02256036  *
     7       C          2.29066510  *   0.89274041  *  -0.24141551  *
     8       C          1.40788784  *   0.14376341  *  -1.17213527  *
     9       C          0.84785569  *  -1.04791765  *  -0.51588595  *
    10       H         -2.61657198  *   0.55979172  *   1.37403090  *
    11       H         -3.33858240  *   1.22736182  *  -0.09345352  *
    12       H         -3.33168032  *  -0.51529552  *   0.16424715  *
    13       H         -0.82212925  *   1.24358725  *  -0.28569099  *
    14       H         -1.56140354  *   0.21965267  *  -1.51777543  *
    15       H         -1.19536058  *  -1.82595762  *  -0.08774360  *
    16       H         -0.20229119  *   0.15395201  *   2.00792805  *
    17       H         -0.34294206  *  -1.60691128  *   2.17822538  *
    18       H          1.88653941  *  -1.95420143  *   1.34173077  *
    19       H          2.81427163  *   0.48645948  *   1.91781200  *
    20       H          2.01062010  *   1.98436468  *  -0.15167138  *
    21       H          3.33858240  *   1.01205343  *  -0.66125464  *
    22       H          1.20246075  *   0.44014349  *  -2.17822538  *
    23       H          1.00350220  *  -1.98436468  *  -1.08025748  *

                             CARTESIAN COORDINATES

   1    C       -2.733581120     0.396104030     0.297369915
   2    C       -1.390257383     0.304824429    -0.421760104
   3    C       -0.601276241    -0.899307249     0.060839764
   4    C       -0.026416647    -0.799541173     1.501738138
   5    C        1.442256058    -1.016093505     0.950672780
   6    C        2.266907033     0.168513104     1.022560363
   7    C        2.290665096     0.892740405    -0.241415506
   8    C        1.407887838     0.143763408    -1.172135274
   9    C        0.847855686    -1.047917647    -0.515885947
  10    H       -2.616571984     0.559791721     1.374030897
  11    H       -3.338582400     1.227361817    -0.093453516
  12    H       -3.331680317    -0.515295519     0.164247151
  13    H       -0.822129249     1.243587252    -0.285690988
  14    H       -1.561403537     0.219652665    -1.517775433
  15    H       -1.195360584    -1.825957617    -0.087743604
  16    H       -0.202291187     0.153952012     2.007928052
  17    H       -0.342942063    -1.606911279     2.178225378
  18    H        1.886539411    -1.954201427     1.341730774
  19    H        2.814271628     0.486459484     1.917811998
  20    H        2.010620099     1.984364677    -0.151671380
  21    H        3.338582400     1.012053428    -0.661254642
  22    H        1.202460753     0.440143485    -2.178225378
  23    H        1.003502199    -1.984364677    -1.080257484


           Empirical Formula: C9 H14  =    23 atoms



      MOLECULAR POINT GROUP   :   C1  


          ALPHA EIGENVALUES  
 -32.83571 -29.09008 -27.11705 -25.73086 -23.46408 -22.37280 -20.84584 -19.56508
 -18.64897 -18.16625 -17.04716 -15.87496 -15.39717 -14.95580 -14.59034 -14.27931
 -14.17810 -13.46676 -13.32090 -12.96894 -12.40069 -12.09967 -11.83120 -11.47712
  -9.48510  -2.22912   1.87611   2.27912   2.64503   2.82555   2.86512   3.31886
   3.86184   3.95794   4.23503   4.33630   4.37199   4.52786   4.98694   5.19870
   5.30781   5.37946   5.52425   5.70862   5.76670   5.78395   5.86479   5.94580
   6.40002   6.87316


           BETA EIGENVALUES 
 -32.77900 -29.05444 -27.08951 -25.59786 -23.42838 -22.31344 -20.75717 -19.49476
 -18.55873 -18.10520 -16.91787 -15.82441 -15.35124 -14.79611 -14.54338 -14.21451
 -14.03831 -13.37918 -13.29589 -12.94212 -12.39117 -11.89409 -11.78606 -11.47099
  -2.18668  -0.02388   1.89336   2.31814   2.64452   2.87595   2.94322   3.53791
   3.93255   4.06774   4.31397   4.35710   4.49430   4.61878   4.99407   5.22207
   5.32099   5.38305   5.57358   5.71019   5.77627   5.86724   5.93831   5.99363
   6.40301   6.87357


              NET ATOMIC CHARGES AND DIPOLE CONTRIBUTIONS

  ATOM NO.   TYPE          CHARGE      No. of ELECS.   s-Pop       p-Pop       
    1          C          -0.445329        4.4453     1.05210     3.39322
    2          C          -0.276168        4.2762     1.05547     3.22070
    3          C          -0.105207        4.1052     1.07749     3.02772
    4          C          -0.228607        4.2286     1.08214     3.14647
    5          C          -0.294082        4.2941     1.09042     3.20367
    6          C           0.447817        3.5522     1.20838     2.34380
    7          C          -0.400350        4.4004     1.06770     3.33265
    8          C          -0.176155        4.1762     1.11635     3.05980
    9          C          -0.129756        4.1298     1.07924     3.05051
   10          H           0.148713        0.8513     0.85129
   11          H           0.154050        0.8460     0.84595
   12          H           0.153822        0.8462     0.84618
   13          H           0.145543        0.8545     0.85446
   14          H           0.153182        0.8468     0.84682
   15          H           0.161410        0.8386     0.83859
   16          H           0.166127        0.8339     0.83387
   17          H           0.174776        0.8252     0.82522
   18          H           0.234735        0.7653     0.76526
   19          H           0.206458        0.7935     0.79354
   20          H           0.271970        0.7280     0.72803
   21          H           0.280675        0.7193     0.71933
   22          H           0.174993        0.8250     0.82501
   23          H           0.181383        0.8186     0.81862
 DIPOLE           X         Y         Z       TOTAL
 POINT-CHG.     7.160     1.785     2.695     7.856
 HYBRID         0.487     0.175     0.241     0.571
 SUM            7.647     1.960     2.936     8.422


          ATOMIC ORBITAL ELECTRON POPULATIONS

     Atom    s        px        py        pz   
    1  C   1.05210   1.05834   1.18439   1.15049
    2  C   1.05547   1.02968   1.06985   1.12117
    3  C   1.07749   0.97701   1.08921   0.96150
    4  C   1.08214   0.89654   1.19051   1.05942
    5  C   1.09042   1.03003   1.07986   1.09378
    6  C   1.20838   0.56317   0.79801   0.98262
    7  C   1.06770   1.16908   1.14255   1.02102
    8  C   1.11635   1.00805   0.99207   1.05968
    9  C   1.07924   1.01191   1.08121   0.95739
   10  H   0.85129
   11  H   0.84595
   12  H   0.84618
   13  H   0.85446
   14  H   0.84682
   15  H   0.83859
   16  H   0.83387
   17  H   0.82522
   18  H   0.76526
   19  H   0.79354
   20  H   0.72803
   21  H   0.71933
   22  H   0.82501
   23  H   0.81862


                    (SZ)    =    0.500000
                    (S**2)  =    0.754001


          ATOMIC ORBITAL SPIN POPULATIONS

    Atom   Total    s     px     py     pz   
         Atomic
    1  C  0.0004  0.000  0.000  0.000  0.000
    2  C -0.0010 -0.000 -0.000 -0.000 -0.000
    3  C  0.0545  0.008  0.031  0.002  0.013
    4  C -0.0001  0.000  0.001 -0.000 -0.001
    5  C  0.0054  0.001  0.002 -0.000  0.003
    6  C  0.0180  0.001  0.011  0.004  0.002
    7  C -0.0391 -0.006 -0.013 -0.009 -0.011
    8  C  0.9976  0.026  0.567  0.289  0.116
    9  C -0.0581 -0.007 -0.022 -0.021 -0.008
   10  H -0.0000 -0.000
   11  H  0.0000  0.000
   12  H  0.0000  0.000
   13  H -0.0003 -0.000
   14  H  0.0001  0.000
   15  H -0.0011 -0.001
   16  H  0.0001  0.000
   17  H  0.0004  0.000
   18  H  0.0008  0.001
   19  H -0.0008 -0.001
   20  H  0.0147  0.015
   21  H  0.0156  0.016
   22  H -0.0274 -0.027
   23  H  0.0201  0.020

 **********************
 *                    *
 * JOB ENDED NORMALLY *
 *                    *
 **********************



 TOTAL JOB TIME:             2.25 SECONDS

 == MOPAC DONE ==
