 *******************************************************************************
 **                                                                           **
 **                              MOPAC v23.2                                  **
 **                                                                           **
 *******************************************************************************
 **          Digital Object Identifier (DOI): 10.5281/zenodo.6511958          **
 **    Visit the DOI location for information on how to cite this program.    **
 *******************************************************************************

                              PM7 CALCULATION RESULTS

 *******************************************************************************
 *  CALCULATION DONE: (MAX THREADS = 40)             Fri Sep 19 21:59:30 2025  *
 *  PM7        - The PM7 Hamiltonian to be used
 *
 *
 *
 *                 CHARGE ON SYSTEM = +1
 *
 *
 *
 *  EPS=37.5   - USE ANDREAS KLAMT'S COSMO IMPLICIT SOLVATION MODEL
 *  1SCF       - DO 1 SCF AND THEN STOP 
 *  T=         - A TIME OF 172800.0 SECONDS REQUESTED
 *  DUMP=N     - RESTART FILE WRITTEN EVERY 7200.0 SECONDS REQUESTED
 *  RELSCF     - DEFAULT SCF CRITERION MULTIPLIED BY 0.0001
 *              (DEFAULT SCF CRITERION = 0.00010)
 *  GRADIENTS  - ALL GRADIENTS TO BE PRINTED
 *  DISP       - PRINT DISPERSION AND HYDROGEN BOND ENERGIES
 *******************************************************************************
PM7 1SCF GRADIENTS EPS=37.5 DISP RELSCF=0.0001 CHARGE=1
 Title: ASE calculation

   ATOM   CHEMICAL          X               Y               Z
  NUMBER   SYMBOL      (ANGSTROMS)     (ANGSTROMS)     (ANGSTROMS)

     1       C         -2.48415838  *   0.19816642  *   0.18070748  *
     2       C         -1.27668453  *   0.64086447  *   0.99627024  *
     3       C          0.00607403  *   0.42632156  *   0.20647946  *
     4       C          0.07009514  *   1.21836953  *  -1.00035596  *
     5       N          0.09485990  *   1.84629711  *  -1.96916229  *
     6       C          0.46929221  *  -1.11873961  *   0.05296941  *
     7       C          1.63765983  *  -0.86028481  *   1.00702672  *
     8       C          2.56947632  *   0.37529981  *   0.56761802  *
     9       N          1.24639292  *   0.55137733  *   1.06450083  *
    10       H         -2.60246104  *   0.77650983  *  -0.74750947  *
    11       H         -3.41801271  *   0.34959017  *   0.75144724  *
    12       H         -2.45475133  *  -0.86476430  *  -0.08688961  *
    13       H         -1.37967552  *   1.72021152  *   1.26896752  *
    14       H         -1.25141286  *   0.10245249  *   1.96916229  *
    15       H          0.74015723  *  -1.39042256  *  -0.98204268  *
    16       H         -0.27897228  *  -1.84629711  *   0.40982088  *
    17       H          1.96509138  *  -1.54613619  *   1.78846455  *
    18       H          3.41801271  *   0.57905375  *   1.25593810  *
    19       H          2.83618439  *   0.63256545  *  -0.46978040  *



          CARTESIAN COORDINATES 

    NO.       ATOM           X           Y           Z

     1         C         -2.4842      0.1982      0.1807
     2         C         -1.2767      0.6409      0.9963
     3         C          0.0061      0.4263      0.2065
     4         C          0.0701      1.2184     -1.0004
     5         N          0.0949      1.8463     -1.9692
     6         C          0.4693     -1.1187      0.0530
     7         C          1.6377     -0.8603      1.0070
     8         C          2.5695      0.3753      0.5676
     9         N          1.2464      0.5514      1.0645
    10         H         -2.6025      0.7765     -0.7475
    11         H         -3.4180      0.3496      0.7514
    12         H         -2.4548     -0.8648     -0.0869
    13         H         -1.3797      1.7202      1.2690
    14         H         -1.2514      0.1025      1.9692
    15         H          0.7402     -1.3904     -0.9820
    16         H         -0.2790     -1.8463      0.4098
    17         H          1.9651     -1.5461      1.7885
    18         H          3.4180      0.5791      1.2559
    19         H          2.8362      0.6326     -0.4698

 General Reference for PM7:
 "Optimization of Parameters for Semiempirical Methods VI: More Modifications to the 
 NDDO Approximations and Re-optimization of Parameters", J. J. P. Stewart, J. Mol. Mod., 1:32, 19 (2013)
 https://link.springer.com/article/10.1007/s00894-012-1667-x

           Empirical Formula: C7 H10 N2  =    19 atoms



      MOLECULAR POINT GROUP   :   C1  


          UHF CALCULATION, NO. OF ALPHA ELECTRONS =   24
                           NO. OF BETA  ELECTRONS =   23
  SCF CRITERION =    0.1000E-07

 -------------------------------------------------------------------------------
 PM7 1SCF GRADIENTS EPS=37.5 DISP RELSCF=0.0001 CHARGE=1
 Title: ASE calculation



     1SCF WAS SPECIFIED, SO BFGS WAS NOT USED                 
     SCF FIELD WAS ACHIEVED                                   


                              PM7 CALCULATION
                                                       MOPAC v23.2 Linux
                                                       Fri Sep 19 21:59:31 2025




          FINAL HEAT OF FORMATION =        240.87692 KCAL/MOL =    1007.82905 KJ/MOL

          TOTAL ENERGY            =     -31307.74479 KCAL/MOL = ELECTRONIC ENERGY + CORE-CORE REPULSION + SOLVATION ENERGY
          ENERGY OF ATOMS         =      31550.59433 KCAL/MOL
                              SUM =        242.84955 KCAL/MOL
          DISPERSION ENERGY       =         -1.97262 KCAL/MOL
                              SUM =        240.87692 KCAL/MOL = FINAL HEAT OF FORMATION

          VAN DER WAALS AREA      =        166.21 SQUARE ANGSTROMS


          TOTAL ENERGY            =      -1357.63231 EV
          ELECTRONIC ENERGY       =      -2129.26571 EV 
          CORE-CORE REPULSION     =        771.63340 EV

          DIELECTRIC ENERGY       =         -2.58564 EV
          COSMO AREA              =        166.21 SQUARE ANGSTROMS
          COSMO VOLUME            =        167.90 CUBIC ANGSTROMS

          GRADIENT NORM           =         16.43790          =       3.77111 PER ATOM
          IONIZATION POTENTIAL    =         12.078472 EV
          ALPHA SOMO LUMO (EV)    =        -12.078 -1.062
          BETA  SOMO LUMO (EV)    =        -12.426 -3.805
          NO. OF ALPHA ELECTRONS  =         24
          NO. OF BETA  ELECTRONS  =         23
          MOLECULAR WEIGHT        =        122.1694         POINT GROUP:  C1  

          MOLECULAR DIMENSIONS (Angstroms)

            Atom       Atom       Distance
            H    18    H    11     6.85846
            H    17    N     5     5.00173
            H    13    H    15     3.95267


          SCF CALCULATIONS        =          2

          WALL-CLOCK TIME         =      1.289 SECONDS
          COMPUTATION TIME        =      0.865 SECONDS

          LARGEST ATOMIC GRADIENTS

          Atom     Label                     Cartesian Gradients           Cartesian Coordinates       |Gradient|
                                           X          Y          Z        X          Y          Z

             3       C                  -8.756      5.520     -6.087    0.00607    0.42632    0.20648     12.008
             7       C                   4.784      1.814      0.973    1.63766   -0.86028    1.00703      5.208
             8       C                   1.884     -3.332      2.441    2.56948    0.37530    0.56762      4.540
             1       C                   3.672     -1.787     -0.112   -2.48416    0.19817    0.18071      4.086
             2       C                   1.507     -1.765      3.315   -1.27668    0.64086    0.99627      4.047
             6       C                   2.692     -2.277      0.196    0.46929   -1.11874    0.05297      3.531
             9       N                   1.658     -2.268     -0.479    1.24639    0.55138    1.06450      2.850
             4       C                   1.731     -0.342      1.333    0.07010    1.21837   -1.00036      2.211
             5       N                  -0.135     -1.069      1.609    0.09486    1.84630   -1.96916      1.936
            14       H                  -1.541      0.574     -0.202   -1.25141    0.10245    1.96916      1.657



       FINAL  POINT  AND  DERIVATIVES

   PARAMETER     ATOM    TYPE            VALUE        GRADIENT
      1          1  C    CARTESIAN X    -2.484158      3.672163  KCAL/ANGSTROM
      2          1  C    CARTESIAN Y     0.198166     -1.787231  KCAL/ANGSTROM
      3          1  C    CARTESIAN Z     0.180707     -0.112117  KCAL/ANGSTROM
      4          2  C    CARTESIAN X    -1.276685      1.506586  KCAL/ANGSTROM
      5          2  C    CARTESIAN Y     0.640864     -1.765410  KCAL/ANGSTROM
      6          2  C    CARTESIAN Z     0.996270      3.315073  KCAL/ANGSTROM
      7          3  C    CARTESIAN X     0.006074     -8.756140  KCAL/ANGSTROM
      8          3  C    CARTESIAN Y     0.426322      5.519717  KCAL/ANGSTROM
      9          3  C    CARTESIAN Z     0.206479     -6.087312  KCAL/ANGSTROM
     10          4  C    CARTESIAN X     0.070095      1.731156  KCAL/ANGSTROM
     11          4  C    CARTESIAN Y     1.218370     -0.342037  KCAL/ANGSTROM
     12          4  C    CARTESIAN Z    -1.000356      1.332602  KCAL/ANGSTROM
     13          5  N    CARTESIAN X     0.094860     -0.135161  KCAL/ANGSTROM
     14          5  N    CARTESIAN Y     1.846297     -1.068599  KCAL/ANGSTROM
     15          5  N    CARTESIAN Z    -1.969162      1.608604  KCAL/ANGSTROM
     16          6  C    CARTESIAN X     0.469292      2.691753  KCAL/ANGSTROM
     17          6  C    CARTESIAN Y    -1.118740     -2.277204  KCAL/ANGSTROM
     18          6  C    CARTESIAN Z     0.052969      0.195602  KCAL/ANGSTROM
     19          7  C    CARTESIAN X     1.637660      4.784126  KCAL/ANGSTROM
     20          7  C    CARTESIAN Y    -0.860285      1.813546  KCAL/ANGSTROM
     21          7  C    CARTESIAN Z     1.007027      0.972521  KCAL/ANGSTROM
     22          8  C    CARTESIAN X     2.569476      1.883893  KCAL/ANGSTROM
     23          8  C    CARTESIAN Y     0.375300     -3.331936  KCAL/ANGSTROM
     24          8  C    CARTESIAN Z     0.567618      2.441048  KCAL/ANGSTROM
     25          9  N    CARTESIAN X     1.246393      1.658440  KCAL/ANGSTROM
     26          9  N    CARTESIAN Y     0.551377     -2.267902  KCAL/ANGSTROM
     27          9  N    CARTESIAN Z     1.064501     -0.478648  KCAL/ANGSTROM
     28         10  H    CARTESIAN X    -2.602461     -1.047091  KCAL/ANGSTROM
     29         10  H    CARTESIAN Y     0.776510      0.950113  KCAL/ANGSTROM
     30         10  H    CARTESIAN Z    -0.747509     -0.356609  KCAL/ANGSTROM
     31         11  H    CARTESIAN X    -3.418013     -1.548761  KCAL/ANGSTROM
     32         11  H    CARTESIAN Y     0.349590      0.435814  KCAL/ANGSTROM
     33         11  H    CARTESIAN Z     0.751447     -0.011231  KCAL/ANGSTROM
     34         12  H    CARTESIAN X    -2.454751     -1.273435  KCAL/ANGSTROM
     35         12  H    CARTESIAN Y    -0.864764      0.450202  KCAL/ANGSTROM
     36         12  H    CARTESIAN Z    -0.086890      0.089693  KCAL/ANGSTROM
     37         13  H    CARTESIAN X    -1.379676     -0.939547  KCAL/ANGSTROM
     38         13  H    CARTESIAN Y     1.720212      0.682433  KCAL/ANGSTROM
     39         13  H    CARTESIAN Z     1.268968     -0.729711  KCAL/ANGSTROM
     40         14  H    CARTESIAN X    -1.251413     -1.541044  KCAL/ANGSTROM
     41         14  H    CARTESIAN Y     0.102452      0.574332  KCAL/ANGSTROM
     42         14  H    CARTESIAN Z     1.969162     -0.202150  KCAL/ANGSTROM
     43         15  H    CARTESIAN X     0.740157     -0.691891  KCAL/ANGSTROM
     44         15  H    CARTESIAN Y    -1.390423      0.620055  KCAL/ANGSTROM
     45         15  H    CARTESIAN Z    -0.982043     -0.269468  KCAL/ANGSTROM
     46         16  H    CARTESIAN X    -0.278972     -0.681646  KCAL/ANGSTROM
     47         16  H    CARTESIAN Y    -1.846297      0.016875  KCAL/ANGSTROM
     48         16  H    CARTESIAN Z     0.409821      0.077645  KCAL/ANGSTROM
     49         17  H    CARTESIAN X     1.965091     -0.957625  KCAL/ANGSTROM
     50         17  H    CARTESIAN Y    -1.546136      0.563117  KCAL/ANGSTROM
     51         17  H    CARTESIAN Z     1.788465     -0.281402  KCAL/ANGSTROM
     52         18  H    CARTESIAN X     3.418013     -0.144767  KCAL/ANGSTROM
     53         18  H    CARTESIAN Y     0.579054      0.839400  KCAL/ANGSTROM
     54         18  H    CARTESIAN Z     1.255938     -0.904750  KCAL/ANGSTROM
     55         19  H    CARTESIAN X     2.836184     -0.211009  KCAL/ANGSTROM
     56         19  H    CARTESIAN Y     0.632565      0.374712  KCAL/ANGSTROM
     57         19  H    CARTESIAN Z    -0.469780     -0.599393  KCAL/ANGSTROM




   ATOM   CHEMICAL          X               Y               Z
  NUMBER   SYMBOL      (ANGSTROMS)     (ANGSTROMS)     (ANGSTROMS)

     1       C         -2.48415838  *   0.19816642  *   0.18070748  *
     2       C         -1.27668453  *   0.64086447  *   0.99627024  *
     3       C          0.00607403  *   0.42632156  *   0.20647946  *
     4       C          0.07009514  *   1.21836953  *  -1.00035596  *
     5       N          0.09485990  *   1.84629711  *  -1.96916229  *
     6       C          0.46929221  *  -1.11873961  *   0.05296941  *
     7       C          1.63765983  *  -0.86028481  *   1.00702672  *
     8       C          2.56947632  *   0.37529981  *   0.56761802  *
     9       N          1.24639292  *   0.55137733  *   1.06450083  *
    10       H         -2.60246104  *   0.77650983  *  -0.74750947  *
    11       H         -3.41801271  *   0.34959017  *   0.75144724  *
    12       H         -2.45475133  *  -0.86476430  *  -0.08688961  *
    13       H         -1.37967552  *   1.72021152  *   1.26896752  *
    14       H         -1.25141286  *   0.10245249  *   1.96916229  *
    15       H          0.74015723  *  -1.39042256  *  -0.98204268  *
    16       H         -0.27897228  *  -1.84629711  *   0.40982088  *
    17       H          1.96509138  *  -1.54613619  *   1.78846455  *
    18       H          3.41801271  *   0.57905375  *   1.25593810  *
    19       H          2.83618439  *   0.63256545  *  -0.46978040  *

                             CARTESIAN COORDINATES

   1    C       -2.484158378     0.198166417     0.180707475
   2    C       -1.276684532     0.640864475     0.996270242
   3    C        0.006074027     0.426321559     0.206479464
   4    C        0.070095139     1.218369528    -1.000355961
   5    N        0.094859901     1.846297105    -1.969162289
   6    C        0.469292208    -1.118739606     0.052969413
   7    C        1.637659832    -0.860284807     1.007026719
   8    C        2.569476318     0.375299806     0.567618023
   9    N        1.246392925     0.551377333     1.064500826
  10    H       -2.602461043     0.776509833    -0.747509470
  11    H       -3.418012709     0.349590173     0.751447240
  12    H       -2.454751330    -0.864764301    -0.086889608
  13    H       -1.379675517     1.720211524     1.268967517
  14    H       -1.251412858     0.102452487     1.969162289
  15    H        0.740157231    -1.390422555    -0.982042681
  16    H       -0.278972282    -1.846297105     0.409820883
  17    H        1.965091376    -1.546136193     1.788464551
  18    H        3.418012709     0.579053752     1.255938096
  19    H        2.836184386     0.632565448    -0.469780401


           Empirical Formula: C7 H10 N2  =    19 atoms



      MOLECULAR POINT GROUP   :   C1  


          ALPHA EIGENVALUES  
 -40.35541 -36.09638 -30.18363 -26.97608 -26.31004 -24.16956 -22.23230 -21.16670
 -19.38161 -18.54577 -18.24164 -16.44724 -15.98085 -15.72679 -15.15641 -14.91310
 -14.50077 -14.34384 -14.10880 -13.84824 -13.34602 -13.04139 -12.50160 -12.07847
  -1.06250  -0.33019  -0.09264   0.39466   0.82576   1.27939   1.61042   1.75081
   2.31705   2.47813   3.60629   4.07222   4.30589   4.44671   4.51415   4.55332
   4.73621   5.06724   5.32222   5.48362   5.68439   6.54705


           BETA EIGENVALUES 
 -39.45651 -36.08594 -30.08789 -26.77099 -25.93421 -23.83741 -22.15684 -21.05919
 -18.90583 -18.14443 -17.80714 -16.36302 -15.78152 -15.67110 -15.03135 -14.66310
 -14.39643 -14.19666 -13.90411 -13.68226 -12.94247 -12.92295 -12.42607  -3.80464
  -0.61794  -0.12675   0.15640   0.57813   0.92509   1.34407   1.69537   2.00624
   2.47294   2.70221   3.61439   4.14366   4.35279   4.49854   4.55671   4.56801
   4.74057   5.07293   5.32246   5.48406   5.68516   6.54704


              NET ATOMIC CHARGES AND DIPOLE CONTRIBUTIONS

  ATOM NO.   TYPE          CHARGE      No. of ELECS.   s-Pop       p-Pop       
    1          C          -0.446370        4.4464     1.05175     3.39462
    2          C          -0.282651        4.2827     1.06334     3.21931
    3          C           0.203397        3.7966     1.09802     2.69858
    4          C           0.097729        3.9023     1.11448     2.78779
    5          N          -0.209272        5.2093     1.82586     3.38341
    6          C          -0.294129        4.2941     1.10521     3.18892
    7          C           0.050015        3.9500     1.13648     2.81350
    8          C          -0.108290        4.1083     1.12319     2.98510
    9          N          -0.096038        5.0960     1.67932     3.41672
   10          H           0.164540        0.8355     0.83546
   11          H           0.179192        0.8208     0.82081
   12          H           0.163422        0.8366     0.83658
   13          H           0.195534        0.8045     0.80447
   14          H           0.191868        0.8081     0.80813
   15          H           0.227703        0.7723     0.77230
   16          H           0.222934        0.7771     0.77707
   17          H           0.256186        0.7438     0.74381
   18          H           0.257660        0.7423     0.74234
   19          H           0.226569        0.7734     0.77343
 DIPOLE           X         Y         Z       TOTAL
 POINT-CHG.     4.582    -4.964     4.300     8.008
 HYBRID         0.154     0.349     0.290     0.479
 SUM            4.736    -4.616     4.590     8.050


          ATOMIC ORBITAL ELECTRON POPULATIONS

     Atom    s        px        py        pz   
    1  C   1.05175   1.07021   1.17983   1.14457
    2  C   1.06334   0.93166   1.20298   1.08467
    3  C   1.09802   0.89845   0.93772   0.86242
    4  C   1.11448   0.93175   0.92911   0.92693
    5  N   1.82586   1.07505   1.12213   1.18623
    6  C   1.10521   1.05195   0.99155   1.14542
    7  C   1.13648   0.96461   0.85040   0.99848
    8  C   1.12319   0.90588   0.88977   1.18945
    9  N   1.67932   1.11907   1.12074   1.17691
   10  H   0.83546
   11  H   0.82081
   12  H   0.83658
   13  H   0.80447
   14  H   0.80813
   15  H   0.77230
   16  H   0.77707
   17  H   0.74381
   18  H   0.74234
   19  H   0.77343


                    (SZ)    =    0.500000
                    (S**2)  =    0.755903


          ATOMIC ORBITAL SPIN POPULATIONS

    Atom   Total    s     px     py     pz   
         Atomic
    1  C -0.0017 -0.000 -0.001 -0.000 -0.000
    2  C  0.0090  0.001  0.003  0.002  0.003
    3  C  0.0028 -0.005 -0.023  0.018  0.013
    4  C -0.0008  0.001  0.001 -0.002 -0.000
    5  N  0.0054  0.000 -0.001  0.006  0.001
    6  C  0.0519  0.007 -0.003  0.032  0.016
    7  C  0.1345  0.001  0.047 -0.021  0.108
    8  C  0.0802 -0.004 -0.026  0.096  0.014
    9  N  0.6833  0.042  0.032  0.214  0.395
   10  H  0.0001  0.000
   11  H -0.0001 -0.000
   12  H  0.0001  0.000
   13  H  0.0014  0.001
   14  H -0.0004 -0.000
   15  H  0.0148  0.015
   16  H -0.0015 -0.002
   17  H  0.0069  0.007
   18  H  0.0119  0.012
   19  H  0.0023  0.002

 **********************
 *                    *
 * JOB ENDED NORMALLY *
 *                    *
 **********************



 TOTAL JOB TIME:             1.65 SECONDS

 == MOPAC DONE ==
