 *******************************************************************************
 **                                                                           **
 **                              MOPAC v23.2                                  **
 **                                                                           **
 *******************************************************************************
 **          Digital Object Identifier (DOI): 10.5281/zenodo.6511958          **
 **    Visit the DOI location for information on how to cite this program.    **
 *******************************************************************************

                              PM7 CALCULATION RESULTS

 *******************************************************************************
 *  CALCULATION DONE: (MAX THREADS = 40)             Fri Sep 19 21:35:05 2025  *
 *  PM7        - The PM7 Hamiltonian to be used
 *
 *
 *
 *                 CHARGE ON SYSTEM = +1
 *
 *
 *
 *  1SCF       - DO 1 SCF AND THEN STOP 
 *  T=         - A TIME OF 172800.0 SECONDS REQUESTED
 *  DUMP=N     - RESTART FILE WRITTEN EVERY 7200.0 SECONDS REQUESTED
 *  RELSCF     - DEFAULT SCF CRITERION MULTIPLIED BY 0.0001
 *              (DEFAULT SCF CRITERION = 0.00010)
 *  GRADIENTS  - ALL GRADIENTS TO BE PRINTED
 *  DISP       - PRINT DISPERSION AND HYDROGEN BOND ENERGIES
 *******************************************************************************
PM7 1SCF GRADIENTS DISP RELSCF=0.0001 CHARGE=1
 Title: ASE calculation

   ATOM   CHEMICAL          X               Y               Z
  NUMBER   SYMBOL      (ANGSTROMS)     (ANGSTROMS)     (ANGSTROMS)

     1       C         -2.20714768  *   1.14191300  *  -0.79614505  *
     2       C         -1.83832626  *   0.08249964  *   0.12283228  *
     3       C         -2.70348845  *  -1.06770751  *   0.29402168  *
     4       C         -0.56643852  *   0.16190306  *   0.86413918  *
     5       C          0.41923584  *  -0.59327441  *   0.04323209  *
     6       C          1.27550174  *   0.08493216  *  -0.94548993  *
     7       C          2.67164137  *  -0.16436533  *  -0.64833685  *
     8       N          3.78510877  *  -0.35729984  *  -0.41150738  *
     9       H         -3.20094645  *   1.60232348  *  -0.56456577  *
    10       H         -1.49848118  *   1.99233402  *  -0.86340147  *
    11       H         -2.36081603  *   0.78789329  *  -1.84562397  *
    12       H         -3.66601461  *  -0.81078813  *   0.80955857  *
    13       H         -3.06206362  *  -1.51768566  *  -0.66231317  *
    14       H         -2.27721919  *  -1.90246787  *   0.89048971  *
    15       H         -0.21338304  *   1.20969195  *   1.05263953  *
    16       H         -0.62427280  *  -0.28314055  *   1.89610085  *
    17       H          0.57213900  *  -1.64468585  *   0.24422328  *
    18       H          1.04379296  *  -0.29725249  *  -1.98333550  *
    19       H          1.09614132  *   1.18835842  *  -1.00828426  *



          CARTESIAN COORDINATES 

    NO.       ATOM           X           Y           Z

     1         C         -2.2071      1.1419     -0.7961
     2         C         -1.8383      0.0825      0.1228
     3         C         -2.7035     -1.0677      0.2940
     4         C         -0.5664      0.1619      0.8641
     5         C          0.4192     -0.5933      0.0432
     6         C          1.2755      0.0849     -0.9455
     7         C          2.6716     -0.1644     -0.6483
     8         N          3.7851     -0.3573     -0.4115
     9         H         -3.2009      1.6023     -0.5646
    10         H         -1.4985      1.9923     -0.8634
    11         H         -2.3608      0.7879     -1.8456
    12         H         -3.6660     -0.8108      0.8096
    13         H         -3.0621     -1.5177     -0.6623
    14         H         -2.2772     -1.9025      0.8905
    15         H         -0.2134      1.2097      1.0526
    16         H         -0.6243     -0.2831      1.8961
    17         H          0.5721     -1.6447      0.2442
    18         H          1.0438     -0.2973     -1.9833
    19         H          1.0961      1.1884     -1.0083

 General Reference for PM7:
 "Optimization of Parameters for Semiempirical Methods VI: More Modifications to the 
 NDDO Approximations and Re-optimization of Parameters", J. J. P. Stewart, J. Mol. Mod., 1:32, 19 (2013)
 https://link.springer.com/article/10.1007/s00894-012-1667-x

           Empirical Formula: C7 H11 N  =    19 atoms



      MOLECULAR POINT GROUP   :   C1  


          UHF CALCULATION, NO. OF ALPHA ELECTRONS =   22
                           NO. OF BETA  ELECTRONS =   21
  SCF CRITERION =    0.1000E-07

 -------------------------------------------------------------------------------
 PM7 1SCF GRADIENTS DISP RELSCF=0.0001 CHARGE=1
 Title: ASE calculation



     1SCF WAS SPECIFIED, SO BFGS WAS NOT USED                 
     SCF FIELD WAS ACHIEVED                                   


                              PM7 CALCULATION
                                                       MOPAC v23.2 Linux
                                                       Fri Sep 19 21:35:06 2025




          FINAL HEAT OF FORMATION =        222.75517 KCAL/MOL =     932.00762 KJ/MOL

          TOTAL ENERGY            =     -27330.81646 KCAL/MOL = ELECTRONIC ENERGY + CORE-CORE REPULSION
          ENERGY OF ATOMS         =      27555.33859 KCAL/MOL
                              SUM =        224.52213 KCAL/MOL
          DISPERSION ENERGY       =         -1.76696 KCAL/MOL
                              SUM =        222.75517 KCAL/MOL = FINAL HEAT OF FORMATION



          TOTAL ENERGY            =      -1185.17637 EV
          ELECTRONIC ENERGY       =      -5555.09679 EV 
          CORE-CORE REPULSION     =       4369.92041 EV
          COSMO AREA              =        171.46 SQUARE ANGSTROMS
          COSMO VOLUME            =        167.49 CUBIC ANGSTROMS

          GRADIENT NORM           =          1.04524          =       0.23979 PER ATOM
          IONIZATION POTENTIAL    =         14.146879 EV
          ALPHA SOMO LUMO (EV)    =        -14.147 -6.821
          BETA  SOMO LUMO (EV)    =        -15.842 -6.830
          NO. OF ALPHA ELECTRONS  =         22
          NO. OF BETA  ELECTRONS  =         21
          MOLECULAR WEIGHT        =        109.1706         POINT GROUP:  C1  

          MOLECULAR DIMENSIONS (Angstroms)

            Atom       Atom       Distance
            H    12    N     8     7.56412
            H    10    H    14     4.14778
            H    16    H    18     3.33963


          SCF CALCULATIONS        =          1

          WALL-CLOCK TIME         =      0.812 SECONDS
          COMPUTATION TIME        =      0.676 SECONDS

          LARGEST ATOMIC GRADIENTS

          Atom     Label                     Cartesian Gradients           Cartesian Coordinates       |Gradient|
                                           X          Y          Z        X          Y          Z

             7       C                  -0.229      0.299     -0.096    2.67164   -0.16437   -0.64834      0.389
             2       C                   0.232     -0.243     -0.098   -1.83833    0.08250    0.12283      0.350
            17       H                   0.261      0.163      0.087    0.57214   -1.64469    0.24422      0.320
            12       H                  -0.294      0.064     -0.103   -3.66601   -0.81079    0.80956      0.318
             4       C                   0.175     -0.180     -0.044   -0.56644    0.16190    0.86414      0.255
             9       H                   0.054      0.104     -0.226   -3.20095    1.60232   -0.56457      0.254
             1       C                   0.133     -0.115      0.170   -2.20715    1.14191   -0.79615      0.245
             8       N                  -0.205      0.062     -0.109    3.78511   -0.35730   -0.41151      0.241
            10       H                  -0.192      0.091     -0.102   -1.49848    1.99233   -0.86340      0.236
            19       H                   0.029     -0.212      0.097    1.09614    1.18836   -1.00828      0.235



       FINAL  POINT  AND  DERIVATIVES

   PARAMETER     ATOM    TYPE            VALUE        GRADIENT
      1          1  C    CARTESIAN X    -2.207148      0.133346  KCAL/ANGSTROM
      2          1  C    CARTESIAN Y     1.141913     -0.115192  KCAL/ANGSTROM
      3          1  C    CARTESIAN Z    -0.796145      0.170341  KCAL/ANGSTROM
      4          2  C    CARTESIAN X    -1.838326      0.231510  KCAL/ANGSTROM
      5          2  C    CARTESIAN Y     0.082500     -0.243455  KCAL/ANGSTROM
      6          2  C    CARTESIAN Z     0.122832     -0.098212  KCAL/ANGSTROM
      7          3  C    CARTESIAN X    -2.703488     -0.052399  KCAL/ANGSTROM
      8          3  C    CARTESIAN Y    -1.067708      0.067973  KCAL/ANGSTROM
      9          3  C    CARTESIAN Z     0.294022      0.013513  KCAL/ANGSTROM
     10          4  C    CARTESIAN X    -0.566439      0.175263  KCAL/ANGSTROM
     11          4  C    CARTESIAN Y     0.161903     -0.180384  KCAL/ANGSTROM
     12          4  C    CARTESIAN Z     0.864139     -0.044199  KCAL/ANGSTROM
     13          5  C    CARTESIAN X     0.419236     -0.084409  KCAL/ANGSTROM
     14          5  C    CARTESIAN Y    -0.593274     -0.095887  KCAL/ANGSTROM
     15          5  C    CARTESIAN Z     0.043232      0.095623  KCAL/ANGSTROM
     16          6  C    CARTESIAN X     1.275502     -0.125722  KCAL/ANGSTROM
     17          6  C    CARTESIAN Y     0.084932     -0.130797  KCAL/ANGSTROM
     18          6  C    CARTESIAN Z    -0.945490      0.080413  KCAL/ANGSTROM
     19          7  C    CARTESIAN X     2.671641     -0.229375  KCAL/ANGSTROM
     20          7  C    CARTESIAN Y    -0.164365      0.299322  KCAL/ANGSTROM
     21          7  C    CARTESIAN Z    -0.648337     -0.096042  KCAL/ANGSTROM
     22          8  N    CARTESIAN X     3.785109     -0.205396  KCAL/ANGSTROM
     23          8  N    CARTESIAN Y    -0.357300      0.062365  KCAL/ANGSTROM
     24          8  N    CARTESIAN Z    -0.411507     -0.109218  KCAL/ANGSTROM
     25          9  H    CARTESIAN X    -3.200946      0.053859  KCAL/ANGSTROM
     26          9  H    CARTESIAN Y     1.602323      0.104106  KCAL/ANGSTROM
     27          9  H    CARTESIAN Z    -0.564566     -0.225830  KCAL/ANGSTROM
     28         10  H    CARTESIAN X    -1.498481     -0.192075  KCAL/ANGSTROM
     29         10  H    CARTESIAN Y     1.992334      0.090666  KCAL/ANGSTROM
     30         10  H    CARTESIAN Z    -0.863401     -0.101776  KCAL/ANGSTROM
     31         11  H    CARTESIAN X    -2.360816      0.086914  KCAL/ANGSTROM
     32         11  H    CARTESIAN Y     0.787893      0.071192  KCAL/ANGSTROM
     33         11  H    CARTESIAN Z    -1.845624      0.128754  KCAL/ANGSTROM
     34         12  H    CARTESIAN X    -3.666015     -0.293818  KCAL/ANGSTROM
     35         12  H    CARTESIAN Y    -0.810788      0.063877  KCAL/ANGSTROM
     36         12  H    CARTESIAN Z     0.809559     -0.102729  KCAL/ANGSTROM
     37         13  H    CARTESIAN X    -3.062064      0.149191  KCAL/ANGSTROM
     38         13  H    CARTESIAN Y    -1.517686     -0.011117  KCAL/ANGSTROM
     39         13  H    CARTESIAN Z    -0.662313     -0.133278  KCAL/ANGSTROM
     40         14  H    CARTESIAN X    -2.277219     -0.118526  KCAL/ANGSTROM
     41         14  H    CARTESIAN Y    -1.902468      0.127661  KCAL/ANGSTROM
     42         14  H    CARTESIAN Z     0.890490      0.152567  KCAL/ANGSTROM
     43         15  H    CARTESIAN X    -0.213383      0.138357  KCAL/ANGSTROM
     44         15  H    CARTESIAN Y     1.209692     -0.143236  KCAL/ANGSTROM
     45         15  H    CARTESIAN Z     1.052640      0.070123  KCAL/ANGSTROM
     46         16  H    CARTESIAN X    -0.624273      0.098552  KCAL/ANGSTROM
     47         16  H    CARTESIAN Y    -0.283141      0.040533  KCAL/ANGSTROM
     48         16  H    CARTESIAN Z     1.896101      0.020087  KCAL/ANGSTROM
     49         17  H    CARTESIAN X     0.572139      0.260981  KCAL/ANGSTROM
     50         17  H    CARTESIAN Y    -1.644686      0.163120  KCAL/ANGSTROM
     51         17  H    CARTESIAN Z     0.244223      0.086784  KCAL/ANGSTROM
     52         18  H    CARTESIAN X     1.043793     -0.055250  KCAL/ANGSTROM
     53         18  H    CARTESIAN Y    -0.297252      0.041633  KCAL/ANGSTROM
     54         18  H    CARTESIAN Z    -1.983336     -0.004046  KCAL/ANGSTROM
     55         19  H    CARTESIAN X     1.096141      0.028993  KCAL/ANGSTROM
     56         19  H    CARTESIAN Y     1.188358     -0.212384  KCAL/ANGSTROM
     57         19  H    CARTESIAN Z    -1.008284      0.097124  KCAL/ANGSTROM




   ATOM   CHEMICAL          X               Y               Z
  NUMBER   SYMBOL      (ANGSTROMS)     (ANGSTROMS)     (ANGSTROMS)

     1       C         -2.20714768  *   1.14191300  *  -0.79614505  *
     2       C         -1.83832626  *   0.08249964  *   0.12283228  *
     3       C         -2.70348845  *  -1.06770751  *   0.29402168  *
     4       C         -0.56643852  *   0.16190306  *   0.86413918  *
     5       C          0.41923584  *  -0.59327441  *   0.04323209  *
     6       C          1.27550174  *   0.08493216  *  -0.94548993  *
     7       C          2.67164137  *  -0.16436533  *  -0.64833685  *
     8       N          3.78510877  *  -0.35729984  *  -0.41150738  *
     9       H         -3.20094645  *   1.60232348  *  -0.56456577  *
    10       H         -1.49848118  *   1.99233402  *  -0.86340147  *
    11       H         -2.36081603  *   0.78789329  *  -1.84562397  *
    12       H         -3.66601461  *  -0.81078813  *   0.80955857  *
    13       H         -3.06206362  *  -1.51768566  *  -0.66231317  *
    14       H         -2.27721919  *  -1.90246787  *   0.89048971  *
    15       H         -0.21338304  *   1.20969195  *   1.05263953  *
    16       H         -0.62427280  *  -0.28314055  *   1.89610085  *
    17       H          0.57213900  *  -1.64468585  *   0.24422328  *
    18       H          1.04379296  *  -0.29725249  *  -1.98333550  *
    19       H          1.09614132  *   1.18835842  *  -1.00828426  *

                             CARTESIAN COORDINATES

   1    C       -2.207147679     1.141912998    -0.796145055
   2    C       -1.838326264     0.082499641     0.122832278
   3    C       -2.703488447    -1.067707509     0.294021676
   4    C       -0.566438521     0.161903058     0.864139181
   5    C        0.419235839    -0.593274409     0.043232094
   6    C        1.275501742     0.084932162    -0.945489934
   7    C        2.671641371    -0.164365331    -0.648336855
   8    N        3.785108765    -0.357299840    -0.411507381
   9    H       -3.200946445     1.602323483    -0.564565771
  10    H       -1.498481176     1.992334017    -0.863401469
  11    H       -2.360816026     0.787893289    -1.845623966
  12    H       -3.666014610    -0.810788135     0.809558575
  13    H       -3.062063624    -1.517685656    -0.662313169
  14    H       -2.277219194    -1.902467872     0.890489715
  15    H       -0.213383040     1.209691955     1.052639530
  16    H       -0.624272803    -0.283140552     1.896100850
  17    H        0.572139003    -1.644685855     0.244223280
  18    H        1.043792957    -0.297252486    -1.983335502
  19    H        1.096141324     1.188358419    -1.008284262


           Empirical Formula: C7 H11 N  =    19 atoms



      MOLECULAR POINT GROUP   :   C1  


          ALPHA EIGENVALUES  
 -37.86757 -36.07457 -32.67469 -30.43308 -30.06326 -25.66355 -24.32270 -22.37350
 -21.66167 -21.17034 -20.96913 -20.03088 -19.47716 -18.90175 -18.79455 -18.66812
 -18.12450 -17.53429 -16.50206 -16.16037 -15.89360 -14.14688  -6.82132  -2.52291
  -2.20522  -2.06240  -1.94827  -1.81754  -1.29246  -0.61541  -0.45876  -0.37385
  -0.29457  -0.15366  -0.08555   0.05555   0.73205   0.80040   1.00585   1.10441
   1.31473   1.50765   2.72875


           BETA EIGENVALUES 
 -37.87181 -36.01960 -32.53184 -30.41679 -30.01360 -25.46189 -24.17110 -22.26347
 -21.54926 -21.12017 -20.89879 -19.86897 -19.37747 -18.89442 -18.72834 -18.64801
 -18.06882 -17.44575 -16.39722 -16.10620 -15.84231  -6.83027  -4.59604  -2.41874
  -2.13559  -2.03886  -1.85749  -1.80291  -1.05646  -0.45860  -0.43033  -0.36597
  -0.23753  -0.14842  -0.08014   0.18554   0.77183   0.83943   1.01624   1.10840
   1.43031   1.61295   2.72681


              NET ATOMIC CHARGES AND DIPOLE CONTRIBUTIONS

  ATOM NO.   TYPE          CHARGE      No. of ELECS.   s-Pop       p-Pop       
    1          C          -0.578127        4.5781     1.06196     3.51616
    2          C           0.577903        3.4221     1.16487     2.25723
    3          C          -0.578205        4.5782     1.06220     3.51601
    4          C          -0.410645        4.4106     1.06653     3.34412
    5          C          -0.119992        4.1200     1.11505     3.00494
    6          C          -0.272969        4.2730     1.03899     3.23397
    7          C           0.071882        3.9281     1.10033     2.82779
    8          N          -0.146600        5.1466     1.82829     3.31831
    9          H           0.248841        0.7512     0.75116
   10          H           0.219209        0.7808     0.78079
   11          H           0.245471        0.7545     0.75453
   12          H           0.253741        0.7463     0.74626
   13          H           0.239580        0.7604     0.76042
   14          H           0.225005        0.7750     0.77500
   15          H           0.220718        0.7793     0.77928
   16          H           0.227887        0.7721     0.77211
   17          H           0.182140        0.8179     0.81786
   18          H           0.207751        0.7922     0.79225
   19          H           0.186410        0.8136     0.81359
 DIPOLE           X         Y         Z       TOTAL
 POINT-CHG.   -11.176     0.975     0.169    11.220
 HYBRID        -0.747     0.239    -0.079     0.788
 SUM          -11.923     1.214     0.089    11.985


          ATOMIC ORBITAL ELECTRON POPULATIONS

     Atom    s        px        py        pz   
    1  C   1.06196   1.23599   1.13112   1.14906
    2  C   1.16487   0.79209   0.82233   0.64281
    3  C   1.06220   1.16278   1.10986   1.24336
    4  C   1.06653   1.00643   1.21528   1.12241
    5  C   1.11505   0.95322   1.06946   0.98227
    6  C   1.03899   0.97478   1.15387   1.10532
    7  C   1.10033   0.90732   0.96039   0.96008
    8  N   1.82829   1.19641   1.06047   1.06143
    9  H   0.75116
   10  H   0.78079
   11  H   0.75453
   12  H   0.74626
   13  H   0.76042
   14  H   0.77500
   15  H   0.77928
   16  H   0.77211
   17  H   0.81786
   18  H   0.79225
   19  H   0.81359


                    (SZ)    =    0.500000
                    (S**2)  =    0.754054


          ATOMIC ORBITAL SPIN POPULATIONS

    Atom   Total    s     px     py     pz   
         Atomic
    1  C -0.0001 -0.000 -0.000 -0.001  0.001
    2  C  0.0443  0.010 -0.003  0.005  0.032
    3  C -0.0002 -0.000 -0.001  0.001  0.000
    4  C -0.0423 -0.006 -0.024 -0.008 -0.005
    5  C  0.9849  0.026  0.429  0.066  0.463
    6  C -0.0403 -0.005 -0.014 -0.005 -0.016
    7  C  0.0257  0.009  0.012  0.001  0.004
    8  N -0.0022 -0.000  0.001  0.001 -0.004
    9  H -0.0006 -0.001
   10  H  0.0002  0.000
   11  H  0.0022  0.002
   12  H -0.0001 -0.000
   13  H  0.0022  0.002
   14  H -0.0001 -0.000
   15  H  0.0098  0.010
   16  H  0.0118  0.012
   17  H -0.0276 -0.028
   18  H  0.0300  0.030
   19  H  0.0023  0.002

 **********************
 *                    *
 * JOB ENDED NORMALLY *
 *                    *
 **********************



 TOTAL JOB TIME:             1.25 SECONDS

 == MOPAC DONE ==
