 *******************************************************************************
 **                                                                           **
 **                              MOPAC v23.2                                  **
 **                                                                           **
 *******************************************************************************
 **          Digital Object Identifier (DOI): 10.5281/zenodo.6511958          **
 **    Visit the DOI location for information on how to cite this program.    **
 *******************************************************************************

                              PM7 CALCULATION RESULTS

 *******************************************************************************
 *  CALCULATION DONE: (MAX THREADS = 40)             Fri Sep 19 21:28:39 2025  *
 *  PM7        - The PM7 Hamiltonian to be used
 *
 *
 *
 *                 CHARGE ON SYSTEM = +1
 *
 *
 *
 *  1SCF       - DO 1 SCF AND THEN STOP 
 *  T=         - A TIME OF 172800.0 SECONDS REQUESTED
 *  DUMP=N     - RESTART FILE WRITTEN EVERY 7200.0 SECONDS REQUESTED
 *  RELSCF     - DEFAULT SCF CRITERION MULTIPLIED BY 0.0001
 *              (DEFAULT SCF CRITERION = 0.00010)
 *  GRADIENTS  - ALL GRADIENTS TO BE PRINTED
 *  DISP       - PRINT DISPERSION AND HYDROGEN BOND ENERGIES
 *******************************************************************************
PM7 1SCF GRADIENTS DISP RELSCF=0.0001 CHARGE=1
 Title: ASE calculation

   ATOM   CHEMICAL          X               Y               Z
  NUMBER   SYMBOL      (ANGSTROMS)     (ANGSTROMS)     (ANGSTROMS)

     1       C         -0.80156970  *  -1.73066994  *  -0.12408421  *
     2       C         -0.60137201  *  -0.28571613  *   0.33794547  *
     3       C         -1.75608118  *   0.10355477  *   1.31489968  *
     4       O         -1.19084832  *   1.16942590  *   2.05553295  *
     5       C          0.62972661  *  -0.19095236  *   1.16440036  *
     6       C          1.59976448  *   0.79836427  *   0.92870774  *
     7       C          1.81190949  *   1.35108330  *  -0.39896157  *
     8       C          0.83564782  *   0.80745839  *  -1.44672598  *
     9       C         -0.56866310  *   0.69209467  *  -0.85124286  *
    10       H         -0.78765030  *  -2.45653031  *   0.70017784  *
    11       H         -1.77298477  *  -1.85087169  *  -0.63245531  *
    12       H         -0.03859323  *  -2.04342111  *  -0.85031230  *
    13       H         -2.65433494  *   0.44111712  *   0.76766553  *
    14       H         -2.01835404  *  -0.71933855  *   2.00574170  *
    15       H         -1.85156143  *   1.59504720  *   2.64638075  *
    16       H          0.75166486  *  -0.91042271  *   1.98754513  *
    17       H          2.20476678  *   1.18335371  *   1.76644671  *
    18       H          2.87784795  *   1.21442959  *  -0.73850831  *
    19       H          1.75015433  *   2.47976554  *  -0.35429674  *
    20       H          1.17771515  *  -0.17101869  *  -1.83939559  *
    21       H          0.81684435  *   1.47694150  *  -2.33539691  *
    22       H         -1.29259865  *   0.37413093  *  -1.63061746  *
    23       H         -0.92054373  *   1.69652033  *  -0.52782128  *



          CARTESIAN COORDINATES 

    NO.       ATOM           X           Y           Z

     1         C         -0.8016     -1.7307     -0.1241
     2         C         -0.6014     -0.2857      0.3379
     3         C         -1.7561      0.1036      1.3149
     4         O         -1.1908      1.1694      2.0555
     5         C          0.6297     -0.1910      1.1644
     6         C          1.5998      0.7984      0.9287
     7         C          1.8119      1.3511     -0.3990
     8         C          0.8356      0.8075     -1.4467
     9         C         -0.5687      0.6921     -0.8512
    10         H         -0.7877     -2.4565      0.7002
    11         H         -1.7730     -1.8509     -0.6325
    12         H         -0.0386     -2.0434     -0.8503
    13         H         -2.6543      0.4411      0.7677
    14         H         -2.0184     -0.7193      2.0057
    15         H         -1.8516      1.5950      2.6464
    16         H          0.7517     -0.9104      1.9875
    17         H          2.2048      1.1834      1.7664
    18         H          2.8778      1.2144     -0.7385
    19         H          1.7502      2.4798     -0.3543
    20         H          1.1777     -0.1710     -1.8394
    21         H          0.8168      1.4769     -2.3354
    22         H         -1.2926      0.3741     -1.6306
    23         H         -0.9205      1.6965     -0.5278

 General Reference for PM7:
 "Optimization of Parameters for Semiempirical Methods VI: More Modifications to the 
 NDDO Approximations and Re-optimization of Parameters", J. J. P. Stewart, J. Mol. Mod., 1:32, 19 (2013)
 https://link.springer.com/article/10.1007/s00894-012-1667-x

           Empirical Formula: C8 H14 O  =    23 atoms



      MOLECULAR POINT GROUP   :   C1  


          UHF CALCULATION, NO. OF ALPHA ELECTRONS =   26
                           NO. OF BETA  ELECTRONS =   25
  SCF CRITERION =    0.1000E-07

 -------------------------------------------------------------------------------
 PM7 1SCF GRADIENTS DISP RELSCF=0.0001 CHARGE=1
 Title: ASE calculation



     1SCF WAS SPECIFIED, SO BFGS WAS NOT USED                 
     SCF FIELD WAS ACHIEVED                                   


                              PM7 CALCULATION
                                                       MOPAC v23.2 Linux
                                                       Fri Sep 19 21:28:40 2025




          FINAL HEAT OF FORMATION =        143.87584 KCAL/MOL =     601.97653 KJ/MOL

          TOTAL ENERGY            =     -33635.79825 KCAL/MOL = ELECTRONIC ENERGY + CORE-CORE REPULSION
          ENERGY OF ATOMS         =      33782.22825 KCAL/MOL
                              SUM =        146.42999 KCAL/MOL
          DISPERSION ENERGY       =         -2.55415 KCAL/MOL
                              SUM =        143.87584 KCAL/MOL = FINAL HEAT OF FORMATION



          TOTAL ENERGY            =      -1458.58626 EV
          ELECTRONIC ENERGY       =      -7936.75558 EV 
          CORE-CORE REPULSION     =       6478.16932 EV
          COSMO AREA              =        168.52 SQUARE ANGSTROMS
          COSMO VOLUME            =        175.31 CUBIC ANGSTROMS

          GRADIENT NORM           =          1.26493          =       0.26376 PER ATOM
          IONIZATION POTENTIAL    =         14.827258 EV
          ALPHA SOMO LUMO (EV)    =        -14.827 -5.711
          BETA  SOMO LUMO (EV)    =        -14.886 -7.308
          NO. OF ALPHA ELECTRONS  =         26
          NO. OF BETA  ELECTRONS  =         25
          MOLECULAR WEIGHT        =        126.1980         POINT GROUP:  C1  

          MOLECULAR DIMENSIONS (Angstroms)

            Atom       Atom       Distance
            H    18    H    14     5.93660
            H    15    H    12     5.00410
            H    22    H    16     4.27427


          SCF CALCULATIONS        =          1

          WALL-CLOCK TIME         =      1.039 SECONDS
          COMPUTATION TIME        =      0.398 SECONDS

          LARGEST ATOMIC GRADIENTS

          Atom     Label                     Cartesian Gradients           Cartesian Coordinates       |Gradient|
                                           X          Y          Z        X          Y          Z

             4       O                  -0.360     -0.217      0.065   -1.19085    1.16943    2.05553      0.425
            17       H                  -0.402      0.123     -0.025    2.20477    1.18335    1.76645      0.421
             2       C                   0.329      0.004     -0.142   -0.60137   -0.28572    0.33795      0.358
            12       H                  -0.289     -0.171      0.091   -0.03859   -2.04342   -0.85031      0.348
            23       H                   0.324     -0.081      0.093   -0.92054    1.69652   -0.52782      0.347
            22       H                  -0.288      0.116     -0.023   -1.29260    0.37413   -1.63062      0.311
            19       H                   0.151     -0.166     -0.210    1.75015    2.47977   -0.35430      0.307
            18       H                   0.161     -0.117      0.225    2.87785    1.21443   -0.73851      0.300
             5       C                  -0.007      0.161      0.234    0.62973   -0.19095    1.16440      0.284
            21       H                  -0.035      0.278      0.032    0.81684    1.47694   -2.33540      0.282



       FINAL  POINT  AND  DERIVATIVES

   PARAMETER     ATOM    TYPE            VALUE        GRADIENT
      1          1  C    CARTESIAN X    -0.801570      0.006876  KCAL/ANGSTROM
      2          1  C    CARTESIAN Y    -1.730670      0.004388  KCAL/ANGSTROM
      3          1  C    CARTESIAN Z    -0.124084      0.058180  KCAL/ANGSTROM
      4          2  C    CARTESIAN X    -0.601372      0.328756  KCAL/ANGSTROM
      5          2  C    CARTESIAN Y    -0.285716      0.003762  KCAL/ANGSTROM
      6          2  C    CARTESIAN Z     0.337945     -0.141575  KCAL/ANGSTROM
      7          3  C    CARTESIAN X    -1.756081      0.267330  KCAL/ANGSTROM
      8          3  C    CARTESIAN Y     0.103555     -0.005770  KCAL/ANGSTROM
      9          3  C    CARTESIAN Z     1.314900     -0.032300  KCAL/ANGSTROM
     10          4  O    CARTESIAN X    -1.190848     -0.359691  KCAL/ANGSTROM
     11          4  O    CARTESIAN Y     1.169426     -0.216758  KCAL/ANGSTROM
     12          4  O    CARTESIAN Z     2.055533      0.065466  KCAL/ANGSTROM
     13          5  C    CARTESIAN X     0.629727     -0.007421  KCAL/ANGSTROM
     14          5  C    CARTESIAN Y    -0.190952      0.161098  KCAL/ANGSTROM
     15          5  C    CARTESIAN Z     1.164400      0.233551  KCAL/ANGSTROM
     16          6  C    CARTESIAN X     1.599764     -0.066090  KCAL/ANGSTROM
     17          6  C    CARTESIAN Y     0.798364      0.001072  KCAL/ANGSTROM
     18          6  C    CARTESIAN Z     0.928708      0.044501  KCAL/ANGSTROM
     19          7  C    CARTESIAN X     1.811909     -0.031315  KCAL/ANGSTROM
     20          7  C    CARTESIAN Y     1.351083     -0.229899  KCAL/ANGSTROM
     21          7  C    CARTESIAN Z    -0.398962     -0.043372  KCAL/ANGSTROM
     22          8  C    CARTESIAN X     0.835648     -0.095370  KCAL/ANGSTROM
     23          8  C    CARTESIAN Y     0.807458      0.074048  KCAL/ANGSTROM
     24          8  C    CARTESIAN Z    -1.446726     -0.170334  KCAL/ANGSTROM
     25          9  C    CARTESIAN X    -0.568663     -0.013469  KCAL/ANGSTROM
     26          9  C    CARTESIAN Y     0.692095     -0.045707  KCAL/ANGSTROM
     27          9  C    CARTESIAN Z    -0.851243     -0.237140  KCAL/ANGSTROM
     28         10  H    CARTESIAN X    -0.787650      0.094290  KCAL/ANGSTROM
     29         10  H    CARTESIAN Y    -2.456530     -0.017122  KCAL/ANGSTROM
     30         10  H    CARTESIAN Z     0.700178      0.000234  KCAL/ANGSTROM
     31         11  H    CARTESIAN X    -1.772985      0.095557  KCAL/ANGSTROM
     32         11  H    CARTESIAN Y    -1.850872      0.146904  KCAL/ANGSTROM
     33         11  H    CARTESIAN Z    -0.632455     -0.028243  KCAL/ANGSTROM
     34         12  H    CARTESIAN X    -0.038593     -0.289211  KCAL/ANGSTROM
     35         12  H    CARTESIAN Y    -2.043421     -0.170895  KCAL/ANGSTROM
     36         12  H    CARTESIAN Z    -0.850312      0.091233  KCAL/ANGSTROM
     37         13  H    CARTESIAN X    -2.654335      0.154804  KCAL/ANGSTROM
     38         13  H    CARTESIAN Y     0.441117     -0.128921  KCAL/ANGSTROM
     39         13  H    CARTESIAN Z     0.767666     -0.087890  KCAL/ANGSTROM
     40         14  H    CARTESIAN X    -2.018354     -0.016048  KCAL/ANGSTROM
     41         14  H    CARTESIAN Y    -0.719339     -0.071507  KCAL/ANGSTROM
     42         14  H    CARTESIAN Z     2.005742      0.153230  KCAL/ANGSTROM
     43         15  H    CARTESIAN X    -1.851561      0.101997  KCAL/ANGSTROM
     44         15  H    CARTESIAN Y     1.595047      0.076358  KCAL/ANGSTROM
     45         15  H    CARTESIAN Z     2.646381      0.019292  KCAL/ANGSTROM
     46         16  H    CARTESIAN X     0.751665      0.050094  KCAL/ANGSTROM
     47         16  H    CARTESIAN Y    -0.910423      0.117262  KCAL/ANGSTROM
     48         16  H    CARTESIAN Z     1.987545     -0.014125  KCAL/ANGSTROM
     49         17  H    CARTESIAN X     2.204767     -0.402132  KCAL/ANGSTROM
     50         17  H    CARTESIAN Y     1.183354      0.123011  KCAL/ANGSTROM
     51         17  H    CARTESIAN Z     1.766447     -0.024547  KCAL/ANGSTROM
     52         18  H    CARTESIAN X     2.877848      0.160861  KCAL/ANGSTROM
     53         18  H    CARTESIAN Y     1.214430     -0.116653  KCAL/ANGSTROM
     54         18  H    CARTESIAN Z    -0.738508      0.225069  KCAL/ANGSTROM
     55         19  H    CARTESIAN X     1.750154      0.151202  KCAL/ANGSTROM
     56         19  H    CARTESIAN Y     2.479766     -0.166429  KCAL/ANGSTROM
     57         19  H    CARTESIAN Z    -0.354297     -0.209533  KCAL/ANGSTROM
     58         20  H    CARTESIAN X     1.177715     -0.132881  KCAL/ANGSTROM
     59         20  H    CARTESIAN Y    -0.171019      0.149046  KCAL/ANGSTROM
     60         20  H    CARTESIAN Z    -1.839396     -0.003707  KCAL/ANGSTROM
     61         21  H    CARTESIAN X     0.816844     -0.034774  KCAL/ANGSTROM
     62         21  H    CARTESIAN Y     1.476942      0.277638  KCAL/ANGSTROM
     63         21  H    CARTESIAN Z    -2.335397      0.031993  KCAL/ANGSTROM
     64         22  H    CARTESIAN X    -1.292599     -0.287566  KCAL/ANGSTROM
     65         22  H    CARTESIAN Y     0.374131      0.116482  KCAL/ANGSTROM
     66         22  H    CARTESIAN Z    -1.630617     -0.023095  KCAL/ANGSTROM
     67         23  H    CARTESIAN X    -0.920544      0.324203  KCAL/ANGSTROM
     68         23  H    CARTESIAN Y     1.696520     -0.081410  KCAL/ANGSTROM
     69         23  H    CARTESIAN Z    -0.527821      0.093110  KCAL/ANGSTROM




   ATOM   CHEMICAL          X               Y               Z
  NUMBER   SYMBOL      (ANGSTROMS)     (ANGSTROMS)     (ANGSTROMS)

     1       C         -0.80156970  *  -1.73066994  *  -0.12408421  *
     2       C         -0.60137201  *  -0.28571613  *   0.33794547  *
     3       C         -1.75608118  *   0.10355477  *   1.31489968  *
     4       O         -1.19084832  *   1.16942590  *   2.05553295  *
     5       C          0.62972661  *  -0.19095236  *   1.16440036  *
     6       C          1.59976448  *   0.79836427  *   0.92870774  *
     7       C          1.81190949  *   1.35108330  *  -0.39896157  *
     8       C          0.83564782  *   0.80745839  *  -1.44672598  *
     9       C         -0.56866310  *   0.69209467  *  -0.85124286  *
    10       H         -0.78765030  *  -2.45653031  *   0.70017784  *
    11       H         -1.77298477  *  -1.85087169  *  -0.63245531  *
    12       H         -0.03859323  *  -2.04342111  *  -0.85031230  *
    13       H         -2.65433494  *   0.44111712  *   0.76766553  *
    14       H         -2.01835404  *  -0.71933855  *   2.00574170  *
    15       H         -1.85156143  *   1.59504720  *   2.64638075  *
    16       H          0.75166486  *  -0.91042271  *   1.98754513  *
    17       H          2.20476678  *   1.18335371  *   1.76644671  *
    18       H          2.87784795  *   1.21442959  *  -0.73850831  *
    19       H          1.75015433  *   2.47976554  *  -0.35429674  *
    20       H          1.17771515  *  -0.17101869  *  -1.83939559  *
    21       H          0.81684435  *   1.47694150  *  -2.33539691  *
    22       H         -1.29259865  *   0.37413093  *  -1.63061746  *
    23       H         -0.92054373  *   1.69652033  *  -0.52782128  *

                             CARTESIAN COORDINATES

   1    C       -0.801569700    -1.730669940    -0.124084211
   2    C       -0.601372013    -0.285716135     0.337945470
   3    C       -1.756081176     0.103554765     1.314899682
   4    O       -1.190848321     1.169425896     2.055532953
   5    C        0.629726605    -0.190952361     1.164400361
   6    C        1.599764484     0.798364271     0.928707742
   7    C        1.811909493     1.351083299    -0.398961567
   8    C        0.835647820     0.807458390    -1.446725982
   9    C       -0.568663099     0.692094668    -0.851242865
  10    H       -0.787650302    -2.456530314     0.700177842
  11    H       -1.772984769    -1.850871695    -0.632455311
  12    H       -0.038593234    -2.043421114    -0.850312304
  13    H       -2.654334939     0.441117121     0.767665530
  14    H       -2.018354039    -0.719338548     2.005741704
  15    H       -1.851561432     1.595047201     2.646380753
  16    H        0.751664856    -0.910422715     1.987545125
  17    H        2.204766778     1.183353713     1.766446709
  18    H        2.877847953     1.214429585    -0.738508311
  19    H        1.750154330     2.479765539    -0.354296743
  20    H        1.177715148    -0.171018687    -1.839395587
  21    H        0.816844347     1.476941505    -2.335396915
  22    H       -1.292598652     0.374130930    -1.630617464
  23    H       -0.920543729     1.696520333    -0.527821279


           Empirical Formula: C8 H14 O  =    23 atoms



      MOLECULAR POINT GROUP   :   C1  


          ALPHA EIGENVALUES  
 -35.93492 -33.52238 -32.19866 -31.03530 -28.27578 -27.71597 -26.06850 -24.72117
 -22.31762 -21.74758 -21.49073 -20.56060 -20.24047 -19.30126 -18.91756 -18.55762
 -18.27596 -17.84885 -17.32203 -17.23882 -16.86502 -16.20300 -15.89380 -15.69960
 -15.06183 -14.82726  -5.71056  -1.60250  -1.38872  -1.32906  -1.13335  -0.84088
  -0.62127  -0.51482  -0.01880   0.06355   0.13401   0.37089   0.53772   1.32098
   1.40493   1.47246   1.59402   1.63526   1.67699   1.75962   2.02688   2.32412
   2.51129   2.82341


           BETA EIGENVALUES 
 -35.81154 -33.47403 -32.14692 -30.86307 -28.20028 -27.66223 -25.98571 -24.61982
 -22.16816 -21.68651 -21.38571 -20.44985 -20.07820 -19.21455 -18.82293 -18.43244
 -18.20502 -17.54912 -17.30214 -17.19442 -16.69993 -16.12423 -15.81326 -15.65490
 -14.88580  -7.30768  -4.39279  -1.51547  -1.28969  -1.21033  -1.00518  -0.77077
  -0.55801  -0.47716   0.00858   0.12350   0.23298   0.46068   0.61728   1.37239
   1.41259   1.48075   1.60344   1.63936   1.67877   1.76300   2.03344   2.32615
   2.51139   2.82511


              NET ATOMIC CHARGES AND DIPOLE CONTRIBUTIONS

  ATOM NO.   TYPE          CHARGE      No. of ELECS.   s-Pop       p-Pop       
    1          C          -0.458185        4.4582     1.05851     3.39968
    2          C          -0.014069        4.0141     1.06820     2.94587
    3          C           0.012715        3.9873     1.09919     2.88810
    4          O          -0.602792        6.6028     1.84555     4.75725
    5          C           0.132288        3.8677     1.17215     2.69556
    6          C           0.098164        3.9018     1.15502     2.74681
    7          C          -0.332964        4.3330     1.06173     3.27123
    8          C          -0.266387        4.2664     1.05932     3.20707
    9          C          -0.293855        4.2939     1.06630     3.22755
   10          H           0.170178        0.8298     0.82982
   11          H           0.186748        0.8133     0.81325
   12          H           0.172075        0.8279     0.82792
   13          H           0.153027        0.8470     0.84697
   14          H           0.146057        0.8539     0.85394
   15          H           0.361913        0.6381     0.63809
   16          H           0.192705        0.8073     0.80729
   17          H           0.197996        0.8020     0.80200
   18          H           0.225905        0.7741     0.77410
   19          H           0.229106        0.7709     0.77089
   20          H           0.161649        0.8384     0.83835
   21          H           0.178335        0.8217     0.82167
   22          H           0.175919        0.8241     0.82408
   23          H           0.173472        0.8265     0.82653
 DIPOLE           X         Y         Z       TOTAL
 POINT-CHG.     2.147    -0.548     0.492     2.270
 HYBRID         0.192     0.392     0.554     0.705
 SUM            2.339    -0.156     1.046     2.567


          ATOMIC ORBITAL ELECTRON POPULATIONS

     Atom    s        px        py        pz   
    1  C   1.05851   1.21634   0.99834   1.18500
    2  C   1.06820   0.95244   1.01183   0.98160
    3  C   1.09919   0.99138   0.92537   0.97134
    4  O   1.84555   1.51163   1.57360   1.67201
    5  C   1.17215   0.92175   0.87961   0.89421
    6  C   1.15502   0.85737   0.82953   1.05992
    7  C   1.06173   1.13759   1.14153   0.99211
    8  C   1.05932   0.98082   1.17051   1.05574
    9  C   1.06630   1.05474   1.11543   1.05738
   10  H   0.82982
   11  H   0.81325
   12  H   0.82792
   13  H   0.84697
   14  H   0.85394
   15  H   0.63809
   16  H   0.80729
   17  H   0.80200
   18  H   0.77410
   19  H   0.77089
   20  H   0.83835
   21  H   0.82167
   22  H   0.82408
   23  H   0.82653


                    (SZ)    =    0.500000
                    (S**2)  =    0.753403


          ATOMIC ORBITAL SPIN POPULATIONS

    Atom   Total    s     px     py     pz   
         Atomic
    1  C  0.0276  0.004  0.003  0.017  0.004
    2  C -0.0113 -0.002 -0.017 -0.000  0.008
    3  C  0.0268  0.003  0.011  0.003  0.009
    4  O  0.0018  0.000 -0.000  0.000  0.001
    5  C  0.4515  0.008  0.069  0.145  0.229
    6  C  0.4328  0.007  0.217  0.202  0.006
    7  C  0.0173 -0.002  0.005  0.023 -0.009
    8  C -0.0000 -0.000  0.000 -0.000  0.000
    9  C  0.0021  0.000  0.001  0.000  0.001
   10  H -0.0007 -0.001
   11  H  0.0011  0.001
   12  H -0.0010 -0.001
   13  H -0.0006 -0.001
   14  H -0.0006 -0.001
   15  H  0.0001  0.000
   16  H -0.0051 -0.005
   17  H -0.0065 -0.007
   18  H  0.0276  0.028
   19  H  0.0355  0.036
   20  H  0.0008  0.001
   21  H  0.0008  0.001
   22  H  0.0003  0.000
   23  H -0.0002 -0.000

 **********************
 *                    *
 * JOB ENDED NORMALLY *
 *                    *
 **********************



 TOTAL JOB TIME:             1.56 SECONDS

 == MOPAC DONE ==
