 *******************************************************************************
 **                                                                           **
 **                              MOPAC v23.2                                  **
 **                                                                           **
 *******************************************************************************
 **          Digital Object Identifier (DOI): 10.5281/zenodo.6511958          **
 **    Visit the DOI location for information on how to cite this program.    **
 *******************************************************************************

                              PM7 CALCULATION RESULTS

 *******************************************************************************
 *  CALCULATION DONE: (MAX THREADS = 40)             Fri Sep 19 21:32:55 2025  *
 *  PM7        - The PM7 Hamiltonian to be used
 *  1SCF       - DO 1 SCF AND THEN STOP 
 *  T=         - A TIME OF 172800.0 SECONDS REQUESTED
 *  DUMP=N     - RESTART FILE WRITTEN EVERY 7200.0 SECONDS REQUESTED
 *  RELSCF     - DEFAULT SCF CRITERION MULTIPLIED BY 0.0001
 *              (DEFAULT SCF CRITERION = 0.00010)
 *  GRADIENTS  - ALL GRADIENTS TO BE PRINTED
 *  DISP       - PRINT DISPERSION AND HYDROGEN BOND ENERGIES
 *******************************************************************************
PM7 1SCF GRADIENTS DISP RELSCF=0.0001
 Title: ASE calculation

   ATOM   CHEMICAL          X               Y               Z
  NUMBER   SYMBOL      (ANGSTROMS)     (ANGSTROMS)     (ANGSTROMS)

     1       O          2.60387340  *  -1.69374086  *  -0.72315647  *
     2       C          1.40266564  *  -1.61195522  *  -0.67941535  *
     3       C          0.72269201  *  -0.51592547  *   0.11460313  *
     4       C          0.72456933  *   0.74627004  *  -0.72088590  *
     5       C         -0.43094958  *   1.37321721  *  -0.98993348  *
     6       C         -1.69337445  *   0.76929864  *  -0.44734464  *
     7       C         -1.41111464  *   0.39494374  *   1.05133283  *
     8       C         -0.72193557  *  -0.89526271  *   0.49339004  *
     9       C         -1.63099804  *  -0.76544525  *  -0.77312483  *
    10       H          0.76756845  *  -2.32299966  *  -1.21926738  *
    11       H          1.31204176  *  -0.32822018  *   1.05032846  *
    12       H          1.69584366  *   1.08923258  *  -1.05957958  *
    13       H         -0.51016359  *   2.28141771  *  -1.57045961  *
    14       H         -2.61535088  *   1.29845638  *  -0.67162369  *
    15       H         -0.77527439  *   1.08448948  *   1.60464898  *
    16       H         -2.30981364  *   0.20309078  *   1.63876710  *
    17       H         -0.80847113  *  -1.80506540  *   1.08362041  *
    18       H         -2.59150738  *  -1.27477859  *  -0.68522184  *
    19       H         -1.18590943  *  -1.03058258  *  -1.72971576  *



          CARTESIAN COORDINATES 

    NO.       ATOM           X           Y           Z

     1         O          2.6039     -1.6937     -0.7232
     2         C          1.4027     -1.6120     -0.6794
     3         C          0.7227     -0.5159      0.1146
     4         C          0.7246      0.7463     -0.7209
     5         C         -0.4309      1.3732     -0.9899
     6         C         -1.6934      0.7693     -0.4473
     7         C         -1.4111      0.3949      1.0513
     8         C         -0.7219     -0.8953      0.4934
     9         C         -1.6310     -0.7654     -0.7731
    10         H          0.7676     -2.3230     -1.2193
    11         H          1.3120     -0.3282      1.0503
    12         H          1.6958      1.0892     -1.0596
    13         H         -0.5102      2.2814     -1.5705
    14         H         -2.6154      1.2985     -0.6716
    15         H         -0.7753      1.0845      1.6046
    16         H         -2.3098      0.2031      1.6388
    17         H         -0.8085     -1.8051      1.0836
    18         H         -2.5915     -1.2748     -0.6852
    19         H         -1.1859     -1.0306     -1.7297

 General Reference for PM7:
 "Optimization of Parameters for Semiempirical Methods VI: More Modifications to the 
 NDDO Approximations and Re-optimization of Parameters", J. J. P. Stewart, J. Mol. Mod., 1:32, 19 (2013)
 https://link.springer.com/article/10.1007/s00894-012-1667-x

           Empirical Formula: C8 H10 O  =    19 atoms



      MOLECULAR POINT GROUP   :   C1  


      RHF CALCULATION, NO. OF DOUBLY OCCUPIED LEVELS = 24

  SCF CRITERION =    0.1000E-07

 -------------------------------------------------------------------------------
 PM7 1SCF GRADIENTS DISP RELSCF=0.0001
 Title: ASE calculation



     1SCF WAS SPECIFIED, SO BFGS WAS NOT USED                 
     SCF FIELD WAS ACHIEVED                                   


                              PM7 CALCULATION
                                                       MOPAC v23.2 Linux
                                                       Fri Sep 19 21:32:56 2025




          FINAL HEAT OF FORMATION =          0.30341 KCAL/MOL =       1.26947 KJ/MOL

          TOTAL ENERGY            =     -32550.66981 KCAL/MOL = ELECTRONIC ENERGY + CORE-CORE REPULSION
          ENERGY OF ATOMS         =      32552.68886 KCAL/MOL
                              SUM =          2.01905 KCAL/MOL
          DISPERSION ENERGY       =         -1.71564 KCAL/MOL
                              SUM =          0.30341 KCAL/MOL = FINAL HEAT OF FORMATION



          TOTAL ENERGY            =      -1411.53064 EV
          ELECTRONIC ENERGY       =      -7031.06911 EV 
          CORE-CORE REPULSION     =       5619.53847 EV
          COSMO AREA              =        156.10 SQUARE ANGSTROMS
          COSMO VOLUME            =        158.09 CUBIC ANGSTROMS

          GRADIENT NORM           =          1.12132          =       0.25725 PER ATOM
          IONIZATION POTENTIAL    =          9.770492 EV
          HOMO LUMO ENERGIES (EV) =         -9.770  0.485
          NO. OF FILLED LEVELS    =         24
          MOLECULAR WEIGHT        =        122.1664         POINT GROUP:  C1  

          MOLECULAR DIMENSIONS (Angstroms)

            Atom       Atom       Distance
            H    14    O     1     6.01633
            H    17    H    13     4.55707
            H    19    H    15     3.89199


          SCF CALCULATIONS        =          1

          WALL-CLOCK TIME         =      0.672 SECONDS
          COMPUTATION TIME        =      0.719 SECONDS

          LARGEST ATOMIC GRADIENTS

          Atom     Label                     Cartesian Gradients           Cartesian Coordinates       |Gradient|
                                           X          Y          Z        X          Y          Z

             4       C                   0.018      0.366      0.272    0.72457    0.74627   -0.72089      0.456
            10       H                   0.389     -0.031     -0.193    0.76757   -2.32300   -1.21927      0.435
             5       C                  -0.161     -0.133     -0.305   -0.43095    1.37322   -0.98993      0.370
            11       H                   0.099     -0.326      0.140    1.31204   -0.32822    1.05033      0.368
             1       O                  -0.340      0.091      0.019    2.60387   -1.69374   -0.72316      0.353
            18       H                   0.149      0.240     -0.074   -2.59151   -1.27478   -0.68522      0.292
             9       C                   0.198     -0.079      0.094   -1.63100   -0.76545   -0.77312      0.234
            19       H                  -0.203     -0.064      0.043   -1.18591   -1.03058   -1.72972      0.217
             8       C                  -0.168      0.006      0.133   -0.72194   -0.89526    0.49339      0.214
            12       H                   0.089      0.058     -0.162    1.69584    1.08923   -1.05958      0.194



       FINAL  POINT  AND  DERIVATIVES

   PARAMETER     ATOM    TYPE            VALUE        GRADIENT
      1          1  O    CARTESIAN X     2.603873     -0.340379  KCAL/ANGSTROM
      2          1  O    CARTESIAN Y    -1.693741      0.090718  KCAL/ANGSTROM
      3          1  O    CARTESIAN Z    -0.723156      0.018778  KCAL/ANGSTROM
      4          2  C    CARTESIAN X     1.402666      0.096795  KCAL/ANGSTROM
      5          2  C    CARTESIAN Y    -1.611955     -0.133324  KCAL/ANGSTROM
      6          2  C    CARTESIAN Z    -0.679415      0.056610  KCAL/ANGSTROM
      7          3  C    CARTESIAN X     0.722692     -0.116393  KCAL/ANGSTROM
      8          3  C    CARTESIAN Y    -0.515925      0.044098  KCAL/ANGSTROM
      9          3  C    CARTESIAN Z     0.114603     -0.057792  KCAL/ANGSTROM
     10          4  C    CARTESIAN X     0.724569      0.018438  KCAL/ANGSTROM
     11          4  C    CARTESIAN Y     0.746270      0.365664  KCAL/ANGSTROM
     12          4  C    CARTESIAN Z    -0.720886      0.272008  KCAL/ANGSTROM
     13          5  C    CARTESIAN X    -0.430950     -0.161036  KCAL/ANGSTROM
     14          5  C    CARTESIAN Y     1.373217     -0.133047  KCAL/ANGSTROM
     15          5  C    CARTESIAN Z    -0.989933     -0.304791  KCAL/ANGSTROM
     16          6  C    CARTESIAN X    -1.693374     -0.044807  KCAL/ANGSTROM
     17          6  C    CARTESIAN Y     0.769299     -0.149296  KCAL/ANGSTROM
     18          6  C    CARTESIAN Z    -0.447345     -0.067240  KCAL/ANGSTROM
     19          7  C    CARTESIAN X    -1.411115      0.062340  KCAL/ANGSTROM
     20          7  C    CARTESIAN Y     0.394944      0.063224  KCAL/ANGSTROM
     21          7  C    CARTESIAN Z     1.051333      0.077630  KCAL/ANGSTROM
     22          8  C    CARTESIAN X    -0.721936     -0.168322  KCAL/ANGSTROM
     23          8  C    CARTESIAN Y    -0.895263      0.006484  KCAL/ANGSTROM
     24          8  C    CARTESIAN Z     0.493390      0.132687  KCAL/ANGSTROM
     25          9  C    CARTESIAN X    -1.630998      0.198399  KCAL/ANGSTROM
     26          9  C    CARTESIAN Y    -0.765445     -0.079344  KCAL/ANGSTROM
     27          9  C    CARTESIAN Z    -0.773125      0.094192  KCAL/ANGSTROM
     28         10  H    CARTESIAN X     0.767568      0.388807  KCAL/ANGSTROM
     29         10  H    CARTESIAN Y    -2.323000     -0.030610  KCAL/ANGSTROM
     30         10  H    CARTESIAN Z    -1.219267     -0.192680  KCAL/ANGSTROM
     31         11  H    CARTESIAN X     1.312042      0.099372  KCAL/ANGSTROM
     32         11  H    CARTESIAN Y    -0.328220     -0.325835  KCAL/ANGSTROM
     33         11  H    CARTESIAN Z     1.050328      0.140075  KCAL/ANGSTROM
     34         12  H    CARTESIAN X     1.695844      0.088796  KCAL/ANGSTROM
     35         12  H    CARTESIAN Y     1.089233      0.058070  KCAL/ANGSTROM
     36         12  H    CARTESIAN Z    -1.059580     -0.162500  KCAL/ANGSTROM
     37         13  H    CARTESIAN X    -0.510164     -0.026375  KCAL/ANGSTROM
     38         13  H    CARTESIAN Y     2.281418      0.113934  KCAL/ANGSTROM
     39         13  H    CARTESIAN Z    -1.570460     -0.136265  KCAL/ANGSTROM
     40         14  H    CARTESIAN X    -2.615351      0.068710  KCAL/ANGSTROM
     41         14  H    CARTESIAN Y     1.298456     -0.053062  KCAL/ANGSTROM
     42         14  H    CARTESIAN Z    -0.671624      0.091240  KCAL/ANGSTROM
     43         15  H    CARTESIAN X    -0.775274      0.120526  KCAL/ANGSTROM
     44         15  H    CARTESIAN Y     1.084489     -0.040727  KCAL/ANGSTROM
     45         15  H    CARTESIAN Z     1.604649      0.015665  KCAL/ANGSTROM
     46         16  H    CARTESIAN X    -2.309814     -0.055189  KCAL/ANGSTROM
     47         16  H    CARTESIAN Y     0.203091      0.035938  KCAL/ANGSTROM
     48         16  H    CARTESIAN Z     1.638767      0.019854  KCAL/ANGSTROM
     49         17  H    CARTESIAN X    -0.808471     -0.175657  KCAL/ANGSTROM
     50         17  H    CARTESIAN Y    -1.805065     -0.009163  KCAL/ANGSTROM
     51         17  H    CARTESIAN Z     1.083620      0.033603  KCAL/ANGSTROM
     52         18  H    CARTESIAN X    -2.591507      0.148661  KCAL/ANGSTROM
     53         18  H    CARTESIAN Y    -1.274779      0.239789  KCAL/ANGSTROM
     54         18  H    CARTESIAN Z    -0.685222     -0.074024  KCAL/ANGSTROM
     55         19  H    CARTESIAN X    -1.185909     -0.202689  KCAL/ANGSTROM
     56         19  H    CARTESIAN Y    -1.030583     -0.063513  KCAL/ANGSTROM
     57         19  H    CARTESIAN Z    -1.729716      0.042946  KCAL/ANGSTROM




   ATOM   CHEMICAL          X               Y               Z
  NUMBER   SYMBOL      (ANGSTROMS)     (ANGSTROMS)     (ANGSTROMS)

     1       O          2.60387340  *  -1.69374086  *  -0.72315647  *
     2       C          1.40266564  *  -1.61195522  *  -0.67941535  *
     3       C          0.72269201  *  -0.51592547  *   0.11460313  *
     4       C          0.72456933  *   0.74627004  *  -0.72088590  *
     5       C         -0.43094958  *   1.37321721  *  -0.98993348  *
     6       C         -1.69337445  *   0.76929864  *  -0.44734464  *
     7       C         -1.41111464  *   0.39494374  *   1.05133283  *
     8       C         -0.72193557  *  -0.89526271  *   0.49339004  *
     9       C         -1.63099804  *  -0.76544525  *  -0.77312483  *
    10       H          0.76756845  *  -2.32299966  *  -1.21926738  *
    11       H          1.31204176  *  -0.32822018  *   1.05032846  *
    12       H          1.69584366  *   1.08923258  *  -1.05957958  *
    13       H         -0.51016359  *   2.28141771  *  -1.57045961  *
    14       H         -2.61535088  *   1.29845638  *  -0.67162369  *
    15       H         -0.77527439  *   1.08448948  *   1.60464898  *
    16       H         -2.30981364  *   0.20309078  *   1.63876710  *
    17       H         -0.80847113  *  -1.80506540  *   1.08362041  *
    18       H         -2.59150738  *  -1.27477859  *  -0.68522184  *
    19       H         -1.18590943  *  -1.03058258  *  -1.72971576  *

                             CARTESIAN COORDINATES

   1    O        2.603873402    -1.693740856    -0.723156475
   2    C        1.402665643    -1.611955220    -0.679415348
   3    C        0.722692014    -0.515925470     0.114603130
   4    C        0.724569328     0.746270041    -0.720885904
   5    C       -0.430949584     1.373217206    -0.989933483
   6    C       -1.693374454     0.769298635    -0.447344635
   7    C       -1.411114643     0.394943736     1.051332825
   8    C       -0.721935571    -0.895262709     0.493390043
   9    C       -1.630998037    -0.765445247    -0.773124829
  10    H        0.767568452    -2.322999663    -1.219267383
  11    H        1.312041759    -0.328220184     1.050328460
  12    H        1.695843656     1.089232585    -1.059579580
  13    H       -0.510163591     2.281417713    -1.570459607
  14    H       -2.615350884     1.298456375    -0.671623692
  15    H       -0.775274393     1.084489484     1.604648982
  16    H       -2.309813642     0.203090785     1.638767099
  17    H       -0.808471133    -1.805065402     1.083620410
  18    H       -2.591507385    -1.274778594    -0.685221844
  19    H       -1.185909426    -1.030582580    -1.729715757


           Empirical Formula: C8 H10 O  =    19 atoms



      MOLECULAR POINT GROUP   :   C1  


                  EIGENVALUES  
 -32.28614 -31.04015 -26.84791 -25.97986 -23.33686 -21.94547 -20.41449 -20.14305
 -18.10602 -17.32789 -15.98903 -15.49419 -14.73165 -14.58007 -14.17455 -13.87421
 -13.48981 -13.22993 -12.86160 -11.78284 -11.48709 -11.11893 -10.44940  -9.77049
   0.48506   0.81992   2.92160   3.03842   3.34154   3.37039   3.60554   4.13091
   4.25097   4.82525   4.96845   5.18211   5.42013   5.63804   5.68062   5.70852
   5.85280   5.95200   6.08270   6.13152   6.25794   6.32424


              NET ATOMIC CHARGES AND DIPOLE CONTRIBUTIONS

  ATOM NO.   TYPE          CHARGE      No. of ELECS.   s-Pop       p-Pop       
    1          O          -0.433871        6.4339     1.87728     4.55659
    2          C           0.344172        3.6558     1.14888     2.50695
    3          C          -0.244377        4.2444     1.07583     3.16854
    4          C          -0.159422        4.1594     1.09258     3.06684
    5          C          -0.156720        4.1567     1.09546     3.06126
    6          C          -0.108078        4.1081     1.07058     3.03750
    7          C          -0.290026        4.2900     1.07619     3.21384
    8          C          -0.106400        4.1064     1.07588     3.03052
    9          C          -0.296835        4.2968     1.07562     3.22121
   10          H           0.113524        0.8865     0.88648
   11          H           0.179699        0.8203     0.82030
   12          H           0.157536        0.8425     0.84246
   13          H           0.149058        0.8509     0.85094
   14          H           0.139307        0.8607     0.86069
   15          H           0.147788        0.8522     0.85221
   16          H           0.140723        0.8593     0.85928
   17          H           0.138020        0.8620     0.86198
   18          H           0.141813        0.8582     0.85819
   19          H           0.144090        0.8559     0.85591
 DIPOLE           X         Y         Z       TOTAL
 POINT-CHG.    -3.162     0.370     0.332     3.201
 HYBRID         0.225     0.041     0.067     0.239
 SUM           -2.936     0.411     0.399     2.992


          ATOMIC ORBITAL ELECTRON POPULATIONS

     Atom    s        px        py        pz   
    1  O   1.87728   1.27492   1.71765   1.56402
    2  C   1.14888   0.87043   0.86046   0.77607
    3  C   1.07583   1.04020   1.02994   1.09841
    4  C   1.09258   1.06292   0.98859   1.01534
    5  C   1.09546   0.98991   1.05131   1.02004
    6  C   1.07058   1.04575   0.99522   0.99653
    7  C   1.07619   1.12970   1.05985   1.02428
    8  C   1.07588   0.95743   1.04754   1.02554
    9  C   1.07562   1.11487   1.03283   1.07351
   10  H   0.88648
   11  H   0.82030
   12  H   0.84246
   13  H   0.85094
   14  H   0.86069
   15  H   0.85221
   16  H   0.85928
   17  H   0.86198
   18  H   0.85819
   19  H   0.85591

 **********************
 *                    *
 * JOB ENDED NORMALLY *
 *                    *
 **********************



 TOTAL JOB TIME:             1.16 SECONDS

 == MOPAC DONE ==
