 *******************************************************************************
 **                                                                           **
 **                              MOPAC v23.2                                  **
 **                                                                           **
 *******************************************************************************
 **          Digital Object Identifier (DOI): 10.5281/zenodo.6511958          **
 **    Visit the DOI location for information on how to cite this program.    **
 *******************************************************************************

                              PM7 CALCULATION RESULTS

 *******************************************************************************
 *  CALCULATION DONE: (MAX THREADS = 40)             Fri Sep 19 21:33:19 2025  *
 *  PM7        - The PM7 Hamiltonian to be used
 *
 *
 *
 *                 CHARGE ON SYSTEM = +1
 *
 *
 *
 *  1SCF       - DO 1 SCF AND THEN STOP 
 *  T=         - A TIME OF 172800.0 SECONDS REQUESTED
 *  DUMP=N     - RESTART FILE WRITTEN EVERY 7200.0 SECONDS REQUESTED
 *  RELSCF     - DEFAULT SCF CRITERION MULTIPLIED BY 0.0001
 *              (DEFAULT SCF CRITERION = 0.00010)
 *  GRADIENTS  - ALL GRADIENTS TO BE PRINTED
 *  DISP       - PRINT DISPERSION AND HYDROGEN BOND ENERGIES
 *******************************************************************************
PM7 1SCF GRADIENTS DISP RELSCF=0.0001 CHARGE=1
 Title: ASE calculation

   ATOM   CHEMICAL          X               Y               Z
  NUMBER   SYMBOL      (ANGSTROMS)     (ANGSTROMS)     (ANGSTROMS)

     1       O         -1.73481716  *   2.07610644  *  -1.18634857  *
     2       C         -1.08105354  *   1.07205885  *  -1.13512628  *
     3       C         -0.07822578  *   0.93889583  *   0.01520953  *
     4       O         -0.27777305  *   1.84819107  *   1.01830289  *
     5       C          1.48105678  *   1.08665330  *  -0.49521445  *
     6       N          1.92085834  *  -0.17333240  *   0.09993325  *
     7       C          1.43137975  *  -0.22755597  *   1.51899282  *
     8       C          0.07157055  *  -0.47201020  *   0.69955620  *
     9       C          0.98402131  *  -1.25081438  *  -0.35441000  *
    10       H         -1.15751883  *   0.25201414  *  -1.85366501  *
    11       H         -0.87872106  *   2.60645308  *   0.73769438  *
    12       H          1.95637559  *   1.98892841  *  -0.05397488  *
    13       H          1.59525637  *   1.14010295  *  -1.59141398  *
    14       H          1.79713058  *  -1.08134836  *   2.11494256  *
    15       H          1.52797931  *   0.70103377  *   2.11139308  *
    16       H         -0.77412273  *  -0.94894930  *   1.18069003  *
    17       H          1.27110819  *  -2.27848907  *  -0.05900810  *
    18       H          0.71177163  *  -1.26225463  *  -1.41838058  *



          CARTESIAN COORDINATES 

    NO.       ATOM           X           Y           Z

     1         O         -1.7348      2.0761     -1.1863
     2         C         -1.0811      1.0721     -1.1351
     3         C         -0.0782      0.9389      0.0152
     4         O         -0.2778      1.8482      1.0183
     5         C          1.4811      1.0867     -0.4952
     6         N          1.9209     -0.1733      0.0999
     7         C          1.4314     -0.2276      1.5190
     8         C          0.0716     -0.4720      0.6996
     9         C          0.9840     -1.2508     -0.3544
    10         H         -1.1575      0.2520     -1.8537
    11         H         -0.8787      2.6065      0.7377
    12         H          1.9564      1.9889     -0.0540
    13         H          1.5953      1.1401     -1.5914
    14         H          1.7971     -1.0813      2.1149
    15         H          1.5280      0.7010      2.1114
    16         H         -0.7741     -0.9489      1.1807
    17         H          1.2711     -2.2785     -0.0590
    18         H          0.7118     -1.2623     -1.4184

 General Reference for PM7:
 "Optimization of Parameters for Semiempirical Methods VI: More Modifications to the 
 NDDO Approximations and Re-optimization of Parameters", J. J. P. Stewart, J. Mol. Mod., 1:32, 19 (2013)
 https://link.springer.com/article/10.1007/s00894-012-1667-x

           Empirical Formula: C6 H9 N O2  =    18 atoms



      MOLECULAR POINT GROUP   :   C1  


          UHF CALCULATION, NO. OF ALPHA ELECTRONS =   25
                           NO. OF BETA  ELECTRONS =   24
  SCF CRITERION =    0.1000E-07

 -------------------------------------------------------------------------------
 PM7 1SCF GRADIENTS DISP RELSCF=0.0001 CHARGE=1
 Title: ASE calculation



     1SCF WAS SPECIFIED, SO BFGS WAS NOT USED                 
     SCF FIELD WAS ACHIEVED                                   


                              PM7 CALCULATION
                                                       MOPAC v23.2 Linux
                                                       Fri Sep 19 21:33:19 2025




          FINAL HEAT OF FORMATION =        183.68708 KCAL/MOL =     768.54676 KJ/MOL

          TOTAL ENERGY            =     -37453.46609 KCAL/MOL = ELECTRONIC ENERGY + CORE-CORE REPULSION
          ENERGY OF ATOMS         =      37638.97832 KCAL/MOL
                              SUM =        185.51222 KCAL/MOL
          DISPERSION ENERGY       =         -1.59251 KCAL/MOL
          H-BOND ENERGY           =         -0.23263 KCAL/MOL
                              SUM =        183.68708 KCAL/MOL = FINAL HEAT OF FORMATION



          TOTAL ENERGY            =      -1624.13601 EV
          ELECTRONIC ENERGY       =      -7803.58349 EV 
          CORE-CORE REPULSION     =       6179.44748 EV
          COSMO AREA              =        151.49 SQUARE ANGSTROMS
          COSMO VOLUME            =        152.74 CUBIC ANGSTROMS

          GRADIENT NORM           =          1.08818          =       0.25649 PER ATOM
          IONIZATION POTENTIAL    =         14.814645 EV
          ALPHA SOMO LUMO (EV)    =        -14.827 -4.584
          BETA  SOMO LUMO (EV)    =        -14.815 -7.649
          NO. OF ALPHA ELECTRONS  =         25
          NO. OF BETA  ELECTRONS  =         24
          MOLECULAR WEIGHT        =        127.1426         POINT GROUP:  C1  

          MOLECULAR DIMENSIONS (Angstroms)

            Atom       Atom       Distance
            H    14    O     1     5.77431
            H    11    H    18     4.32457
            H    12    H    16     4.08187


          SCF CALCULATIONS        =          1

          WALL-CLOCK TIME         =      0.375 SECONDS
          COMPUTATION TIME        =      0.651 SECONDS

          LARGEST ATOMIC GRADIENTS

          Atom     Label                     Cartesian Gradients           Cartesian Coordinates       |Gradient|
                                           X          Y          Z        X          Y          Z

             4       O                  -0.352      0.120     -0.070   -0.27777    1.84819    1.01830      0.378
            18       H                   0.071     -0.331      0.121    0.71177   -1.26225   -1.41838      0.360
             2       C                  -0.169      0.224     -0.207   -1.08105    1.07206   -1.13513      0.349
            14       H                   0.245     -0.154      0.194    1.79713   -1.08135    2.11494      0.348
            15       H                   0.106      0.078     -0.320    1.52798    0.70103    2.11139      0.346
             5       C                   0.273      0.033      0.045    1.48106    1.08665   -0.49521      0.279
            12       H                  -0.176      0.068      0.172    1.95638    1.98893   -0.05397      0.255
             9       C                  -0.184      0.065      0.126    0.98402   -1.25081   -0.35441      0.232
             7       C                   0.213     -0.080      0.024    1.43138   -0.22756    1.51899      0.229
            13       H                  -0.076     -0.198      0.044    1.59526    1.14010   -1.59141      0.216



       FINAL  POINT  AND  DERIVATIVES

   PARAMETER     ATOM    TYPE            VALUE        GRADIENT
      1          1  O    CARTESIAN X    -1.734817      0.080941  KCAL/ANGSTROM
      2          1  O    CARTESIAN Y     2.076106      0.120462  KCAL/ANGSTROM
      3          1  O    CARTESIAN Z    -1.186349      0.150184  KCAL/ANGSTROM
      4          2  C    CARTESIAN X    -1.081054     -0.168775  KCAL/ANGSTROM
      5          2  C    CARTESIAN Y     1.072059      0.224266  KCAL/ANGSTROM
      6          2  C    CARTESIAN Z    -1.135126     -0.207149  KCAL/ANGSTROM
      7          3  C    CARTESIAN X    -0.078226     -0.130112  KCAL/ANGSTROM
      8          3  C    CARTESIAN Y     0.938896      0.114711  KCAL/ANGSTROM
      9          3  C    CARTESIAN Z     0.015210     -0.073812  KCAL/ANGSTROM
     10          4  O    CARTESIAN X    -0.277773     -0.351941  KCAL/ANGSTROM
     11          4  O    CARTESIAN Y     1.848191      0.119657  KCAL/ANGSTROM
     12          4  O    CARTESIAN Z     1.018303     -0.070413  KCAL/ANGSTROM
     13          5  C    CARTESIAN X     1.481057      0.273014  KCAL/ANGSTROM
     14          5  C    CARTESIAN Y     1.086653      0.032968  KCAL/ANGSTROM
     15          5  C    CARTESIAN Z    -0.495214      0.045363  KCAL/ANGSTROM
     16          6  N    CARTESIAN X     1.920858     -0.119752  KCAL/ANGSTROM
     17          6  N    CARTESIAN Y    -0.173332      0.113297  KCAL/ANGSTROM
     18          6  N    CARTESIAN Z     0.099933      0.104895  KCAL/ANGSTROM
     19          7  C    CARTESIAN X     1.431380      0.213447  KCAL/ANGSTROM
     20          7  C    CARTESIAN Y    -0.227556     -0.079529  KCAL/ANGSTROM
     21          7  C    CARTESIAN Z     1.518993      0.024304  KCAL/ANGSTROM
     22          8  C    CARTESIAN X     0.071571     -0.065557  KCAL/ANGSTROM
     23          8  C    CARTESIAN Y    -0.472010     -0.064369  KCAL/ANGSTROM
     24          8  C    CARTESIAN Z     0.699556     -0.187148  KCAL/ANGSTROM
     25          9  C    CARTESIAN X     0.984021     -0.183656  KCAL/ANGSTROM
     26          9  C    CARTESIAN Y    -1.250814      0.064502  KCAL/ANGSTROM
     27          9  C    CARTESIAN Z    -0.354410      0.126048  KCAL/ANGSTROM
     28         10  H    CARTESIAN X    -1.157519      0.014937  KCAL/ANGSTROM
     29         10  H    CARTESIAN Y     0.252014      0.075488  KCAL/ANGSTROM
     30         10  H    CARTESIAN Z    -1.853665     -0.165941  KCAL/ANGSTROM
     31         11  H    CARTESIAN X    -0.878721      0.098005  KCAL/ANGSTROM
     32         11  H    CARTESIAN Y     2.606453     -0.090899  KCAL/ANGSTROM
     33         11  H    CARTESIAN Z     0.737694      0.042973  KCAL/ANGSTROM
     34         12  H    CARTESIAN X     1.956376     -0.175835  KCAL/ANGSTROM
     35         12  H    CARTESIAN Y     1.988928      0.068331  KCAL/ANGSTROM
     36         12  H    CARTESIAN Z    -0.053975      0.171618  KCAL/ANGSTROM
     37         13  H    CARTESIAN X     1.595256     -0.075962  KCAL/ANGSTROM
     38         13  H    CARTESIAN Y     1.140103     -0.197700  KCAL/ANGSTROM
     39         13  H    CARTESIAN Z    -1.591414      0.044095  KCAL/ANGSTROM
     40         14  H    CARTESIAN X     1.797131      0.245276  KCAL/ANGSTROM
     41         14  H    CARTESIAN Y    -1.081348     -0.153500  KCAL/ANGSTROM
     42         14  H    CARTESIAN Z     2.114943      0.194235  KCAL/ANGSTROM
     43         15  H    CARTESIAN X     1.527979      0.106132  KCAL/ANGSTROM
     44         15  H    CARTESIAN Y     0.701034      0.078224  KCAL/ANGSTROM
     45         15  H    CARTESIAN Z     2.111393     -0.319504  KCAL/ANGSTROM
     46         16  H    CARTESIAN X    -0.774123      0.159545  KCAL/ANGSTROM
     47         16  H    CARTESIAN Y    -0.948949     -0.114867  KCAL/ANGSTROM
     48         16  H    CARTESIAN Z     1.180690     -0.006828  KCAL/ANGSTROM
     49         17  H    CARTESIAN X     1.271108      0.008872  KCAL/ANGSTROM
     50         17  H    CARTESIAN Y    -2.278489      0.020060  KCAL/ANGSTROM
     51         17  H    CARTESIAN Z    -0.059008      0.005961  KCAL/ANGSTROM
     52         18  H    CARTESIAN X     0.711772      0.071432  KCAL/ANGSTROM
     53         18  H    CARTESIAN Y    -1.262255     -0.331151  KCAL/ANGSTROM
     54         18  H    CARTESIAN Z    -1.418381      0.121090  KCAL/ANGSTROM




   ATOM   CHEMICAL          X               Y               Z
  NUMBER   SYMBOL      (ANGSTROMS)     (ANGSTROMS)     (ANGSTROMS)

     1       O         -1.73481716  *   2.07610644  *  -1.18634857  *
     2       C         -1.08105354  *   1.07205885  *  -1.13512628  *
     3       C         -0.07822578  *   0.93889583  *   0.01520953  *
     4       O         -0.27777305  *   1.84819107  *   1.01830289  *
     5       C          1.48105678  *   1.08665330  *  -0.49521445  *
     6       N          1.92085834  *  -0.17333240  *   0.09993325  *
     7       C          1.43137975  *  -0.22755597  *   1.51899282  *
     8       C          0.07157055  *  -0.47201020  *   0.69955620  *
     9       C          0.98402131  *  -1.25081438  *  -0.35441000  *
    10       H         -1.15751883  *   0.25201414  *  -1.85366501  *
    11       H         -0.87872106  *   2.60645308  *   0.73769438  *
    12       H          1.95637559  *   1.98892841  *  -0.05397488  *
    13       H          1.59525637  *   1.14010295  *  -1.59141398  *
    14       H          1.79713058  *  -1.08134836  *   2.11494256  *
    15       H          1.52797931  *   0.70103377  *   2.11139308  *
    16       H         -0.77412273  *  -0.94894930  *   1.18069003  *
    17       H          1.27110819  *  -2.27848907  *  -0.05900810  *
    18       H          0.71177163  *  -1.26225463  *  -1.41838058  *

                             CARTESIAN COORDINATES

   1    O       -1.734817156     2.076106442    -1.186348567
   2    C       -1.081053542     1.072058852    -1.135126278
   3    C       -0.078225777     0.938895833     0.015209532
   4    O       -0.277773053     1.848191068     1.018302889
   5    C        1.481056781     1.086653296    -0.495214451
   6    N        1.920858337    -0.173332400     0.099933250
   7    C        1.431379747    -0.227555973     1.518992817
   8    C        0.071570547    -0.472010203     0.699556201
   9    C        0.984021313    -1.250814377    -0.354410000
  10    H       -1.157518828     0.252014135    -1.853665006
  11    H       -0.878721062     2.606453082     0.737694377
  12    H        1.956375594     1.988928407    -0.053974884
  13    H        1.595256374     1.140102949    -1.591413981
  14    H        1.797130576    -1.081348364     2.114942556
  15    H        1.527979311     0.701033771     2.111393081
  16    H       -0.774122729    -0.948949303     1.180690033
  17    H        1.271108186    -2.278489068    -0.059008103
  18    H        0.711771630    -1.262254626    -1.418380579


           Empirical Formula: C6 H9 N O2  =    18 atoms



      MOLECULAR POINT GROUP   :   C1  


          ALPHA EIGENVALUES  
 -43.98898 -36.37140 -34.56311 -31.99060 -31.34887 -29.70523 -27.44133 -25.91598
 -24.38093 -23.14701 -22.95087 -22.30195 -21.89986 -20.36002 -19.66037 -19.08160
 -19.02931 -18.77058 -18.55910 -18.15404 -18.03927 -17.73533 -17.11685 -15.60271
 -14.82653  -4.58401  -4.27283  -3.39235  -2.81963  -2.74729  -2.62322  -2.46766
  -2.11063  -2.00172  -1.64367  -0.30942   0.00205   0.08988   0.10086   0.22973
   0.50428   0.55322   0.55523   0.62371   1.22610


           BETA EIGENVALUES 
 -42.96801 -36.32234 -34.43095 -31.41494 -31.17037 -29.55050 -27.16099 -25.79556
 -24.26184 -22.93697 -22.27747 -22.14250 -21.61503 -20.06970 -19.53731 -18.97133
 -18.83496 -18.65310 -18.41576 -18.04663 -17.96674 -17.67717 -15.80998 -14.81464
  -7.64906  -4.34065  -3.94984  -3.35040  -2.55117  -2.50201  -2.36868  -2.24072
  -2.05130  -1.91358  -1.43268  -0.27244   0.02274   0.10254   0.12571   0.25116
   0.51888   0.56671   0.60669   0.64434   1.24447


              NET ATOMIC CHARGES AND DIPOLE CONTRIBUTIONS

  ATOM NO.   TYPE          CHARGE      No. of ELECS.   s-Pop       p-Pop       
    1          O          -0.287382        6.2874     1.88135     4.40603
    2          C           0.248728        3.7513     1.15968     2.59159
    3          C           0.162499        3.8375     1.13764     2.69986
    4          O          -0.491960        6.4920     1.84671     4.64525
    5          C          -0.233611        4.2336     1.11968     3.11393
    6          N           0.016061        4.9839     1.64185     3.34209
    7          C          -0.121340        4.1213     1.12541     2.99593
    8          C          -0.137335        4.1373     1.12807     3.00927
    9          C          -0.156456        4.1565     1.12025     3.03621
   10          H           0.153849        0.8462     0.84615
   11          H           0.382019        0.6180     0.61798
   12          H           0.218811        0.7812     0.78119
   13          H           0.198620        0.8014     0.80138
   14          H           0.204519        0.7955     0.79548
   15          H           0.216927        0.7831     0.78307
   16          H           0.220133        0.7799     0.77987
   17          H           0.212060        0.7879     0.78794
   18          H           0.193858        0.8061     0.80614
 DIPOLE           X         Y         Z       TOTAL
 POINT-CHG.     2.866    -4.596    -0.185     5.419
 HYBRID         0.495     0.494     0.107     0.708
 SUM            3.361    -4.102    -0.078     5.303


          ATOMIC ORBITAL ELECTRON POPULATIONS

     Atom    s        px        py        pz   
    1  O   1.88135   1.38804   1.32473   1.69326
    2  C   1.15968   0.79642   0.90869   0.88649
    3  C   1.13764   0.90935   0.87542   0.91509
    4  O   1.84671   1.74745   1.46913   1.42867
    5  C   1.11968   1.01725   0.94351   1.15317
    6  N   1.64185   1.03761   1.14483   1.15964
    7  C   1.12541   0.89564   1.22109   0.87920
    8  C   1.12807   1.00952   0.99989   0.99985
    9  C   1.12025   0.86505   1.03585   1.13531
   10  H   0.84615
   11  H   0.61798
   12  H   0.78119
   13  H   0.80138
   14  H   0.79548
   15  H   0.78307
   16  H   0.77987
   17  H   0.78794
   18  H   0.80614


                    (SZ)    =    0.500000
                    (S**2)  =    0.758620


          ATOMIC ORBITAL SPIN POPULATIONS

    Atom   Total    s     px     py     pz   
         Atomic
    1  O  0.0117  0.000 -0.001  0.000  0.012
    2  C -0.0035 -0.000 -0.003 -0.002  0.001
    3  C  0.0696  0.005  0.060  0.001  0.003
    4  O  0.0259  0.001  0.016  0.004  0.005
    5  C -0.0321 -0.009  0.003 -0.016 -0.010
    6  N  0.7926  0.054  0.629  0.053  0.056
    7  C  0.0036 -0.005  0.031 -0.002 -0.021
    8  C  0.0962  0.015  0.076  0.005  0.000
    9  C  0.0063 -0.005  0.036 -0.021 -0.004
   10  H  0.0007  0.001
   11  H -0.0003 -0.000
   12  H  0.0026  0.003
   13  H  0.0024  0.002
   14  H  0.0044  0.004
   15  H  0.0012  0.001
   16  H  0.0132  0.013
   17  H  0.0048  0.005
   18  H  0.0006  0.001

 **********************
 *                    *
 * JOB ENDED NORMALLY *
 *                    *
 **********************



 TOTAL JOB TIME:             0.68 SECONDS

 == MOPAC DONE ==
