 *******************************************************************************
 **                                                                           **
 **                              MOPAC v23.2                                  **
 **                                                                           **
 *******************************************************************************
 **          Digital Object Identifier (DOI): 10.5281/zenodo.6511958          **
 **    Visit the DOI location for information on how to cite this program.    **
 *******************************************************************************

                              PM7 CALCULATION RESULTS

 *******************************************************************************
 *  CALCULATION DONE: (MAX THREADS = 40)             Fri Sep 19 21:39:22 2025  *
 *  PM7        - The PM7 Hamiltonian to be used
 *  1SCF       - DO 1 SCF AND THEN STOP 
 *  T=         - A TIME OF 172800.0 SECONDS REQUESTED
 *  DUMP=N     - RESTART FILE WRITTEN EVERY 7200.0 SECONDS REQUESTED
 *  RELSCF     - DEFAULT SCF CRITERION MULTIPLIED BY 0.0001
 *              (DEFAULT SCF CRITERION = 0.00010)
 *  GRADIENTS  - ALL GRADIENTS TO BE PRINTED
 *  DISP       - PRINT DISPERSION AND HYDROGEN BOND ENERGIES
 *******************************************************************************
PM7 1SCF GRADIENTS DISP RELSCF=0.0001
 Title: ASE calculation

   ATOM   CHEMICAL          X               Y               Z
  NUMBER   SYMBOL      (ANGSTROMS)     (ANGSTROMS)     (ANGSTROMS)

     1       C         -2.84185095  *   1.13212849  *   0.32622500  *
     2       C         -1.94765763  *  -0.03219731  *   0.67576771  *
     3       C         -1.14478684  *  -0.66463338  *  -0.49960832  *
     4       C          0.08736774  *  -0.08700193  *   0.20552081  *
     5       C          1.30682204  *  -0.91689039  *   0.66010288  *
     6       N          2.23537063  *   0.05281356  *  -0.03722774  *
     7       C          3.19546237  *   0.71151271  *   0.85428174  *
     8       C          1.06433450  *   0.92326837  *  -0.43497086  *
     9       O         -0.70334389  *   0.45031860  *   1.27628283  *
    10       H         -3.75871614  *   0.80161392  *  -0.17393323  *
    11       H         -3.12843525  *   1.68782713  *   1.23051500  *
    12       H         -2.33626329  *   1.84932315  *  -0.33411041  *
    13       H         -2.40591676  *  -0.75062503  *   1.37231469  *
    14       H         -1.35345764  *  -0.25947170  *  -1.49168832  *
    15       H         -1.18211078  *  -1.75430333  *  -0.56025191  *
    16       H          1.39880089  *  -1.91399876  *   0.20772105  *
    17       H          1.41423851  *  -0.99618302  *   1.74867504  *
    18       H          3.75694777  *   1.46244405  *   0.27158012  *
    19       H          3.91966019  *  -0.04046224  *   1.21187627  *
    20       H          2.75477041  *   1.21169525  *   1.73025338  *
    21       H          1.01218604  *   1.00840082  *  -1.52850454  *
    22       H          1.03045065  *   1.92415183  *   0.01252777  *



          CARTESIAN COORDINATES 

    NO.       ATOM           X           Y           Z

     1         C         -2.8419      1.1321      0.3262
     2         C         -1.9477     -0.0322      0.6758
     3         C         -1.1448     -0.6646     -0.4996
     4         C          0.0874     -0.0870      0.2055
     5         C          1.3068     -0.9169      0.6601
     6         N          2.2354      0.0528     -0.0372
     7         C          3.1955      0.7115      0.8543
     8         C          1.0643      0.9233     -0.4350
     9         O         -0.7033      0.4503      1.2763
    10         H         -3.7587      0.8016     -0.1739
    11         H         -3.1284      1.6878      1.2305
    12         H         -2.3363      1.8493     -0.3341
    13         H         -2.4059     -0.7506      1.3723
    14         H         -1.3535     -0.2595     -1.4917
    15         H         -1.1821     -1.7543     -0.5603
    16         H          1.3988     -1.9140      0.2077
    17         H          1.4142     -0.9962      1.7487
    18         H          3.7569      1.4624      0.2716
    19         H          3.9197     -0.0405      1.2119
    20         H          2.7548      1.2117      1.7303
    21         H          1.0122      1.0084     -1.5285
    22         H          1.0305      1.9242      0.0125

 General Reference for PM7:
 "Optimization of Parameters for Semiempirical Methods VI: More Modifications to the 
 NDDO Approximations and Re-optimization of Parameters", J. J. P. Stewart, J. Mol. Mod., 1:32, 19 (2013)
 https://link.springer.com/article/10.1007/s00894-012-1667-x

           Empirical Formula: C7 H13 N O  =    22 atoms



      MOLECULAR POINT GROUP   :   C1  


      RHF CALCULATION, NO. OF DOUBLY OCCUPIED LEVELS = 26

  SCF CRITERION =    0.1000E-07

 -------------------------------------------------------------------------------
 PM7 1SCF GRADIENTS DISP RELSCF=0.0001
 Title: ASE calculation



     1SCF WAS SPECIFIED, SO BFGS WAS NOT USED                 
     SCF FIELD WAS ACHIEVED                                   


                              PM7 CALCULATION
                                                       MOPAC v23.2 Linux
                                                       Fri Sep 19 21:39:23 2025




          FINAL HEAT OF FORMATION =        -14.05739 KCAL/MOL =     -58.81611 KJ/MOL

          TOTAL ENERGY            =     -34950.72409 KCAL/MOL = ELECTRONIC ENERGY + CORE-CORE REPULSION
          ENERGY OF ATOMS         =      34938.70333 KCAL/MOL
                              SUM =        -12.02076 KCAL/MOL
          DISPERSION ENERGY       =         -2.03663 KCAL/MOL
                              SUM =        -14.05739 KCAL/MOL = FINAL HEAT OF FORMATION



          TOTAL ENERGY            =      -1515.60684 EV
          ELECTRONIC ENERGY       =      -7907.22476 EV 
          CORE-CORE REPULSION     =       6391.61791 EV
          COSMO AREA              =        172.88 SQUARE ANGSTROMS
          COSMO VOLUME            =        174.02 CUBIC ANGSTROMS

          GRADIENT NORM           =          1.01767          =       0.21697 PER ATOM
          IONIZATION POTENTIAL    =          9.130358 EV
          HOMO LUMO ENERGIES (EV) =         -9.130  2.124
          NO. OF FILLED LEVELS    =         26
          MOLECULAR WEIGHT        =        127.1858         POINT GROUP:  C1  

          MOLECULAR DIMENSIONS (Angstroms)

            Atom       Atom       Distance
            H    19    H    10     7.84774
            H    13    H    21     4.02555
            H    11    H    15     3.87145


          SCF CALCULATIONS        =          1

          WALL-CLOCK TIME         =      0.687 SECONDS
          COMPUTATION TIME        =      1.256 SECONDS

          LARGEST ATOMIC GRADIENTS

          Atom     Label                     Cartesian Gradients           Cartesian Coordinates       |Gradient|
                                           X          Y          Z        X          Y          Z

            15       H                   0.087     -0.381      0.091   -1.18211   -1.75430   -0.56025      0.402
            14       H                   0.026      0.061     -0.363   -1.35346   -0.25947   -1.49169      0.369
             5       C                   0.083      0.080     -0.293    1.30682   -0.91689    0.66010      0.315
             2       C                   0.107      0.077      0.244   -1.94766   -0.03220    0.67577      0.277
             3       C                  -0.254     -0.023      0.043   -1.14479   -0.66463   -0.49961      0.258
             8       C                   0.047     -0.229      0.072    1.06433    0.92327   -0.43497      0.245
            16       H                   0.057     -0.046     -0.220    1.39880   -1.91400    0.20772      0.232
            22       H                   0.178     -0.056      0.100    1.03045    1.92415    0.01253      0.212
             9       O                  -0.099      0.035      0.170   -0.70334    0.45032    1.27628      0.200
             6       N                  -0.172      0.093     -0.003    2.23537    0.05281   -0.03723      0.195



       FINAL  POINT  AND  DERIVATIVES

   PARAMETER     ATOM    TYPE            VALUE        GRADIENT
      1          1  C    CARTESIAN X    -2.841851      0.076456  KCAL/ANGSTROM
      2          1  C    CARTESIAN Y     1.132128      0.154363  KCAL/ANGSTROM
      3          1  C    CARTESIAN Z     0.326225      0.026372  KCAL/ANGSTROM
      4          2  C    CARTESIAN X    -1.947658      0.107080  KCAL/ANGSTROM
      5          2  C    CARTESIAN Y    -0.032197      0.076821  KCAL/ANGSTROM
      6          2  C    CARTESIAN Z     0.675768      0.243750  KCAL/ANGSTROM
      7          3  C    CARTESIAN X    -1.144787     -0.253603  KCAL/ANGSTROM
      8          3  C    CARTESIAN Y    -0.664633     -0.022956  KCAL/ANGSTROM
      9          3  C    CARTESIAN Z    -0.499608      0.042897  KCAL/ANGSTROM
     10          4  C    CARTESIAN X     0.087368     -0.118772  KCAL/ANGSTROM
     11          4  C    CARTESIAN Y    -0.087002     -0.011606  KCAL/ANGSTROM
     12          4  C    CARTESIAN Z     0.205521      0.116414  KCAL/ANGSTROM
     13          5  C    CARTESIAN X     1.306822      0.083060  KCAL/ANGSTROM
     14          5  C    CARTESIAN Y    -0.916890      0.079647  KCAL/ANGSTROM
     15          5  C    CARTESIAN Z     0.660103     -0.293235  KCAL/ANGSTROM
     16          6  N    CARTESIAN X     2.235371     -0.171519  KCAL/ANGSTROM
     17          6  N    CARTESIAN Y     0.052814      0.092713  KCAL/ANGSTROM
     18          6  N    CARTESIAN Z    -0.037228     -0.002837  KCAL/ANGSTROM
     19          7  C    CARTESIAN X     3.195462     -0.140314  KCAL/ANGSTROM
     20          7  C    CARTESIAN Y     0.711513      0.027103  KCAL/ANGSTROM
     21          7  C    CARTESIAN Z     0.854282     -0.058792  KCAL/ANGSTROM
     22          8  C    CARTESIAN X     1.064334      0.047391  KCAL/ANGSTROM
     23          8  C    CARTESIAN Y     0.923268     -0.229259  KCAL/ANGSTROM
     24          8  C    CARTESIAN Z    -0.434971      0.071952  KCAL/ANGSTROM
     25          9  O    CARTESIAN X    -0.703344     -0.099017  KCAL/ANGSTROM
     26          9  O    CARTESIAN Y     0.450319      0.034929  KCAL/ANGSTROM
     27          9  O    CARTESIAN Z     1.276283      0.169723  KCAL/ANGSTROM
     28         10  H    CARTESIAN X    -3.758716      0.131147  KCAL/ANGSTROM
     29         10  H    CARTESIAN Y     0.801614      0.038713  KCAL/ANGSTROM
     30         10  H    CARTESIAN Z    -0.173933      0.007027  KCAL/ANGSTROM
     31         11  H    CARTESIAN X    -3.128435      0.087867  KCAL/ANGSTROM
     32         11  H    CARTESIAN Y     1.687827      0.005636  KCAL/ANGSTROM
     33         11  H    CARTESIAN Z     1.230515     -0.027241  KCAL/ANGSTROM
     34         12  H    CARTESIAN X    -2.336263     -0.015660  KCAL/ANGSTROM
     35         12  H    CARTESIAN Y     1.849323      0.048730  KCAL/ANGSTROM
     36         12  H    CARTESIAN Z    -0.334110     -0.178702  KCAL/ANGSTROM
     37         13  H    CARTESIAN X    -2.405917      0.006473  KCAL/ANGSTROM
     38         13  H    CARTESIAN Y    -0.750625     -0.134386  KCAL/ANGSTROM
     39         13  H    CARTESIAN Z     1.372315      0.032024  KCAL/ANGSTROM
     40         14  H    CARTESIAN X    -1.353458      0.025834  KCAL/ANGSTROM
     41         14  H    CARTESIAN Y    -0.259472      0.060889  KCAL/ANGSTROM
     42         14  H    CARTESIAN Z    -1.491688     -0.362786  KCAL/ANGSTROM
     43         15  H    CARTESIAN X    -1.182111      0.087238  KCAL/ANGSTROM
     44         15  H    CARTESIAN Y    -1.754303     -0.381418  KCAL/ANGSTROM
     45         15  H    CARTESIAN Z    -0.560252      0.090865  KCAL/ANGSTROM
     46         16  H    CARTESIAN X     1.398801      0.057306  KCAL/ANGSTROM
     47         16  H    CARTESIAN Y    -1.913999     -0.046090  KCAL/ANGSTROM
     48         16  H    CARTESIAN Z     0.207721     -0.220378  KCAL/ANGSTROM
     49         17  H    CARTESIAN X     1.414239     -0.074303  KCAL/ANGSTROM
     50         17  H    CARTESIAN Y    -0.996183      0.078778  KCAL/ANGSTROM
     51         17  H    CARTESIAN Z     1.748675     -0.030312  KCAL/ANGSTROM
     52         18  H    CARTESIAN X     3.756948      0.042822  KCAL/ANGSTROM
     53         18  H    CARTESIAN Y     1.462444      0.018591  KCAL/ANGSTROM
     54         18  H    CARTESIAN Z     0.271580      0.087967  KCAL/ANGSTROM
     55         19  H    CARTESIAN X     3.919660     -0.123130  KCAL/ANGSTROM
     56         19  H    CARTESIAN Y    -0.040462      0.062139  KCAL/ANGSTROM
     57         19  H    CARTESIAN Z     1.211876      0.071886  KCAL/ANGSTROM
     58         20  H    CARTESIAN X     2.754770      0.131925  KCAL/ANGSTROM
     59         20  H    CARTESIAN Y     1.211695      0.128704  KCAL/ANGSTROM
     60         20  H    CARTESIAN Z     1.730253      0.013004  KCAL/ANGSTROM
     61         21  H    CARTESIAN X     1.012186     -0.066271  KCAL/ANGSTROM
     62         21  H    CARTESIAN Y     1.008401     -0.026065  KCAL/ANGSTROM
     63         21  H    CARTESIAN Z    -1.528505      0.100484  KCAL/ANGSTROM
     64         22  H    CARTESIAN X     1.030451      0.177990  KCAL/ANGSTROM
     65         22  H    CARTESIAN Y     1.924152     -0.055981  KCAL/ANGSTROM
     66         22  H    CARTESIAN Z     0.012528      0.099914  KCAL/ANGSTROM




   ATOM   CHEMICAL          X               Y               Z
  NUMBER   SYMBOL      (ANGSTROMS)     (ANGSTROMS)     (ANGSTROMS)

     1       C         -2.84185095  *   1.13212849  *   0.32622500  *
     2       C         -1.94765763  *  -0.03219731  *   0.67576771  *
     3       C         -1.14478684  *  -0.66463338  *  -0.49960832  *
     4       C          0.08736774  *  -0.08700193  *   0.20552081  *
     5       C          1.30682204  *  -0.91689039  *   0.66010288  *
     6       N          2.23537063  *   0.05281356  *  -0.03722774  *
     7       C          3.19546237  *   0.71151271  *   0.85428174  *
     8       C          1.06433450  *   0.92326837  *  -0.43497086  *
     9       O         -0.70334389  *   0.45031860  *   1.27628283  *
    10       H         -3.75871614  *   0.80161392  *  -0.17393323  *
    11       H         -3.12843525  *   1.68782713  *   1.23051500  *
    12       H         -2.33626329  *   1.84932315  *  -0.33411041  *
    13       H         -2.40591676  *  -0.75062503  *   1.37231469  *
    14       H         -1.35345764  *  -0.25947170  *  -1.49168832  *
    15       H         -1.18211078  *  -1.75430333  *  -0.56025191  *
    16       H          1.39880089  *  -1.91399876  *   0.20772105  *
    17       H          1.41423851  *  -0.99618302  *   1.74867504  *
    18       H          3.75694777  *   1.46244405  *   0.27158012  *
    19       H          3.91966019  *  -0.04046224  *   1.21187627  *
    20       H          2.75477041  *   1.21169525  *   1.73025338  *
    21       H          1.01218604  *   1.00840082  *  -1.52850454  *
    22       H          1.03045065  *   1.92415183  *   0.01252777  *

                             CARTESIAN COORDINATES

   1    C       -2.841850948     1.132128494     0.326225000
   2    C       -1.947657631    -0.032197310     0.675767708
   3    C       -1.144786840    -0.664633382    -0.499608318
   4    C        0.087367742    -0.087001933     0.205520810
   5    C        1.306822041    -0.916890391     0.660102880
   6    N        2.235370631     0.052813564    -0.037227736
   7    C        3.195462367     0.711512706     0.854281741
   8    C        1.064334497     0.923268365    -0.434970857
   9    O       -0.703343894     0.450318605     1.276282826
  10    H       -3.758716137     0.801613922    -0.173933235
  11    H       -3.128435254     1.687827131     1.230514997
  12    H       -2.336263291     1.849323152    -0.334110407
  13    H       -2.405916764    -0.750625029     1.372314685
  14    H       -1.353457643    -0.259471698    -1.491688325
  15    H       -1.182110778    -1.754303329    -0.560251906
  16    H        1.398800887    -1.913998758     0.207721053
  17    H        1.414238511    -0.996183018     1.748675044
  18    H        3.756947766     1.462444048     0.271580124
  19    H        3.919660194    -0.040462235     1.211876269
  20    H        2.754770414     1.211695252     1.730253381
  21    H        1.012186039     1.008400819    -1.528504542
  22    H        1.030450648     1.924151834     0.012527771


           Empirical Formula: C7 H13 N O  =    22 atoms



      MOLECULAR POINT GROUP   :   C1  


                  EIGENVALUES  
 -35.35489 -31.04501 -26.64753 -26.25271 -24.26777 -23.54179 -22.21122 -19.98365
 -18.39871 -17.05846 -16.93719 -16.38628 -15.31788 -15.09319 -14.62238 -13.80254
 -13.70058 -13.40292 -13.08377 -12.68808 -12.48935 -11.87830 -11.60208 -11.32276
 -10.00088  -9.13036   2.12450   2.52353   3.03958   3.34973   3.88351   3.96085
   4.12987   4.21814   4.46573   5.17299   5.30846   5.56539   5.60762   5.68928
   5.79159   5.79897   5.85727   6.03266   6.13733   6.23043   6.26278   6.65067
   6.78590


              NET ATOMIC CHARGES AND DIPOLE CONTRIBUTIONS

  ATOM NO.   TYPE          CHARGE      No. of ELECS.   s-Pop       p-Pop       
    1          C          -0.480888        4.4809     1.05591     3.42498
    2          C           0.144811        3.8552     1.09261     2.76258
    3          C          -0.381807        4.3818     1.08199     3.29982
    4          C           0.215968        3.7840     1.09759     2.68644
    5          C          -0.186610        4.1866     1.09091     3.09570
    6          N          -0.375247        5.3752     1.72583     3.64942
    7          C          -0.287929        4.2879     1.06172     3.22621
    8          C          -0.187148        4.1871     1.09096     3.09619
    9          O          -0.428855        6.4289     1.90570     4.52316
   10          H           0.153871        0.8461     0.84613
   11          H           0.164083        0.8359     0.83592
   12          H           0.160586        0.8394     0.83941
   13          H           0.132102        0.8679     0.86790
   14          H           0.161209        0.8388     0.83879
   15          H           0.158356        0.8416     0.84164
   16          H           0.156241        0.8438     0.84376
   17          H           0.149719        0.8503     0.85028
   18          H           0.150357        0.8496     0.84964
   19          H           0.149699        0.8503     0.85030
   20          H           0.127191        0.8728     0.87281
   21          H           0.155197        0.8448     0.84480
   22          H           0.149095        0.8509     0.85091
 DIPOLE           X         Y         Z       TOTAL
 POINT-CHG.    -1.474    -0.442    -0.817     1.742
 HYBRID        -0.161     0.555     0.765     0.958
 SUM           -1.635     0.113    -0.053     1.640


          ATOMIC ORBITAL ELECTRON POPULATIONS

     Atom    s        px        py        pz   
    1  C   1.05591   1.13081   1.10861   1.18556
    2  C   1.09261   0.85013   0.96794   0.94450
    3  C   1.08199   1.05187   1.14811   1.09983
    4  C   1.09759   0.88599   0.94373   0.85672
    5  C   1.09091   0.94240   1.04818   1.10511
    6  N   1.72583   1.13323   1.16087   1.35532
    7  C   1.06172   1.04526   1.11629   1.06466
    8  C   1.09096   0.91786   1.04987   1.12846
    9  O   1.90570   1.26982   1.79128   1.46206
   10  H   0.84613
   11  H   0.83592
   12  H   0.83941
   13  H   0.86790
   14  H   0.83879
   15  H   0.84164
   16  H   0.84376
   17  H   0.85028
   18  H   0.84964
   19  H   0.85030
   20  H   0.87281
   21  H   0.84480
   22  H   0.85091

 **********************
 *                    *
 * JOB ENDED NORMALLY *
 *                    *
 **********************



 TOTAL JOB TIME:             0.97 SECONDS

 == MOPAC DONE ==
