 *******************************************************************************
 **                                                                           **
 **                              MOPAC v23.2                                  **
 **                                                                           **
 *******************************************************************************
 **          Digital Object Identifier (DOI): 10.5281/zenodo.6511958          **
 **    Visit the DOI location for information on how to cite this program.    **
 *******************************************************************************

                              PM7 CALCULATION RESULTS

 *******************************************************************************
 *  CALCULATION DONE: (MAX THREADS = 40)             Fri Sep 19 21:40:11 2025  *
 *  PM7        - The PM7 Hamiltonian to be used
 *
 *
 *
 *                 CHARGE ON SYSTEM = +1
 *
 *
 *
 *  1SCF       - DO 1 SCF AND THEN STOP 
 *  T=         - A TIME OF 172800.0 SECONDS REQUESTED
 *  DUMP=N     - RESTART FILE WRITTEN EVERY 7200.0 SECONDS REQUESTED
 *  RELSCF     - DEFAULT SCF CRITERION MULTIPLIED BY 0.0001
 *              (DEFAULT SCF CRITERION = 0.00010)
 *  GRADIENTS  - ALL GRADIENTS TO BE PRINTED
 *  DISP       - PRINT DISPERSION AND HYDROGEN BOND ENERGIES
 *******************************************************************************
PM7 1SCF GRADIENTS DISP RELSCF=0.0001 CHARGE=1
 Title: ASE calculation

   ATOM   CHEMICAL          X               Y               Z
  NUMBER   SYMBOL      (ANGSTROMS)     (ANGSTROMS)     (ANGSTROMS)

     1       C         -2.72731210  *   0.45433419  *  -0.00475578  *
     2       C         -1.38398837  *   0.36305459  *  -0.72388580  *
     3       C         -0.59500722  *  -0.84107709  *  -0.24128593  *
     4       C         -0.02014763  *  -0.74131101  *   1.19961244  *
     5       C          1.44852508  *  -0.95786334  *   0.64854708  *
     6       C          2.27317605  *   0.22674327  *   0.72043467  *
     7       C          2.29693411  *   0.95097057  *  -0.54354120  *
     8       C          1.41415685  *   0.20199357  *  -1.47426097  *
     9       C          0.85412470  *  -0.98968748  *  -0.81801164  *
    10       H         -2.61030297  *   0.61802188  *   1.07190520  *
    11       H         -3.33231338  *   1.28559198  *  -0.39557921  *
    12       H         -3.32541130  *  -0.45706536  *  -0.13787855  *
    13       H         -0.81586023  *   1.30181741  *  -0.58781669  *
    14       H         -1.55513452  *   0.27788283  *  -1.81990113  *
    15       H         -1.18909157  *  -1.76772745  *  -0.38986930  *
    16       H         -0.19602217  *   0.21218217  *   1.70580235  *
    17       H         -0.33667305  *  -1.54868112  *   1.87609968  *
    18       H          1.89280843  *  -1.89597126  *   1.03960508  *
    19       H          2.82054065  *   0.54468965  *   1.61568630  *
    20       H          2.01688912  *   2.04259484  *  -0.45379708  *
    21       H          3.34485142  *   1.07028359  *  -0.96338034  *
    22       H          1.20872977  *   0.49837365  *  -2.48035108  *
    23       H          1.00977122  *  -1.92613451  *  -1.38238318  *



          CARTESIAN COORDINATES 

    NO.       ATOM           X           Y           Z

     1         C         -2.7273      0.4543     -0.0048
     2         C         -1.3840      0.3631     -0.7239
     3         C         -0.5950     -0.8411     -0.2413
     4         C         -0.0201     -0.7413      1.1996
     5         C          1.4485     -0.9579      0.6485
     6         C          2.2732      0.2267      0.7204
     7         C          2.2969      0.9510     -0.5435
     8         C          1.4142      0.2020     -1.4743
     9         C          0.8541     -0.9897     -0.8180
    10         H         -2.6103      0.6180      1.0719
    11         H         -3.3323      1.2856     -0.3956
    12         H         -3.3254     -0.4571     -0.1379
    13         H         -0.8159      1.3018     -0.5878
    14         H         -1.5551      0.2779     -1.8199
    15         H         -1.1891     -1.7677     -0.3899
    16         H         -0.1960      0.2122      1.7058
    17         H         -0.3367     -1.5487      1.8761
    18         H          1.8928     -1.8960      1.0396
    19         H          2.8205      0.5447      1.6157
    20         H          2.0169      2.0426     -0.4538
    21         H          3.3449      1.0703     -0.9634
    22         H          1.2087      0.4984     -2.4804
    23         H          1.0098     -1.9261     -1.3824

 General Reference for PM7:
 "Optimization of Parameters for Semiempirical Methods VI: More Modifications to the 
 NDDO Approximations and Re-optimization of Parameters", J. J. P. Stewart, J. Mol. Mod., 1:32, 19 (2013)
 https://link.springer.com/article/10.1007/s00894-012-1667-x

           Empirical Formula: C9 H14  =    23 atoms



      MOLECULAR POINT GROUP   :   C1  


          UHF CALCULATION, NO. OF ALPHA ELECTRONS =   25
                           NO. OF BETA  ELECTRONS =   24
  SCF CRITERION =    0.1000E-07

 -------------------------------------------------------------------------------
 PM7 1SCF GRADIENTS DISP RELSCF=0.0001 CHARGE=1
 Title: ASE calculation



     1SCF WAS SPECIFIED, SO BFGS WAS NOT USED                 
     SCF FIELD WAS ACHIEVED                                   


                              PM7 CALCULATION
                                                       MOPAC v23.2 Linux
                                                       Fri Sep 19 21:40:12 2025




          FINAL HEAT OF FORMATION =        220.28589 KCAL/MOL =     921.67616 KJ/MOL

          TOTAL ENERGY            =     -29629.81813 KCAL/MOL = ELECTRONIC ENERGY + CORE-CORE REPULSION
          ENERGY OF ATOMS         =      29852.41387 KCAL/MOL
                              SUM =        222.59573 KCAL/MOL
          DISPERSION ENERGY       =         -2.30985 KCAL/MOL
                              SUM =        220.28589 KCAL/MOL = FINAL HEAT OF FORMATION



          TOTAL ENERGY            =      -1284.87052 EV
          ELECTRONIC ENERGY       =      -7257.31711 EV 
          CORE-CORE REPULSION     =       5972.44659 EV
          COSMO AREA              =        171.37 SQUARE ANGSTROMS
          COSMO VOLUME            =        175.39 CUBIC ANGSTROMS

          GRADIENT NORM           =          1.18276          =       0.24662 PER ATOM
          IONIZATION POTENTIAL    =         13.474549 EV
          ALPHA SOMO LUMO (EV)    =        -13.475 -6.981
          BETA  SOMO LUMO (EV)    =        -14.893 -6.911
          NO. OF ALPHA ELECTRONS  =         25
          NO. OF BETA  ELECTRONS  =         24
          MOLECULAR WEIGHT        =        122.2096         POINT GROUP:  C1  

          MOLECULAR DIMENSIONS (Angstroms)

            Atom       Atom       Distance
            H    21    H    12     6.89251
            H    18    H    11     4.69189
            H    19    H    23     3.79260


          SCF CALCULATIONS        =          1

          WALL-CLOCK TIME         =      1.078 SECONDS
          COMPUTATION TIME        =      0.408 SECONDS

          LARGEST ATOMIC GRADIENTS

          Atom     Label                     Cartesian Gradients           Cartesian Coordinates       |Gradient|
                                           X          Y          Z        X          Y          Z

             5       C                  -0.072      0.200      0.366    1.44853   -0.95786    0.64855      0.423
            17       H                  -0.164     -0.317      0.141   -0.33667   -1.54868    1.87610      0.384
             3       C                   0.077      0.031     -0.356   -0.59501   -0.84108   -0.24129      0.366
            11       H                  -0.233     -0.227     -0.116   -3.33231    1.28559   -0.39558      0.345
            19       H                   0.335     -0.035     -0.076    2.82054    0.54469    1.61569      0.345
            22       H                  -0.260      0.179     -0.054    1.20873    0.49837   -2.48035      0.320
            18       H                  -0.010     -0.205      0.156    1.89281   -1.89597    1.03961      0.257
             8       C                   0.037     -0.145     -0.185    1.41416    0.20199   -1.47426      0.239
             9       C                  -0.193      0.104      0.004    0.85412   -0.98969   -0.81801      0.219
            12       H                   0.164      0.139      0.018   -3.32541   -0.45707   -0.13788      0.215



       FINAL  POINT  AND  DERIVATIVES

   PARAMETER     ATOM    TYPE            VALUE        GRADIENT
      1          1  C    CARTESIAN X    -2.727312      0.170825  KCAL/ANGSTROM
      2          1  C    CARTESIAN Y     0.454334      0.071451  KCAL/ANGSTROM
      3          1  C    CARTESIAN Z    -0.004756     -0.024498  KCAL/ANGSTROM
      4          2  C    CARTESIAN X    -1.383988      0.100720  KCAL/ANGSTROM
      5          2  C    CARTESIAN Y     0.363055      0.021378  KCAL/ANGSTROM
      6          2  C    CARTESIAN Z    -0.723886     -0.149200  KCAL/ANGSTROM
      7          3  C    CARTESIAN X    -0.595007      0.076877  KCAL/ANGSTROM
      8          3  C    CARTESIAN Y    -0.841077      0.030572  KCAL/ANGSTROM
      9          3  C    CARTESIAN Z    -0.241286     -0.356466  KCAL/ANGSTROM
     10          4  C    CARTESIAN X    -0.020148     -0.169492  KCAL/ANGSTROM
     11          4  C    CARTESIAN Y    -0.741311     -0.098120  KCAL/ANGSTROM
     12          4  C    CARTESIAN Z     1.199612      0.070221  KCAL/ANGSTROM
     13          5  C    CARTESIAN X     1.448525     -0.072143  KCAL/ANGSTROM
     14          5  C    CARTESIAN Y    -0.957863      0.200256  KCAL/ANGSTROM
     15          5  C    CARTESIAN Z     0.648547      0.365694  KCAL/ANGSTROM
     16          6  C    CARTESIAN X     2.273176      0.139365  KCAL/ANGSTROM
     17          6  C    CARTESIAN Y     0.226743      0.085473  KCAL/ANGSTROM
     18          6  C    CARTESIAN Z     0.720435     -0.007800  KCAL/ANGSTROM
     19          7  C    CARTESIAN X     2.296934     -0.101278  KCAL/ANGSTROM
     20          7  C    CARTESIAN Y     0.950971      0.076533  KCAL/ANGSTROM
     21          7  C    CARTESIAN Z    -0.543541     -0.126789  KCAL/ANGSTROM
     22          8  C    CARTESIAN X     1.414157      0.037285  KCAL/ANGSTROM
     23          8  C    CARTESIAN Y     0.201994     -0.145281  KCAL/ANGSTROM
     24          8  C    CARTESIAN Z    -1.474261     -0.185458  KCAL/ANGSTROM
     25          9  C    CARTESIAN X     0.854125     -0.193192  KCAL/ANGSTROM
     26          9  C    CARTESIAN Y    -0.989687      0.103732  KCAL/ANGSTROM
     27          9  C    CARTESIAN Z    -0.818012      0.003799  KCAL/ANGSTROM
     28         10  H    CARTESIAN X    -2.610303      0.150241  KCAL/ANGSTROM
     29         10  H    CARTESIAN Y     0.618022     -0.025742  KCAL/ANGSTROM
     30         10  H    CARTESIAN Z     1.071905      0.003667  KCAL/ANGSTROM
     31         11  H    CARTESIAN X    -3.332313     -0.233127  KCAL/ANGSTROM
     32         11  H    CARTESIAN Y     1.285592     -0.226521  KCAL/ANGSTROM
     33         11  H    CARTESIAN Z    -0.395579     -0.116184  KCAL/ANGSTROM
     34         12  H    CARTESIAN X    -3.325411      0.163632  KCAL/ANGSTROM
     35         12  H    CARTESIAN Y    -0.457065      0.138865  KCAL/ANGSTROM
     36         12  H    CARTESIAN Z    -0.137879      0.018071  KCAL/ANGSTROM
     37         13  H    CARTESIAN X    -0.815860      0.127365  KCAL/ANGSTROM
     38         13  H    CARTESIAN Y     1.301817     -0.060722  KCAL/ANGSTROM
     39         13  H    CARTESIAN Z    -0.587817     -0.006441  KCAL/ANGSTROM
     40         14  H    CARTESIAN X    -1.555135      0.000279  KCAL/ANGSTROM
     41         14  H    CARTESIAN Y     0.277883     -0.185297  KCAL/ANGSTROM
     42         14  H    CARTESIAN Z    -1.819901     -0.017002  KCAL/ANGSTROM
     43         15  H    CARTESIAN X    -1.189092     -0.055431  KCAL/ANGSTROM
     44         15  H    CARTESIAN Y    -1.767727      0.111033  KCAL/ANGSTROM
     45         15  H    CARTESIAN Z    -0.389869      0.094496  KCAL/ANGSTROM
     46         16  H    CARTESIAN X    -0.196022      0.012578  KCAL/ANGSTROM
     47         16  H    CARTESIAN Y     0.212182      0.069141  KCAL/ANGSTROM
     48         16  H    CARTESIAN Z     1.705802      0.130762  KCAL/ANGSTROM
     49         17  H    CARTESIAN X    -0.336673     -0.164073  KCAL/ANGSTROM
     50         17  H    CARTESIAN Y    -1.548681     -0.316572  KCAL/ANGSTROM
     51         17  H    CARTESIAN Z     1.876100      0.141251  KCAL/ANGSTROM
     52         18  H    CARTESIAN X     1.892808     -0.009631  KCAL/ANGSTROM
     53         18  H    CARTESIAN Y    -1.895971     -0.204736  KCAL/ANGSTROM
     54         18  H    CARTESIAN Z     1.039605      0.155537  KCAL/ANGSTROM
     55         19  H    CARTESIAN X     2.820541      0.334659  KCAL/ANGSTROM
     56         19  H    CARTESIAN Y     0.544690     -0.035357  KCAL/ANGSTROM
     57         19  H    CARTESIAN Z     1.615686     -0.075841  KCAL/ANGSTROM
     58         20  H    CARTESIAN X     2.016889      0.020205  KCAL/ANGSTROM
     59         20  H    CARTESIAN Y     2.042595      0.155942  KCAL/ANGSTROM
     60         20  H    CARTESIAN Z    -0.453797      0.056994  KCAL/ANGSTROM
     61         21  H    CARTESIAN X     3.344851     -0.023786  KCAL/ANGSTROM
     62         21  H    CARTESIAN Y     1.070284     -0.102105  KCAL/ANGSTROM
     63         21  H    CARTESIAN Z    -0.963380      0.131777  KCAL/ANGSTROM
     64         22  H    CARTESIAN X     1.208730     -0.259818  KCAL/ANGSTROM
     65         22  H    CARTESIAN Y     0.498374      0.179123  KCAL/ANGSTROM
     66         22  H    CARTESIAN Z    -2.480351     -0.053846  KCAL/ANGSTROM
     67         23  H    CARTESIAN X     1.009771     -0.052064  KCAL/ANGSTROM
     68         23  H    CARTESIAN Y    -1.926135      0.156950  KCAL/ANGSTROM
     69         23  H    CARTESIAN Z    -1.382383     -0.052747  KCAL/ANGSTROM




   ATOM   CHEMICAL          X               Y               Z
  NUMBER   SYMBOL      (ANGSTROMS)     (ANGSTROMS)     (ANGSTROMS)

     1       C         -2.72731210  *   0.45433419  *  -0.00475578  *
     2       C         -1.38398837  *   0.36305459  *  -0.72388580  *
     3       C         -0.59500722  *  -0.84107709  *  -0.24128593  *
     4       C         -0.02014763  *  -0.74131101  *   1.19961244  *
     5       C          1.44852508  *  -0.95786334  *   0.64854708  *
     6       C          2.27317605  *   0.22674327  *   0.72043467  *
     7       C          2.29693411  *   0.95097057  *  -0.54354120  *
     8       C          1.41415685  *   0.20199357  *  -1.47426097  *
     9       C          0.85412470  *  -0.98968748  *  -0.81801164  *
    10       H         -2.61030297  *   0.61802188  *   1.07190520  *
    11       H         -3.33231338  *   1.28559198  *  -0.39557921  *
    12       H         -3.32541130  *  -0.45706536  *  -0.13787855  *
    13       H         -0.81586023  *   1.30181741  *  -0.58781669  *
    14       H         -1.55513452  *   0.27788283  *  -1.81990113  *
    15       H         -1.18909157  *  -1.76772745  *  -0.38986930  *
    16       H         -0.19602217  *   0.21218217  *   1.70580235  *
    17       H         -0.33667305  *  -1.54868112  *   1.87609968  *
    18       H          1.89280843  *  -1.89597126  *   1.03960508  *
    19       H          2.82054065  *   0.54468965  *   1.61568630  *
    20       H          2.01688912  *   2.04259484  *  -0.45379708  *
    21       H          3.34485142  *   1.07028359  *  -0.96338034  *
    22       H          1.20872977  *   0.49837365  *  -2.48035108  *
    23       H          1.00977122  *  -1.92613451  *  -1.38238318  *

                             CARTESIAN COORDINATES

   1    C       -2.727312103     0.454334192    -0.004755783
   2    C       -1.383988366     0.363054592    -0.723885802
   3    C       -0.595007224    -0.841077086    -0.241285934
   4    C       -0.020147630    -0.741311010     1.199612440
   5    C        1.448525075    -0.957863342     0.648547082
   6    C        2.273176050     0.226743267     0.720434665
   7    C        2.296934113     0.950970568    -0.543541204
   8    C        1.414156855     0.201993570    -1.474260972
   9    C        0.854124703    -0.989687484    -0.818011645
  10    H       -2.610302967     0.618021884     1.071905199
  11    H       -3.332313383     1.285591980    -0.395579214
  12    H       -3.325411300    -0.457065356    -0.137878547
  13    H       -0.815860232     1.301817415    -0.587816686
  14    H       -1.555134520     0.277882828    -1.819901131
  15    H       -1.189091567    -1.767727454    -0.389869302
  16    H       -0.196022170     0.212182175     1.705802354
  17    H       -0.336673046    -1.548681116     1.876099680
  18    H        1.892808428    -1.895971264     1.039605076
  19    H        2.820540645     0.544689646     1.615686300
  20    H        2.016889116     2.042594840    -0.453797078
  21    H        3.344851417     1.070283591    -0.963380340
  22    H        1.208729770     0.498373648    -2.480351076
  23    H        1.009771216    -1.926134515    -1.382383182


           Empirical Formula: C9 H14  =    23 atoms



      MOLECULAR POINT GROUP   :   C1  


          ALPHA EIGENVALUES  
 -37.04773 -33.11946 -30.78688 -29.79485 -27.56527 -26.10288 -24.61349 -23.73659
 -22.88663 -22.04317 -21.16737 -19.81145 -19.54842 -18.93837 -18.55758 -18.34126
 -17.81357 -17.58702 -17.07984 -16.49044 -16.04935 -15.65952 -15.23206 -14.89698
 -13.47455  -6.98137  -2.43742  -2.06365  -1.78824  -1.44263  -1.09862  -0.86029
  -0.48512  -0.45252  -0.04962   0.31557   0.50260   0.61698   0.72861   1.18170
   1.31615   1.68036   1.85489   1.91657   2.04197   2.32988   2.84334   2.93144
   3.11837   4.02323


           BETA EIGENVALUES 
 -36.98987 -33.08189 -30.74796 -29.67407 -27.53360 -26.03175 -24.51372 -23.68091
 -22.80696 -21.98268 -21.03395 -19.70851 -19.50068 -18.88952 -18.43314 -18.25644
 -17.70229 -17.51981 -17.03051 -16.43906 -16.03121 -15.49780 -15.19268 -14.89276
  -6.91101  -4.04542  -2.42149  -2.03206  -1.78795  -1.41362  -0.94373  -0.75684
  -0.41035  -0.35544   0.20641   0.34494   0.55152   0.69572   0.74237   1.19460
   1.32116   1.72875   1.85906   2.04014   2.11934   2.33573   2.84394   2.93171
   3.12022   4.02349


              NET ATOMIC CHARGES AND DIPOLE CONTRIBUTIONS

  ATOM NO.   TYPE          CHARGE      No. of ELECS.   s-Pop       p-Pop       
    1          C          -0.436046        4.4360     1.05133     3.38472
    2          C          -0.272861        4.2729     1.05564     3.21722
    3          C          -0.090954        4.0910     1.08052     3.01043
    4          C          -0.212923        4.2129     1.08559     3.12733
    5          C          -0.310400        4.3104     1.09139     3.21901
    6          C           0.396179        3.6038     1.20515     2.39867
    7          C          -0.393575        4.3936     1.06708     3.32649
    8          C          -0.157618        4.1576     1.11716     3.04046
    9          C          -0.118094        4.1181     1.08100     3.03709
   10          H           0.145225        0.8548     0.85478
   11          H           0.167266        0.8327     0.83273
   12          H           0.161799        0.8382     0.83820
   13          H           0.133252        0.8667     0.86675
   14          H           0.163130        0.8369     0.83687
   15          H           0.172170        0.8278     0.82783
   16          H           0.160556        0.8394     0.83944
   17          H           0.181624        0.8184     0.81838
   18          H           0.228347        0.7717     0.77165
   19          H           0.182142        0.8179     0.81786
   20          H           0.256486        0.7435     0.74351
   21          H           0.266299        0.7337     0.73370
   22          H           0.188317        0.8117     0.81168
   23          H           0.189679        0.8103     0.81032
 DIPOLE           X         Y         Z       TOTAL
 POINT-CHG.     5.506     1.276     1.894     5.961
 HYBRID         0.796     0.253     0.415     0.933
 SUM            6.301     1.530     2.310     6.883


          ATOMIC ORBITAL ELECTRON POPULATIONS

     Atom    s        px        py        pz   
    1  C   1.05133   1.04504   1.19831   1.14137
    2  C   1.05564   1.03873   1.04457   1.13391
    3  C   1.08052   0.96624   1.11107   0.93313
    4  C   1.08559   0.86110   1.18923   1.07700
    5  C   1.09139   1.03235   1.06020   1.12646
    6  C   1.20515   0.58882   0.83118   0.97867
    7  C   1.06708   1.16676   1.13561   1.02413
    8  C   1.11716   0.99503   0.98587   1.05956
    9  C   1.08100   1.02197   1.08305   0.93207
   10  H   0.85478
   11  H   0.83273
   12  H   0.83820
   13  H   0.86675
   14  H   0.83687
   15  H   0.82783
   16  H   0.83944
   17  H   0.81838
   18  H   0.77165
   19  H   0.81786
   20  H   0.74351
   21  H   0.73370
   22  H   0.81168
   23  H   0.81032


                    (SZ)    =    0.500000
                    (S**2)  =    0.754258


          ATOMIC ORBITAL SPIN POPULATIONS

    Atom   Total    s     px     py     pz   
         Atomic
    1  C  0.0004  0.000  0.000  0.000  0.000
    2  C -0.0008 -0.000 -0.000 -0.000 -0.000
    3  C  0.0544  0.008  0.032  0.002  0.013
    4  C  0.0021  0.000  0.002 -0.000 -0.000
    5  C  0.0056  0.001  0.003 -0.000  0.002
    6  C  0.0248  0.001  0.015  0.006  0.003
    7  C -0.0437 -0.006 -0.016 -0.010 -0.012
    8  C  0.9931  0.026  0.565  0.286  0.115
    9  C -0.0554 -0.007 -0.021 -0.021 -0.006
   10  H -0.0000 -0.000
   11  H  0.0000  0.000
   12  H  0.0001  0.000
   13  H -0.0003 -0.000
   14  H  0.0001  0.000
   15  H -0.0009 -0.001
   16  H  0.0000  0.000
   17  H  0.0005  0.000
   18  H  0.0013  0.001
   19  H -0.0010 -0.001
   20  H  0.0127  0.013
   21  H  0.0134  0.013
   22  H -0.0270 -0.027
   23  H  0.0206  0.021

 **********************
 *                    *
 * JOB ENDED NORMALLY *
 *                    *
 **********************



 TOTAL JOB TIME:             1.59 SECONDS

 == MOPAC DONE ==
