 *******************************************************************************
 **                                                                           **
 **                              MOPAC v23.2                                  **
 **                                                                           **
 *******************************************************************************
 **          Digital Object Identifier (DOI): 10.5281/zenodo.6511958          **
 **    Visit the DOI location for information on how to cite this program.    **
 *******************************************************************************

                              PM7 CALCULATION RESULTS

 *******************************************************************************
 *  CALCULATION DONE: (MAX THREADS = 40)             Fri Sep 19 21:39:25 2025  *
 *  PM7        - The PM7 Hamiltonian to be used
 *
 *
 *
 *                 CHARGE ON SYSTEM = +1
 *
 *
 *
 *  EPS=37.5   - USE ANDREAS KLAMT'S COSMO IMPLICIT SOLVATION MODEL
 *  1SCF       - DO 1 SCF AND THEN STOP 
 *  T=         - A TIME OF 172800.0 SECONDS REQUESTED
 *  DUMP=N     - RESTART FILE WRITTEN EVERY 7200.0 SECONDS REQUESTED
 *  RELSCF     - DEFAULT SCF CRITERION MULTIPLIED BY 0.0001
 *              (DEFAULT SCF CRITERION = 0.00010)
 *  GRADIENTS  - ALL GRADIENTS TO BE PRINTED
 *  DISP       - PRINT DISPERSION AND HYDROGEN BOND ENERGIES
 *******************************************************************************
PM7 1SCF GRADIENTS EPS=37.5 DISP RELSCF=0.0001 CHARGE=1
 Title: ASE calculation

   ATOM   CHEMICAL          X               Y               Z
  NUMBER   SYMBOL      (ANGSTROMS)     (ANGSTROMS)     (ANGSTROMS)

     1       N         -0.75982739  *  -1.27624094  *   1.08762491  *
     2       C         -0.69163921  *  -0.49350692  *   0.01574392  *
     3       N         -1.61521297  *  -0.46631395  *  -1.04737207  *
     4       N         -1.25671278  *   0.43809693  *  -1.97439855  *
     5       C         -0.09310416  *   1.03888470  *  -1.56536195  *
     6       C          0.32538529  *   0.51233207  *  -0.33080603  *
     7       C          1.50797481  *   0.86425551  *   0.47280173  *
     8       O          1.44555520  *   0.07096709  *   1.64476144  *
     9       H         -1.50282403  *  -1.94188638  *   1.24867674  *
    10       H         -0.02590680  *  -1.20245266  *   1.80545196  *
    11       H         -2.45910906  *  -1.01336808  *  -1.18703425  *
    12       H          0.37456004  *   1.80917967  *  -2.17488157  *
    13       H          1.49807770  *   1.94188638  *   0.77548998  *
    14       H          2.45910906  *   0.64965997  *  -0.07273002  *
    15       H          2.27313016  *   0.14818694  *   2.17488157  *



          CARTESIAN COORDINATES 

    NO.       ATOM           X           Y           Z

     1         N         -0.7598     -1.2762      1.0876
     2         C         -0.6916     -0.4935      0.0157
     3         N         -1.6152     -0.4663     -1.0474
     4         N         -1.2567      0.4381     -1.9744
     5         C         -0.0931      1.0389     -1.5654
     6         C          0.3254      0.5123     -0.3308
     7         C          1.5080      0.8643      0.4728
     8         O          1.4456      0.0710      1.6448
     9         H         -1.5028     -1.9419      1.2487
    10         H         -0.0259     -1.2025      1.8055
    11         H         -2.4591     -1.0134     -1.1870
    12         H          0.3746      1.8092     -2.1749
    13         H          1.4981      1.9419      0.7755
    14         H          2.4591      0.6497     -0.0727
    15         H          2.2731      0.1482      2.1749

 General Reference for PM7:
 "Optimization of Parameters for Semiempirical Methods VI: More Modifications to the 
 NDDO Approximations and Re-optimization of Parameters", J. J. P. Stewart, J. Mol. Mod., 1:32, 19 (2013)
 https://link.springer.com/article/10.1007/s00894-012-1667-x

           Empirical Formula: C4 H7 N3 O  =    15 atoms



      MOLECULAR POINT GROUP   :   C1  


          UHF CALCULATION, NO. OF ALPHA ELECTRONS =   22
                           NO. OF BETA  ELECTRONS =   21
  SCF CRITERION =    0.1000E-07

 -------------------------------------------------------------------------------
 PM7 1SCF GRADIENTS EPS=37.5 DISP RELSCF=0.0001 CHARGE=1
 Title: ASE calculation



     1SCF WAS SPECIFIED, SO BFGS WAS NOT USED                 
     SCF FIELD WAS ACHIEVED                                   


                              PM7 CALCULATION
                                                       MOPAC v23.2 Linux
                                                       Fri Sep 19 21:39:26 2025




          FINAL HEAT OF FORMATION =        115.87641 KCAL/MOL =     484.82688 KJ/MOL

          TOTAL ENERGY            =     -33065.14920 KCAL/MOL = ELECTRONIC ENERGY + CORE-CORE REPULSION + SOLVATION ENERGY
          ENERGY OF ATOMS         =      33183.33343 KCAL/MOL
                              SUM =        118.18424 KCAL/MOL
          DISPERSION ENERGY       =         -1.50018 KCAL/MOL
          H-BOND ENERGY           =         -0.80765 KCAL/MOL
                              SUM =        115.87641 KCAL/MOL = FINAL HEAT OF FORMATION

          VAN DER WAALS AREA      =        140.52 SQUARE ANGSTROMS


          TOTAL ENERGY            =      -1433.84058 EV
          ELECTRONIC ENERGY       =      -1866.07045 EV 
          CORE-CORE REPULSION     =        432.22988 EV

          DIELECTRIC ENERGY       =         -2.84314 EV
          COSMO AREA              =        140.52 SQUARE ANGSTROMS
          COSMO VOLUME            =        130.57 CUBIC ANGSTROMS

          GRADIENT NORM           =         21.32586          =       5.50631 PER ATOM
          IONIZATION POTENTIAL    =         10.338875 EV
          ALPHA SOMO LUMO (EV)    =        -10.339 -0.747
          BETA  SOMO LUMO (EV)    =        -10.750 -2.654
          NO. OF ALPHA ELECTRONS  =         22
          NO. OF BETA  ELECTRONS  =         21
          MOLECULAR WEIGHT        =        113.1188         POINT GROUP:  C1  

          MOLECULAR DIMENSIONS (Angstroms)

            Atom       Atom       Distance
            H    15    H    11     5.91995
            H    12    H     9     5.40650
            H    14    H    13     1.81963


          SCF CALCULATIONS        =          2

          WALL-CLOCK TIME         =      1.258 SECONDS
          COMPUTATION TIME        =      0.744 SECONDS

          LARGEST ATOMIC GRADIENTS

          Atom     Label                     Cartesian Gradients           Cartesian Coordinates       |Gradient|
                                           X          Y          Z        X          Y          Z

             3       N                  -2.875     -7.161      7.556   -1.61521   -0.46631   -1.04737     10.800
             4       N                   3.986      7.393     -5.947   -1.25671    0.43810   -1.97440     10.291
             1       N                  -3.153     -6.880      5.750   -0.75983   -1.27624    1.08762      9.505
            11       H                   2.497      3.690     -3.178   -2.45911   -1.01337   -1.18703      5.473
             5       C                  -4.532     -2.116     -1.976   -0.09310    1.03888   -1.56536      5.378
             6       C                   3.542      1.850      1.074    0.32539    0.51233   -0.33081      4.138
            10       H                   2.865      2.883      0.444   -0.02591   -1.20245    1.80545      4.089
             2       C                  -3.447     -1.648     -1.378   -0.69164   -0.49351    0.01574      4.062
             9       H                   2.407      2.555     -0.616   -1.50282   -1.94189    1.24868      3.564
            15       H                  -2.076     -0.126      0.290    2.27313    0.14819    2.17488      2.100



       FINAL  POINT  AND  DERIVATIVES

   PARAMETER     ATOM    TYPE            VALUE        GRADIENT
      1          1  N    CARTESIAN X    -0.759827     -3.152790  KCAL/ANGSTROM
      2          1  N    CARTESIAN Y    -1.276241     -6.880303  KCAL/ANGSTROM
      3          1  N    CARTESIAN Z     1.087625      5.749782  KCAL/ANGSTROM
      4          2  C    CARTESIAN X    -0.691639     -3.447060  KCAL/ANGSTROM
      5          2  C    CARTESIAN Y    -0.493507     -1.648243  KCAL/ANGSTROM
      6          2  C    CARTESIAN Z     0.015744     -1.377912  KCAL/ANGSTROM
      7          3  N    CARTESIAN X    -1.615213     -2.874722  KCAL/ANGSTROM
      8          3  N    CARTESIAN Y    -0.466314     -7.161266  KCAL/ANGSTROM
      9          3  N    CARTESIAN Z    -1.047372      7.555954  KCAL/ANGSTROM
     10          4  N    CARTESIAN X    -1.256713      3.985667  KCAL/ANGSTROM
     11          4  N    CARTESIAN Y     0.438097      7.393390  KCAL/ANGSTROM
     12          4  N    CARTESIAN Z    -1.974399     -5.946991  KCAL/ANGSTROM
     13          5  C    CARTESIAN X    -0.093104     -4.531743  KCAL/ANGSTROM
     14          5  C    CARTESIAN Y     1.038885     -2.116238  KCAL/ANGSTROM
     15          5  C    CARTESIAN Z    -1.565362     -1.975751  KCAL/ANGSTROM
     16          6  C    CARTESIAN X     0.325385      3.542365  KCAL/ANGSTROM
     17          6  C    CARTESIAN Y     0.512332      1.849875  KCAL/ANGSTROM
     18          6  C    CARTESIAN Z    -0.330806      1.073716  KCAL/ANGSTROM
     19          7  C    CARTESIAN X     1.507975      0.593938  KCAL/ANGSTROM
     20          7  C    CARTESIAN Y     0.864256     -0.543130  KCAL/ANGSTROM
     21          7  C    CARTESIAN Z     0.472802      0.972242  KCAL/ANGSTROM
     22          8  O    CARTESIAN X     1.445555      0.653187  KCAL/ANGSTROM
     23          8  O    CARTESIAN Y     0.070967     -1.773586  KCAL/ANGSTROM
     24          8  O    CARTESIAN Z     1.644761     -0.862785  KCAL/ANGSTROM
     25          9  H    CARTESIAN X    -1.502824      2.407306  KCAL/ANGSTROM
     26          9  H    CARTESIAN Y    -1.941886      2.555149  KCAL/ANGSTROM
     27          9  H    CARTESIAN Z     1.248677     -0.615701  KCAL/ANGSTROM
     28         10  H    CARTESIAN X    -0.025907      2.865489  KCAL/ANGSTROM
     29         10  H    CARTESIAN Y    -1.202453      2.883400  KCAL/ANGSTROM
     30         10  H    CARTESIAN Z     1.805452      0.444465  KCAL/ANGSTROM
     31         11  H    CARTESIAN X    -2.459109      2.496547  KCAL/ANGSTROM
     32         11  H    CARTESIAN Y    -1.013368      3.690006  KCAL/ANGSTROM
     33         11  H    CARTESIAN Z    -1.187034     -3.178150  KCAL/ANGSTROM
     34         12  H    CARTESIAN X     0.374560     -0.125220  KCAL/ANGSTROM
     35         12  H    CARTESIAN Y     1.809180      1.087862  KCAL/ANGSTROM
     36         12  H    CARTESIAN Z    -2.174882     -1.760191  KCAL/ANGSTROM
     37         13  H    CARTESIAN X     1.498078     -0.901588  KCAL/ANGSTROM
     38         13  H    CARTESIAN Y     1.941886      1.517487  KCAL/ANGSTROM
     39         13  H    CARTESIAN Z     0.775490      0.632140  KCAL/ANGSTROM
     40         14  H    CARTESIAN X     2.459109      0.564920  KCAL/ANGSTROM
     41         14  H    CARTESIAN Y     0.649660     -0.727975  KCAL/ANGSTROM
     42         14  H    CARTESIAN Z    -0.072730     -1.000934  KCAL/ANGSTROM
     43         15  H    CARTESIAN X     2.273130     -2.076251  KCAL/ANGSTROM
     44         15  H    CARTESIAN Y     0.148187     -0.126396  KCAL/ANGSTROM
     45         15  H    CARTESIAN Z     2.174882      0.290088  KCAL/ANGSTROM




   ATOM   CHEMICAL          X               Y               Z
  NUMBER   SYMBOL      (ANGSTROMS)     (ANGSTROMS)     (ANGSTROMS)

     1       N         -0.75982739  *  -1.27624094  *   1.08762491  *
     2       C         -0.69163921  *  -0.49350692  *   0.01574392  *
     3       N         -1.61521297  *  -0.46631395  *  -1.04737207  *
     4       N         -1.25671278  *   0.43809693  *  -1.97439855  *
     5       C         -0.09310416  *   1.03888470  *  -1.56536195  *
     6       C          0.32538529  *   0.51233207  *  -0.33080603  *
     7       C          1.50797481  *   0.86425551  *   0.47280173  *
     8       O          1.44555520  *   0.07096709  *   1.64476144  *
     9       H         -1.50282403  *  -1.94188638  *   1.24867674  *
    10       H         -0.02590680  *  -1.20245266  *   1.80545196  *
    11       H         -2.45910906  *  -1.01336808  *  -1.18703425  *
    12       H          0.37456004  *   1.80917967  *  -2.17488157  *
    13       H          1.49807770  *   1.94188638  *   0.77548998  *
    14       H          2.45910906  *   0.64965997  *  -0.07273002  *
    15       H          2.27313016  *   0.14818694  *   2.17488157  *

                             CARTESIAN COORDINATES

   1    N       -0.759827392    -1.276240936     1.087624912
   2    C       -0.691639214    -0.493506921     0.015743920
   3    N       -1.615212966    -0.466313953    -1.047372065
   4    N       -1.256712776     0.438096929    -1.974398546
   5    C       -0.093104158     1.038884698    -1.565361951
   6    C        0.325385291     0.512332071    -0.330806035
   7    C        1.507974810     0.864255507     0.472801731
   8    O        1.445555203     0.070967086     1.644761441
   9    H       -1.502824032    -1.941886377     1.248676740
  10    H       -0.025906799    -1.202452656     1.805451965
  11    H       -2.459109058    -1.013368082    -1.187034251
  12    H        0.374560044     1.809179673    -2.174881574
  13    H        1.498077698     1.941886377     0.775489979
  14    H        2.459109058     0.649659973    -0.072730024
  15    H        2.273130164     0.148186938     2.174881574


           Empirical Formula: C4 H7 N3 O  =    15 atoms



      MOLECULAR POINT GROUP   :   C1  


          ALPHA EIGENVALUES  
 -41.38215 -38.50308 -31.42966 -30.13836 -28.39916 -24.94057 -22.68378 -21.45027
 -20.06740 -18.47001 -17.90214 -17.35098 -16.60362 -15.86634 -15.77106 -15.13371
 -14.32452 -13.28851 -13.00421 -12.02424 -10.93133 -10.33888  -0.74670  -0.19172
   0.23764   1.30080   1.52095   2.12635   2.52386   3.15504   3.62617   4.10829
   4.73286   4.85023   5.12585   5.15214   5.45135   5.56854   5.78576


           BETA EIGENVALUES 
 -41.06097 -37.46960 -31.08443 -30.04073 -28.14211 -24.85257 -22.59173 -21.25685
 -19.94552 -18.37536 -17.66695 -16.80935 -16.48800 -15.73235 -15.57482 -15.08803
 -13.22647 -12.64391 -12.60072 -11.83304 -10.75007  -2.65377   0.17078   0.37349
   0.39019   1.47567   1.64660   2.30884   2.60647   3.30246   3.68809   4.23864
   4.90284   4.94865   5.10411   5.18396   5.48878   5.60124   5.92571


              NET ATOMIC CHARGES AND DIPOLE CONTRIBUTIONS

  ATOM NO.   TYPE          CHARGE      No. of ELECS.   s-Pop       p-Pop       
    1          N          -0.205564        5.2056     1.49972     3.70585
    2          C           0.224648        3.7754     1.06185     2.71350
    3          N          -0.208460        5.2085     1.52669     3.68177
    4          N          -0.169379        5.1694     1.78677     3.38261
    5          C          -0.086153        4.0862     1.10482     2.98133
    6          C          -0.051519        4.0515     1.09750     2.95402
    7          C           0.028678        3.9713     1.07800     2.89332
    8          O          -0.638469        6.6385     1.83973     4.79874
    9          H           0.360921        0.6391     0.63908
   10          H           0.369728        0.6303     0.63027
   11          H           0.398520        0.6015     0.60148
   12          H           0.229155        0.7708     0.77085
   13          H           0.178631        0.8214     0.82137
   14          H           0.178240        0.8218     0.82176
   15          H           0.391022        0.6090     0.60898
 DIPOLE           X         Y         Z       TOTAL
 POINT-CHG.    -0.379    -3.036     3.383     4.561
 HYBRID        -0.128    -0.930     1.155     1.489
 SUM           -0.507    -3.966     4.538     6.048


          ATOMIC ORBITAL ELECTRON POPULATIONS

     Atom    s        px        py        pz   
    1  N   1.49972   1.28701   1.24214   1.17670
    2  C   1.06185   0.92143   0.94842   0.84366
    3  N   1.52669   1.25850   1.29355   1.12972
    4  N   1.78677   1.19162   1.04152   1.14948
    5  C   1.10482   0.93416   1.05071   0.99647
    6  C   1.09750   0.98904   0.96838   0.99661
    7  C   1.07800   1.02560   1.02551   0.84222
    8  O   1.83973   1.57852   1.75040   1.46982
    9  H   0.63908
   10  H   0.63027
   11  H   0.60148
   12  H   0.77085
   13  H   0.82137
   14  H   0.82176
   15  H   0.60898


                    (SZ)    =    0.500000
                    (S**2)  =    0.896209


          ATOMIC ORBITAL SPIN POPULATIONS

    Atom   Total    s     px     py     pz   
         Atomic
    1  N  0.5642  0.024  0.156  0.255  0.130
    2  C -0.1400 -0.013 -0.035 -0.058 -0.035
    3  N  0.0024 -0.002  0.003  0.001 -0.000
    4  N  0.4279  0.008  0.124  0.198  0.098
    5  C -0.3132 -0.012 -0.091 -0.136 -0.074
    6  C  0.4800  0.014  0.133  0.220  0.113
    7  C -0.0172 -0.003 -0.010 -0.001 -0.003
    8  O  0.0014 -0.000  0.000  0.001  0.001
    9  H -0.0233 -0.023
   10  H -0.0236 -0.024
   11  H -0.0009 -0.001
   12  H  0.0080  0.008
   13  H  0.0174  0.017
   14  H  0.0175  0.018
   15  H -0.0006 -0.001

 **********************
 *                    *
 * JOB ENDED NORMALLY *
 *                    *
 **********************



 TOTAL JOB TIME:             1.58 SECONDS

 == MOPAC DONE ==
