 *******************************************************************************
 **                                                                           **
 **                              MOPAC v23.2                                  **
 **                                                                           **
 *******************************************************************************
 **          Digital Object Identifier (DOI): 10.5281/zenodo.6511958          **
 **    Visit the DOI location for information on how to cite this program.    **
 *******************************************************************************

                              PM7 CALCULATION RESULTS

 *******************************************************************************
 *  CALCULATION DONE: (MAX THREADS = 40)             Fri Sep 19 21:57:34 2025  *
 *  PM7        - The PM7 Hamiltonian to be used
 *
 *
 *
 *                 CHARGE ON SYSTEM = +1
 *
 *
 *
 *  EPS=37.5   - USE ANDREAS KLAMT'S COSMO IMPLICIT SOLVATION MODEL
 *  1SCF       - DO 1 SCF AND THEN STOP 
 *  T=         - A TIME OF 172800.0 SECONDS REQUESTED
 *  DUMP=N     - RESTART FILE WRITTEN EVERY 7200.0 SECONDS REQUESTED
 *  RELSCF     - DEFAULT SCF CRITERION MULTIPLIED BY 0.0001
 *              (DEFAULT SCF CRITERION = 0.00010)
 *  GRADIENTS  - ALL GRADIENTS TO BE PRINTED
 *  DISP       - PRINT DISPERSION AND HYDROGEN BOND ENERGIES
 *******************************************************************************
PM7 1SCF GRADIENTS EPS=37.5 DISP RELSCF=0.0001 CHARGE=1
 Title: ASE calculation

   ATOM   CHEMICAL          X               Y               Z
  NUMBER   SYMBOL      (ANGSTROMS)     (ANGSTROMS)     (ANGSTROMS)

     1       C          1.91977723  *  -1.99016330  *  -0.18989346  *
     2       C          1.17684151  *  -0.75378606  *  -0.40835690  *
     3       C          1.76187226  *   0.47993487  *  -0.54130521  *
     4       C          0.98161079  *   1.62928915  *  -0.67037329  *
     5       O         -0.33288622  *   1.62167711  *  -0.64529668  *
     6       C         -1.01607182  *   0.44655837  *  -0.54042636  *
     7       C         -2.44837965  *   0.66269885  *  -0.46016217  *
     8       C         -0.32971178  *  -0.86649799  *  -0.49882283  *
     9       O         -0.82771459  *  -1.67561509  *   0.53359973  *
    10       H          1.98519304  *  -2.61091885  *  -1.11275841  *
    11       H          1.43177755  *  -2.66518655  *   0.55072111  *
    12       H          2.96360375  *  -1.84422687  *   0.14590083  *
    13       H          2.85834508  *   0.58841241  *  -0.52999103  *
    14       H          1.34078877  *   2.66518655  *  -0.78645020  *
    15       H         -2.93079469  *   0.01727428  *   0.30684082  *
    16       H         -2.96360375  *   0.41339654  *  -1.41547797  *
    17       H         -2.73896768  *   1.70733264  *  -0.22954371  *
    18       H         -0.61345918  *  -1.48318658  *  -1.41553107  *
    19       H         -0.76994633  *  -1.22965048  *   1.41553107  *



          CARTESIAN COORDINATES 

    NO.       ATOM           X           Y           Z

     1         C          1.9198     -1.9902     -0.1899
     2         C          1.1768     -0.7538     -0.4084
     3         C          1.7619      0.4799     -0.5413
     4         C          0.9816      1.6293     -0.6704
     5         O         -0.3329      1.6217     -0.6453
     6         C         -1.0161      0.4466     -0.5404
     7         C         -2.4484      0.6627     -0.4602
     8         C         -0.3297     -0.8665     -0.4988
     9         O         -0.8277     -1.6756      0.5336
    10         H          1.9852     -2.6109     -1.1128
    11         H          1.4318     -2.6652      0.5507
    12         H          2.9636     -1.8442      0.1459
    13         H          2.8583      0.5884     -0.5300
    14         H          1.3408      2.6652     -0.7865
    15         H         -2.9308      0.0173      0.3068
    16         H         -2.9636      0.4134     -1.4155
    17         H         -2.7390      1.7073     -0.2295
    18         H         -0.6135     -1.4832     -1.4155
    19         H         -0.7699     -1.2297      1.4155

 General Reference for PM7:
 "Optimization of Parameters for Semiempirical Methods VI: More Modifications to the 
 NDDO Approximations and Re-optimization of Parameters", J. J. P. Stewart, J. Mol. Mod., 1:32, 19 (2013)
 https://link.springer.com/article/10.1007/s00894-012-1667-x

           Empirical Formula: C7 H10 O2  =    19 atoms



      MOLECULAR POINT GROUP   :   C1  


          UHF CALCULATION, NO. OF ALPHA ELECTRONS =   25
                           NO. OF BETA  ELECTRONS =   24
  SCF CRITERION =    0.1000E-07

 -------------------------------------------------------------------------------
 PM7 1SCF GRADIENTS EPS=37.5 DISP RELSCF=0.0001 CHARGE=1
 Title: ASE calculation



     1SCF WAS SPECIFIED, SO BFGS WAS NOT USED                 
     SCF FIELD WAS ACHIEVED                                   


                              PM7 CALCULATION
                                                       MOPAC v23.2 Linux
                                                       Fri Sep 19 21:57:36 2025




          FINAL HEAT OF FORMATION =         63.95095 KCAL/MOL =     267.57075 KJ/MOL

          TOTAL ENERGY            =     -36416.48374 KCAL/MOL = ELECTRONIC ENERGY + CORE-CORE REPULSION + SOLVATION ENERGY
          ENERGY OF ATOMS         =      36482.50324 KCAL/MOL
                              SUM =         66.01950 KCAL/MOL
          DISPERSION ENERGY       =         -2.06856 KCAL/MOL
                              SUM =         63.95095 KCAL/MOL = FINAL HEAT OF FORMATION

          VAN DER WAALS AREA      =        162.00 SQUARE ANGSTROMS


          TOTAL ENERGY            =      -1579.16820 EV
          ELECTRONIC ENERGY       =      -2317.66947 EV 
          CORE-CORE REPULSION     =        738.50127 EV

          DIELECTRIC ENERGY       =         -2.32025 EV
          COSMO AREA              =        162.00 SQUARE ANGSTROMS
          COSMO VOLUME            =        159.44 CUBIC ANGSTROMS

          GRADIENT NORM           =         14.62573          =       3.35537 PER ATOM
          IONIZATION POTENTIAL    =          9.478206 EV
          ALPHA SOMO LUMO (EV)    =         -9.478 -2.273
          BETA  SOMO LUMO (EV)    =        -11.664 -2.354
          NO. OF ALPHA ELECTRONS  =         25
          NO. OF BETA  ELECTRONS  =         24
          MOLECULAR WEIGHT        =        126.1548         POINT GROUP:  C1  

          MOLECULAR DIMENSIONS (Angstroms)

            Atom       Atom       Distance
            H    17    H    12     6.72858
            H    14    O     9     5.00097
            H    19    H    18     2.77922


          SCF CALCULATIONS        =          2

          WALL-CLOCK TIME         =      2.445 SECONDS
          COMPUTATION TIME        =      1.050 SECONDS

          LARGEST ATOMIC GRADIENTS

          Atom     Label                     Cartesian Gradients           Cartesian Coordinates       |Gradient|
                                           X          Y          Z        X          Y          Z

             3       C                   0.504      6.790     -0.253    1.76187    0.47993   -0.54131      6.813
             7       C                   5.288      1.263      0.029   -2.44838    0.66270   -0.46016      5.437
             5       O                  -4.085     -3.214      0.447   -0.33289    1.62168   -0.64530      5.217
             6       C                  -0.147      4.655     -1.013   -1.01607    0.44656   -0.54043      4.766
             1       C                  -0.894      3.776     -1.711    1.91978   -1.99016   -0.18989      4.241
             2       C                   0.253     -4.151     -0.622    1.17684   -0.75379   -0.40836      4.205
             4       C                   3.124     -0.202     -0.026    0.98161    1.62929   -0.67037      3.131
             8       C                   0.846     -0.344      2.531   -0.32971   -0.86650   -0.49882      2.691
            11       H                  -0.501     -2.046      1.032    1.43178   -2.66519    0.55072      2.345
            18       H                  -1.264     -1.505      1.054   -0.61346   -1.48319   -1.41553      2.231



       FINAL  POINT  AND  DERIVATIVES

   PARAMETER     ATOM    TYPE            VALUE        GRADIENT
      1          1  C    CARTESIAN X     1.919777     -0.894205  KCAL/ANGSTROM
      2          1  C    CARTESIAN Y    -1.990163      3.776328  KCAL/ANGSTROM
      3          1  C    CARTESIAN Z    -0.189893     -1.711474  KCAL/ANGSTROM
      4          2  C    CARTESIAN X     1.176842      0.252771  KCAL/ANGSTROM
      5          2  C    CARTESIAN Y    -0.753786     -4.151178  KCAL/ANGSTROM
      6          2  C    CARTESIAN Z    -0.408357     -0.622438  KCAL/ANGSTROM
      7          3  C    CARTESIAN X     1.761872      0.503803  KCAL/ANGSTROM
      8          3  C    CARTESIAN Y     0.479935      6.789546  KCAL/ANGSTROM
      9          3  C    CARTESIAN Z    -0.541305     -0.253328  KCAL/ANGSTROM
     10          4  C    CARTESIAN X     0.981611      3.124213  KCAL/ANGSTROM
     11          4  C    CARTESIAN Y     1.629289     -0.201634  KCAL/ANGSTROM
     12          4  C    CARTESIAN Z    -0.670373     -0.026004  KCAL/ANGSTROM
     13          5  O    CARTESIAN X    -0.332886     -4.084700  KCAL/ANGSTROM
     14          5  O    CARTESIAN Y     1.621677     -3.214029  KCAL/ANGSTROM
     15          5  O    CARTESIAN Z    -0.645297      0.446678  KCAL/ANGSTROM
     16          6  C    CARTESIAN X    -1.016072     -0.146669  KCAL/ANGSTROM
     17          6  C    CARTESIAN Y     0.446558      4.654701  KCAL/ANGSTROM
     18          6  C    CARTESIAN Z    -0.540426     -1.012650  KCAL/ANGSTROM
     19          7  C    CARTESIAN X    -2.448380      5.288036  KCAL/ANGSTROM
     20          7  C    CARTESIAN Y     0.662699      1.262958  KCAL/ANGSTROM
     21          7  C    CARTESIAN Z    -0.460162      0.029362  KCAL/ANGSTROM
     22          8  C    CARTESIAN X    -0.329712      0.846098  KCAL/ANGSTROM
     23          8  C    CARTESIAN Y    -0.866498     -0.343801  KCAL/ANGSTROM
     24          8  C    CARTESIAN Z    -0.498823      2.530972  KCAL/ANGSTROM
     25          9  O    CARTESIAN X    -0.827715      0.655112  KCAL/ANGSTROM
     26          9  O    CARTESIAN Y    -1.675615      1.032562  KCAL/ANGSTROM
     27          9  O    CARTESIAN Z     0.533600     -0.497405  KCAL/ANGSTROM
     28         10  H    CARTESIAN X     1.985193      0.408611  KCAL/ANGSTROM
     29         10  H    CARTESIAN Y    -2.610919     -1.602318  KCAL/ANGSTROM
     30         10  H    CARTESIAN Z    -1.112758      0.303883  KCAL/ANGSTROM
     31         11  H    CARTESIAN X     1.431778     -0.501175  KCAL/ANGSTROM
     32         11  H    CARTESIAN Y    -2.665187     -2.045606  KCAL/ANGSTROM
     33         11  H    CARTESIAN Z     0.550721      1.032012  KCAL/ANGSTROM
     34         12  H    CARTESIAN X     2.963604      0.933570  KCAL/ANGSTROM
     35         12  H    CARTESIAN Y    -1.844227     -0.669271  KCAL/ANGSTROM
     36         12  H    CARTESIAN Z     0.145901      0.329714  KCAL/ANGSTROM
     37         13  H    CARTESIAN X     2.858345      0.672072  KCAL/ANGSTROM
     38         13  H    CARTESIAN Y     0.588412     -0.427865  KCAL/ANGSTROM
     39         13  H    CARTESIAN Z    -0.529991      0.031734  KCAL/ANGSTROM
     40         14  H    CARTESIAN X     1.340789     -0.288191  KCAL/ANGSTROM
     41         14  H    CARTESIAN Y     2.665187     -1.567350  KCAL/ANGSTROM
     42         14  H    CARTESIAN Z    -0.786450      0.158960  KCAL/ANGSTROM
     43         15  H    CARTESIAN X    -2.930795     -1.654927  KCAL/ANGSTROM
     44         15  H    CARTESIAN Y     0.017274     -1.163323  KCAL/ANGSTROM
     45         15  H    CARTESIAN Z     0.306841      0.437227  KCAL/ANGSTROM
     46         16  H    CARTESIAN X    -2.963604     -1.672116  KCAL/ANGSTROM
     47         16  H    CARTESIAN Y     0.413397     -0.211800  KCAL/ANGSTROM
     48         16  H    CARTESIAN Z    -1.415478     -0.357152  KCAL/ANGSTROM
     49         17  H    CARTESIAN X    -2.738968     -1.623776  KCAL/ANGSTROM
     50         17  H    CARTESIAN Y     1.707333      0.924947  KCAL/ANGSTROM
     51         17  H    CARTESIAN Z    -0.229544     -0.222423  KCAL/ANGSTROM
     52         18  H    CARTESIAN X    -0.613459     -1.264259  KCAL/ANGSTROM
     53         18  H    CARTESIAN Y    -1.483187     -1.505259  KCAL/ANGSTROM
     54         18  H    CARTESIAN Z    -1.415531      1.054447  KCAL/ANGSTROM
     55         19  H    CARTESIAN X    -0.769946     -0.554267  KCAL/ANGSTROM
     56         19  H    CARTESIAN Y    -1.229650     -1.337607  KCAL/ANGSTROM
     57         19  H    CARTESIAN Z     1.415531     -1.652116  KCAL/ANGSTROM




   ATOM   CHEMICAL          X               Y               Z
  NUMBER   SYMBOL      (ANGSTROMS)     (ANGSTROMS)     (ANGSTROMS)

     1       C          1.91977723  *  -1.99016330  *  -0.18989346  *
     2       C          1.17684151  *  -0.75378606  *  -0.40835690  *
     3       C          1.76187226  *   0.47993487  *  -0.54130521  *
     4       C          0.98161079  *   1.62928915  *  -0.67037329  *
     5       O         -0.33288622  *   1.62167711  *  -0.64529668  *
     6       C         -1.01607182  *   0.44655837  *  -0.54042636  *
     7       C         -2.44837965  *   0.66269885  *  -0.46016217  *
     8       C         -0.32971178  *  -0.86649799  *  -0.49882283  *
     9       O         -0.82771459  *  -1.67561509  *   0.53359973  *
    10       H          1.98519304  *  -2.61091885  *  -1.11275841  *
    11       H          1.43177755  *  -2.66518655  *   0.55072111  *
    12       H          2.96360375  *  -1.84422687  *   0.14590083  *
    13       H          2.85834508  *   0.58841241  *  -0.52999103  *
    14       H          1.34078877  *   2.66518655  *  -0.78645020  *
    15       H         -2.93079469  *   0.01727428  *   0.30684082  *
    16       H         -2.96360375  *   0.41339654  *  -1.41547797  *
    17       H         -2.73896768  *   1.70733264  *  -0.22954371  *
    18       H         -0.61345918  *  -1.48318658  *  -1.41553107  *
    19       H         -0.76994633  *  -1.22965048  *   1.41553107  *

                             CARTESIAN COORDINATES

   1    C        1.919777233    -1.990163297    -0.189893456
   2    C        1.176841513    -0.753786057    -0.408356897
   3    C        1.761872259     0.479934871    -0.541305214
   4    C        0.981610786     1.629289153    -0.670373286
   5    O       -0.332886215     1.621677114    -0.645296683
   6    C       -1.016071822     0.446558373    -0.540426358
   7    C       -2.448379651     0.662698854    -0.460162167
   8    C       -0.329711781    -0.866497992    -0.498822828
   9    O       -0.827714591    -1.675615095     0.533599732
  10    H        1.985193040    -2.610918854    -1.112758413
  11    H        1.431777554    -2.665186553     0.550721113
  12    H        2.963603746    -1.844226869     0.145900833
  13    H        2.858345084     0.588412406    -0.529991028
  14    H        1.340788772     2.665186553    -0.786450205
  15    H       -2.930794688     0.017274284     0.306840821
  16    H       -2.963603746     0.413396538    -1.415477969
  17    H       -2.738967676     1.707332636    -0.229543710
  18    H       -0.613459180    -1.483186580    -1.415531071
  19    H       -0.769946334    -1.229650480     1.415531071


           Empirical Formula: C7 H10 O2  =    19 atoms



      MOLECULAR POINT GROUP   :   C1  


          ALPHA EIGENVALUES  
 -33.94227 -31.33018 -29.61138 -28.23467 -26.81360 -25.09307 -23.72422 -21.38232
 -19.65624 -18.79107 -17.81591 -17.60720 -16.47305 -15.85263 -15.47829 -15.04766
 -14.92572 -14.32546 -14.18879 -13.97424 -13.54167 -12.90444 -11.91101 -11.71386
  -9.47821  -2.27319  -0.04122   0.11085   1.70835   2.16271   2.29528   2.64099
   3.16213   3.44136   3.63869   3.77424   4.31849   4.42892   4.89613   5.00261
   5.08482   5.13749   5.29475   5.38919   6.19188   6.24479


           BETA EIGENVALUES 
 -34.13459 -31.24255 -29.52523 -28.05786 -26.80854 -25.02219 -23.66578 -21.28430
 -19.60466 -18.73289 -17.76763 -17.30257 -16.42239 -15.74139 -15.45946 -14.98675
 -14.75836 -14.17627 -14.10418 -13.91177 -13.52274 -12.84211 -11.80102 -11.66420
  -2.35355  -0.58748   0.13197   0.28005   1.91117   2.23736   2.49712   2.76253
   3.24023   3.55028   3.68419   3.95647   4.37992   4.47650   4.91410   5.09030
   5.10137   5.17233   5.29176   5.40761   6.19748   6.27827


              NET ATOMIC CHARGES AND DIPOLE CONTRIBUTIONS

  ATOM NO.   TYPE          CHARGE      No. of ELECS.   s-Pop       p-Pop       
    1          C          -0.508462        4.5085     1.05289     3.45557
    2          C           0.279105        3.7209     1.12401     2.59688
    3          C          -0.412170        4.4122     1.07864     3.33353
    4          C           0.323035        3.6770     1.17587     2.50109
    5          O          -0.111765        6.1118     1.84261     4.26916
    6          C           0.067189        3.9328     1.13043     2.80238
    7          C          -0.464672        4.4647     1.04679     3.41788
    8          C           0.051183        3.9488     1.08472     2.86410
    9          O          -0.548433        6.5484     1.85048     4.69795
   10          H           0.223743        0.7763     0.77626
   11          H           0.213440        0.7866     0.78656
   12          H           0.200172        0.7998     0.79983
   13          H           0.235788        0.7642     0.76421
   14          H           0.238490        0.7615     0.76151
   15          H           0.206060        0.7939     0.79394
   16          H           0.208285        0.7917     0.79172
   17          H           0.199637        0.8004     0.80036
   18          H           0.231518        0.7685     0.76848
   19          H           0.367856        0.6321     0.63214
 DIPOLE           X         Y         Z       TOTAL
 POINT-CHG.     2.778     2.460    -1.080     3.864
 HYBRID        -0.126     0.261     0.454     0.539
 SUM            2.652     2.721    -0.626     3.851


          ATOMIC ORBITAL ELECTRON POPULATIONS

     Atom    s        px        py        pz   
    1  C   1.05289   1.17338   1.06670   1.21549
    2  C   1.12401   0.97237   0.97120   0.65332
    3  C   1.07864   1.14904   0.98799   1.19649
    4  C   1.17587   0.78985   1.06657   0.64467
    5  O   1.84261   1.26400   1.38976   1.61539
    6  C   1.13043   0.93058   0.82702   1.04479
    7  C   1.04679   0.98832   1.21690   1.21266
    8  C   1.08472   0.93943   0.95288   0.97179
    9  O   1.85048   1.86238   1.50706   1.32852
   10  H   0.77626
   11  H   0.78656
   12  H   0.79983
   13  H   0.76421
   14  H   0.76151
   15  H   0.79394
   16  H   0.79172
   17  H   0.80036
   18  H   0.76848
   19  H   0.63214


                    (SZ)    =    0.500000
                    (S**2)  =    0.772792


          ATOMIC ORBITAL SPIN POPULATIONS

    Atom   Total    s     px     py     pz   
         Atomic
    1  C -0.0031 -0.001 -0.001 -0.003  0.002
    2  C  0.1262  0.004  0.006  0.007  0.109
    3  C -0.0597 -0.003 -0.003 -0.006 -0.048
    4  C  0.1260  0.004  0.007  0.005  0.110
    5  O -0.0823 -0.002 -0.007 -0.019 -0.053
    6  C  0.8340  0.024  0.026  0.027  0.757
    7  C -0.0263 -0.005 -0.023 -0.004  0.005
    8  C -0.0524 -0.004 -0.008 -0.019 -0.022
    9  O  0.0460  0.003  0.001  0.031  0.011
   10  H  0.0064  0.006
   11  H  0.0029  0.003
   12  H  0.0008  0.001
   13  H  0.0019  0.002
   14  H -0.0043 -0.004
   15  H  0.0179  0.018
   16  H  0.0322  0.032
   17  H  0.0034  0.003
   18  H  0.0316  0.032
   19  H -0.0012 -0.001

 **********************
 *                    *
 * JOB ENDED NORMALLY *
 *                    *
 **********************



 TOTAL JOB TIME:             2.86 SECONDS

 == MOPAC DONE ==
