 *******************************************************************************
 **                                                                           **
 **                              MOPAC v23.2                                  **
 **                                                                           **
 *******************************************************************************
 **          Digital Object Identifier (DOI): 10.5281/zenodo.6511958          **
 **    Visit the DOI location for information on how to cite this program.    **
 *******************************************************************************

                              PM7 CALCULATION RESULTS

 *******************************************************************************
 *  CALCULATION DONE: (MAX THREADS = 40)             Fri Sep 19 21:34:55 2025  *
 *  PM7        - The PM7 Hamiltonian to be used
 *  1SCF       - DO 1 SCF AND THEN STOP 
 *  T=         - A TIME OF 172800.0 SECONDS REQUESTED
 *  DUMP=N     - RESTART FILE WRITTEN EVERY 7200.0 SECONDS REQUESTED
 *  RELSCF     - DEFAULT SCF CRITERION MULTIPLIED BY 0.0001
 *              (DEFAULT SCF CRITERION = 0.00010)
 *  GRADIENTS  - ALL GRADIENTS TO BE PRINTED
 *  DISP       - PRINT DISPERSION AND HYDROGEN BOND ENERGIES
 *******************************************************************************
PM7 1SCF GRADIENTS DISP RELSCF=0.0001
 Title: ASE calculation

   ATOM   CHEMICAL          X               Y               Z
  NUMBER   SYMBOL      (ANGSTROMS)     (ANGSTROMS)     (ANGSTROMS)

     1       C          1.35308716  *  -1.49227705  *  -1.04189183  *
     2       C          0.77222008  *  -0.40669719  *  -0.13284449  *
     3       C          1.51621683  *  -0.46112290  *   1.21241472  *
     4       C          0.95461191  *   1.00562669  *  -0.74574920  *
     5       C         -0.19651144  *   1.86866552  *  -0.19538950  *
     6       C         -1.19588982  *   0.90951680  *   0.47832003  *
     7       C         -0.77768560  *  -0.52250425  *   0.05650951  *
     8       C         -1.48775162  *  -0.87628293  *  -1.26131674  *
     9       C         -1.18272889  *  -1.55821122  *   1.10789426  *
    10       H          1.12970392  *  -2.49058048  *  -0.65043375  *
    11       H          2.44236630  *  -1.40271655  *  -1.11529906  *
    12       H          0.95210728  *  -1.43917520  *  -2.05893395  *
    13       H          1.43899991  *  -1.44747290  *   1.67860869  *
    14       H          1.11921339  *   0.27653260  *   1.91709030  *
    15       H          2.58175439  *  -0.24653696  *   1.08007526  *
    16       H          0.91352080  *   0.95934563  *  -1.84575795  *
    17       H          1.93764522  *   1.43026254  *  -0.49490880  *
    18       H          0.17793002  *   2.61336005  *   0.52430127  *
    19       H         -0.68035103  *   2.43822312  *  -1.00417507  *
    20       H         -2.23267048  *   1.12977906  *   0.18490108  *
    21       H         -1.15909540  *   1.01739233  *   1.57416809  *
    22       H         -1.24467969  *  -1.88961194  *  -1.59334159  *
    23       H         -2.57546424  *  -0.82381156  *  -1.14694394  *
    24       H         -1.20948145  *  -0.18375846  *  -2.06211296  *
    25       H         -2.27271399  *  -1.63881622  *   1.18129236  *
    26       H         -0.80632043  *  -1.30600599  *   2.10427922  *
    27       H         -0.79525493  *  -2.54958687  *   0.84949675  *



          CARTESIAN COORDINATES 

    NO.       ATOM           X           Y           Z

     1         C          1.3531     -1.4923     -1.0419
     2         C          0.7722     -0.4067     -0.1328
     3         C          1.5162     -0.4611      1.2124
     4         C          0.9546      1.0056     -0.7457
     5         C         -0.1965      1.8687     -0.1954
     6         C         -1.1959      0.9095      0.4783
     7         C         -0.7777     -0.5225      0.0565
     8         C         -1.4878     -0.8763     -1.2613
     9         C         -1.1827     -1.5582      1.1079
    10         H          1.1297     -2.4906     -0.6504
    11         H          2.4424     -1.4027     -1.1153
    12         H          0.9521     -1.4392     -2.0589
    13         H          1.4390     -1.4475      1.6786
    14         H          1.1192      0.2765      1.9171
    15         H          2.5818     -0.2465      1.0801
    16         H          0.9135      0.9593     -1.8458
    17         H          1.9376      1.4303     -0.4949
    18         H          0.1779      2.6134      0.5243
    19         H         -0.6804      2.4382     -1.0042
    20         H         -2.2327      1.1298      0.1849
    21         H         -1.1591      1.0174      1.5742
    22         H         -1.2447     -1.8896     -1.5933
    23         H         -2.5755     -0.8238     -1.1469
    24         H         -1.2095     -0.1838     -2.0621
    25         H         -2.2727     -1.6388      1.1813
    26         H         -0.8063     -1.3060      2.1043
    27         H         -0.7953     -2.5496      0.8495

 General Reference for PM7:
 "Optimization of Parameters for Semiempirical Methods VI: More Modifications to the 
 NDDO Approximations and Re-optimization of Parameters", J. J. P. Stewart, J. Mol. Mod., 1:32, 19 (2013)
 https://link.springer.com/article/10.1007/s00894-012-1667-x

           Empirical Formula: C9 H18  =    27 atoms



      MOLECULAR POINT GROUP   :   C2  


      RHF CALCULATION, NO. OF DOUBLY OCCUPIED LEVELS = 27

  SCF CRITERION =    0.1000E-07

 -------------------------------------------------------------------------------
 PM7 1SCF GRADIENTS DISP RELSCF=0.0001
 Title: ASE calculation



     1SCF WAS SPECIFIED, SO BFGS WAS NOT USED                 
     SCF FIELD WAS ACHIEVED                                   


                              PM7 CALCULATION
                                                       MOPAC v23.2 Linux
                                                       Fri Sep 19 21:34:55 2025




          FINAL HEAT OF FORMATION =        -42.24028 KCAL/MOL =    -176.73332 KJ/MOL

          TOTAL ENERGY            =     -31121.07088 KCAL/MOL = ELECTRONIC ENERGY + CORE-CORE REPULSION
          ENERGY OF ATOMS         =      31081.95326 KCAL/MOL
                              SUM =        -39.11763 KCAL/MOL
          DISPERSION ENERGY       =         -3.12265 KCAL/MOL
                              SUM =        -42.24028 KCAL/MOL = FINAL HEAT OF FORMATION



          TOTAL ENERGY            =      -1349.53736 EV
          ELECTRONIC ENERGY       =      -8400.28487 EV 
          CORE-CORE REPULSION     =       7050.74750 EV
          COSMO AREA              =        176.55 SQUARE ANGSTROMS
          COSMO VOLUME            =        196.70 CUBIC ANGSTROMS

          GRADIENT NORM           =          1.38339          =       0.26623 PER ATOM
          IONIZATION POTENTIAL    =         10.580693 EV
          HOMO LUMO ENERGIES (EV) =        -10.581  3.810
          NO. OF FILLED LEVELS    =         27
          MOLECULAR WEIGHT        =        126.2412         POINT GROUP:  C2  

          MOLECULAR DIMENSIONS (Angstroms)

            Atom       Atom       Distance
            H    23    H    15     5.64710
            H    10    H    18     5.32190
            H    16    H    26     4.75994


          SCF CALCULATIONS        =          1

          WALL-CLOCK TIME         =      0.445 SECONDS
          COMPUTATION TIME        =      0.557 SECONDS

          LARGEST ATOMIC GRADIENTS

          Atom     Label                     Cartesian Gradients           Cartesian Coordinates       |Gradient|
                                           X          Y          Z        X          Y          Z

            22       H                  -0.142      0.347     -0.185   -1.24468   -1.88961   -1.59334      0.418
            13       H                   0.080      0.384      0.137    1.43900   -1.44747    1.67861      0.415
            12       H                  -0.248     -0.303      0.065    0.95211   -1.43918   -2.05893      0.397
            26       H                   0.295     -0.262     -0.026   -0.80632   -1.30601    2.10428      0.395
            24       H                  -0.252     -0.242      0.064   -1.20948   -0.18376   -2.06211      0.355
            14       H                   0.288     -0.202     -0.036    1.11921    0.27653    1.91709      0.353
            27       H                  -0.089      0.246     -0.177   -0.79525   -2.54959    0.84950      0.316
            20       H                  -0.208     -0.039     -0.231   -2.23267    1.12978    0.18490      0.313
            10       H                   0.044      0.275      0.142    1.12970   -2.49058   -0.65043      0.313
            17       H                   0.210      0.025      0.230    1.93765    1.43026   -0.49491      0.312



       FINAL  POINT  AND  DERIVATIVES

   PARAMETER     ATOM    TYPE            VALUE        GRADIENT
      1          1  C    CARTESIAN X     1.353087     -0.036353  KCAL/ANGSTROM
      2          1  C    CARTESIAN Y    -1.492277      0.053025  KCAL/ANGSTROM
      3          1  C    CARTESIAN Z    -1.041892     -0.062744  KCAL/ANGSTROM
      4          2  C    CARTESIAN X     0.772220     -0.059676  KCAL/ANGSTROM
      5          2  C    CARTESIAN Y    -0.406697     -0.004306  KCAL/ANGSTROM
      6          2  C    CARTESIAN Z    -0.132844     -0.097401  KCAL/ANGSTROM
      7          3  C    CARTESIAN X     1.516217     -0.047824  KCAL/ANGSTROM
      8          3  C    CARTESIAN Y    -0.461123      0.035702  KCAL/ANGSTROM
      9          3  C    CARTESIAN Z     1.212415     -0.228981  KCAL/ANGSTROM
     10          4  C    CARTESIAN X     0.954612      0.154992  KCAL/ANGSTROM
     11          4  C    CARTESIAN Y     1.005627     -0.073035  KCAL/ANGSTROM
     12          4  C    CARTESIAN Z    -0.745749      0.044293  KCAL/ANGSTROM
     13          5  C    CARTESIAN X    -0.196511      0.019538  KCAL/ANGSTROM
     14          5  C    CARTESIAN Y     1.868666     -0.222731  KCAL/ANGSTROM
     15          5  C    CARTESIAN Z    -0.195390      0.016347  KCAL/ANGSTROM
     16          6  C    CARTESIAN X    -1.195890     -0.140617  KCAL/ANGSTROM
     17          6  C    CARTESIAN Y     0.909517     -0.102254  KCAL/ANGSTROM
     18          6  C    CARTESIAN Z     0.478320     -0.033470  KCAL/ANGSTROM
     19          7  C    CARTESIAN X    -0.777686      0.058331  KCAL/ANGSTROM
     20          7  C    CARTESIAN Y    -0.522504      0.019488  KCAL/ANGSTROM
     21          7  C    CARTESIAN Z     0.056510      0.097015  KCAL/ANGSTROM
     22          8  C    CARTESIAN X    -1.487752      0.038039  KCAL/ANGSTROM
     23          8  C    CARTESIAN Y    -0.876283      0.074645  KCAL/ANGSTROM
     24          8  C    CARTESIAN Z    -1.261317      0.222753  KCAL/ANGSTROM
     25          9  C    CARTESIAN X    -1.182729      0.025688  KCAL/ANGSTROM
     26          9  C    CARTESIAN Y    -1.558211      0.068451  KCAL/ANGSTROM
     27          9  C    CARTESIAN Z     1.107894      0.056062  KCAL/ANGSTROM
     28         10  H    CARTESIAN X     1.129704      0.044475  KCAL/ANGSTROM
     29         10  H    CARTESIAN Y    -2.490580      0.275138  KCAL/ANGSTROM
     30         10  H    CARTESIAN Z    -0.650434      0.142452  KCAL/ANGSTROM
     31         11  H    CARTESIAN X     2.442366     -0.063062  KCAL/ANGSTROM
     32         11  H    CARTESIAN Y    -1.402717     -0.122802  KCAL/ANGSTROM
     33         11  H    CARTESIAN Z    -1.115299      0.278180  KCAL/ANGSTROM
     34         12  H    CARTESIAN X     0.952107     -0.247624  KCAL/ANGSTROM
     35         12  H    CARTESIAN Y    -1.439175     -0.303191  KCAL/ANGSTROM
     36         12  H    CARTESIAN Z    -2.058934      0.064858  KCAL/ANGSTROM
     37         13  H    CARTESIAN X     1.439000      0.079732  KCAL/ANGSTROM
     38         13  H    CARTESIAN Y    -1.447473      0.383924  KCAL/ANGSTROM
     39         13  H    CARTESIAN Z     1.678609      0.136754  KCAL/ANGSTROM
     40         14  H    CARTESIAN X     1.119213      0.287798  KCAL/ANGSTROM
     41         14  H    CARTESIAN Y     0.276533     -0.201692  KCAL/ANGSTROM
     42         14  H    CARTESIAN Z     1.917090     -0.035675  KCAL/ANGSTROM
     43         15  H    CARTESIAN X     2.581754     -0.173744  KCAL/ANGSTROM
     44         15  H    CARTESIAN Y    -0.246537      0.064787  KCAL/ANGSTROM
     45         15  H    CARTESIAN Z     1.080075     -0.012935  KCAL/ANGSTROM
     46         16  H    CARTESIAN X     0.913521     -0.034064  KCAL/ANGSTROM
     47         16  H    CARTESIAN Y     0.959346      0.057916  KCAL/ANGSTROM
     48         16  H    CARTESIAN Z    -1.845758      0.042844  KCAL/ANGSTROM
     49         17  H    CARTESIAN X     1.937645      0.210316  KCAL/ANGSTROM
     50         17  H    CARTESIAN Y     1.430263      0.024583  KCAL/ANGSTROM
     51         17  H    CARTESIAN Z    -0.494909      0.229513  KCAL/ANGSTROM
     52         18  H    CARTESIAN X     0.177930      0.001123  KCAL/ANGSTROM
     53         18  H    CARTESIAN Y     2.613360     -0.054627  KCAL/ANGSTROM
     54         18  H    CARTESIAN Z     0.524301     -0.169858  KCAL/ANGSTROM
     55         19  H    CARTESIAN X    -0.680351      0.009549  KCAL/ANGSTROM
     56         19  H    CARTESIAN Y     2.438223     -0.027891  KCAL/ANGSTROM
     57         19  H    CARTESIAN Z    -1.004175      0.179476  KCAL/ANGSTROM
     58         20  H    CARTESIAN X    -2.232670     -0.207834  KCAL/ANGSTROM
     59         20  H    CARTESIAN Y     1.129779     -0.038972  KCAL/ANGSTROM
     60         20  H    CARTESIAN Z     0.184901     -0.230943  KCAL/ANGSTROM
     61         21  H    CARTESIAN X    -1.159095      0.023840  KCAL/ANGSTROM
     62         21  H    CARTESIAN Y     1.017392      0.056664  KCAL/ANGSTROM
     63         21  H    CARTESIAN Z     1.574168     -0.053366  KCAL/ANGSTROM
     64         22  H    CARTESIAN X    -1.244680     -0.141669  KCAL/ANGSTROM
     65         22  H    CARTESIAN Y    -1.889612      0.346780  KCAL/ANGSTROM
     66         22  H    CARTESIAN Z    -1.593342     -0.184962  KCAL/ANGSTROM
     67         23  H    CARTESIAN X    -2.575464      0.160065  KCAL/ANGSTROM
     68         23  H    CARTESIAN Y    -0.823812      0.094220  KCAL/ANGSTROM
     69         23  H    CARTESIAN Z    -1.146944      0.001313  KCAL/ANGSTROM
     70         24  H    CARTESIAN X    -1.209481     -0.251765  KCAL/ANGSTROM
     71         24  H    CARTESIAN Y    -0.183758     -0.241769  KCAL/ANGSTROM
     72         24  H    CARTESIAN Z    -2.062113      0.064181  KCAL/ANGSTROM
     73         25  H    CARTESIAN X    -2.272714      0.084433  KCAL/ANGSTROM
     74         25  H    CARTESIAN Y    -1.638816     -0.145907  KCAL/ANGSTROM
     75         25  H    CARTESIAN Z     1.181292     -0.262445  KCAL/ANGSTROM
     76         26  H    CARTESIAN X    -0.806320      0.294947  KCAL/ANGSTROM
     77         26  H    CARTESIAN Y    -1.306006     -0.262077  KCAL/ANGSTROM
     78         26  H    CARTESIAN Z     2.104279     -0.026406  KCAL/ANGSTROM
     79         27  H    CARTESIAN X    -0.795255     -0.088632  KCAL/ANGSTROM
     80         27  H    CARTESIAN Y    -2.549587      0.245931  KCAL/ANGSTROM
     81         27  H    CARTESIAN Z     0.849497     -0.176859  KCAL/ANGSTROM




   ATOM   CHEMICAL          X               Y               Z
  NUMBER   SYMBOL      (ANGSTROMS)     (ANGSTROMS)     (ANGSTROMS)

     1       C          1.35308716  *  -1.49227705  *  -1.04189183  *
     2       C          0.77222008  *  -0.40669719  *  -0.13284449  *
     3       C          1.51621683  *  -0.46112290  *   1.21241472  *
     4       C          0.95461191  *   1.00562669  *  -0.74574920  *
     5       C         -0.19651144  *   1.86866552  *  -0.19538950  *
     6       C         -1.19588982  *   0.90951680  *   0.47832003  *
     7       C         -0.77768560  *  -0.52250425  *   0.05650951  *
     8       C         -1.48775162  *  -0.87628293  *  -1.26131674  *
     9       C         -1.18272889  *  -1.55821122  *   1.10789426  *
    10       H          1.12970392  *  -2.49058048  *  -0.65043375  *
    11       H          2.44236630  *  -1.40271655  *  -1.11529906  *
    12       H          0.95210728  *  -1.43917520  *  -2.05893395  *
    13       H          1.43899991  *  -1.44747290  *   1.67860869  *
    14       H          1.11921339  *   0.27653260  *   1.91709030  *
    15       H          2.58175439  *  -0.24653696  *   1.08007526  *
    16       H          0.91352080  *   0.95934563  *  -1.84575795  *
    17       H          1.93764522  *   1.43026254  *  -0.49490880  *
    18       H          0.17793002  *   2.61336005  *   0.52430127  *
    19       H         -0.68035103  *   2.43822312  *  -1.00417507  *
    20       H         -2.23267048  *   1.12977906  *   0.18490108  *
    21       H         -1.15909540  *   1.01739233  *   1.57416809  *
    22       H         -1.24467969  *  -1.88961194  *  -1.59334159  *
    23       H         -2.57546424  *  -0.82381156  *  -1.14694394  *
    24       H         -1.20948145  *  -0.18375846  *  -2.06211296  *
    25       H         -2.27271399  *  -1.63881622  *   1.18129236  *
    26       H         -0.80632043  *  -1.30600599  *   2.10427922  *
    27       H         -0.79525493  *  -2.54958687  *   0.84949675  *

                             CARTESIAN COORDINATES

   1    C        1.353087163    -1.492277048    -1.041891835
   2    C        0.772220081    -0.406697193    -0.132844492
   3    C        1.516216829    -0.461122896     1.212414721
   4    C        0.954611908     1.005626690    -0.745749204
   5    C       -0.196511438     1.868665517    -0.195389502
   6    C       -1.195889819     0.909516799     0.478320026
   7    C       -0.777685601    -0.522504246     0.056509513
   8    C       -1.487751623    -0.876282933    -1.261316745
   9    C       -1.182728886    -1.558211221     1.107894261
  10    H        1.129703925    -2.490580477    -0.650433746
  11    H        2.442366304    -1.402716553    -1.115299060
  12    H        0.952107282    -1.439175198    -2.058933945
  13    H        1.438999913    -1.447472903     1.678608695
  14    H        1.119213387     0.276532597     1.917090301
  15    H        2.581754394    -0.246536956     1.080075258
  16    H        0.913520803     0.959345634    -1.845757949
  17    H        1.937645218     1.430262538    -0.494908801
  18    H        0.177930019     2.613360047     0.524301267
  19    H       -0.680351026     2.438223119    -1.004175066
  20    H       -2.232670481     1.129779058     0.184901079
  21    H       -1.159095403     1.017392326     1.574168094
  22    H       -1.244679687    -1.889611939    -1.593341592
  23    H       -2.575464244    -0.823811562    -1.146943942
  24    H       -1.209481446    -0.183758464    -2.062112961
  25    H       -2.272713994    -1.638816215     1.181292360
  26    H       -0.806320426    -1.306005988     2.104279224
  27    H       -0.795254930    -2.549586873     0.849496753


           Empirical Formula: C9 H18  =    27 atoms



      MOLECULAR POINT GROUP   :   C2  


                  EIGENVALUES  
 -31.00989 -26.89831 -26.67070 -24.70214 -22.82708 -22.62983 -21.16761 -19.08208
 -17.02675 -16.02370 -15.87669 -15.27442 -14.69046 -14.07680 -13.59085 -13.43193
 -13.27181 -13.01701 -12.63832 -12.55588 -12.16376 -11.86131 -11.26491 -11.15649
 -10.92703 -10.84136 -10.58069   3.80953   3.86096   4.07780   4.41317   4.75778
   4.91193   5.02860   5.28904   5.32677   5.60172   5.99785   6.00973   6.04055
   6.05717   6.10728   6.12948   6.13154   6.18429   6.19410   6.44937   6.66707
   6.88107   6.89376   7.10036   7.23467   7.30642   7.39729


              NET ATOMIC CHARGES AND DIPOLE CONTRIBUTIONS

  ATOM NO.   TYPE          CHARGE      No. of ELECS.   s-Pop       p-Pop       
    1          C          -0.465992        4.4660     1.05776     3.40824
    2          C           0.088853        3.9111     1.06609     2.84506
    3          C          -0.461989        4.4620     1.05906     3.40293
    4          C          -0.295333        4.2953     1.06905     3.22628
    5          C          -0.263544        4.2635     1.06062     3.20293
    6          C          -0.295330        4.2953     1.06903     3.22630
    7          C           0.088848        3.9112     1.06606     2.84509
    8          C          -0.461993        4.4620     1.05904     3.40295
    9          C          -0.465992        4.4660     1.05776     3.40824
   10          H           0.145389        0.8546     0.85461
   11          H           0.143957        0.8560     0.85604
   12          H           0.145498        0.8545     0.85450
   13          H           0.143510        0.8565     0.85649
   14          H           0.146666        0.8533     0.85333
   15          H           0.141178        0.8588     0.85882
   16          H           0.134793        0.8652     0.86521
   17          H           0.134834        0.8652     0.86517
   18          H           0.130408        0.8696     0.86959
   19          H           0.130405        0.8696     0.86959
   20          H           0.134833        0.8652     0.86517
   21          H           0.134798        0.8652     0.86520
   22          H           0.143504        0.8565     0.85650
   23          H           0.141177        0.8588     0.85882
   24          H           0.146666        0.8533     0.85333
   25          H           0.143958        0.8560     0.85604
   26          H           0.145511        0.8545     0.85449
   27          H           0.145387        0.8546     0.85461
 DIPOLE           X         Y         Z       TOTAL
 POINT-CHG.     0.007    -0.083     0.006     0.084
 HYBRID         0.004    -0.054     0.003     0.055
 SUM            0.011    -0.138     0.009     0.138


          ATOMIC ORBITAL ELECTRON POPULATIONS

     Atom    s        px        py        pz   
    1  C   1.05776   1.15510   1.11918   1.13396
    2  C   1.06609   0.95993   0.94109   0.94404
    3  C   1.05906   1.14048   1.17233   1.09012
    4  C   1.06905   1.07701   1.02848   1.12079
    5  C   1.06062   1.03340   1.05379   1.11574
    6  C   1.06903   1.08748   1.01698   1.12184
    7  C   1.06606   0.96241   0.94006   0.94262
    8  C   1.05904   1.14293   1.16601   1.09401
    9  C   1.05776   1.16371   1.12405   1.12048
   10  H   0.85461
   11  H   0.85604
   12  H   0.85450
   13  H   0.85649
   14  H   0.85333
   15  H   0.85882
   16  H   0.86521
   17  H   0.86517
   18  H   0.86959
   19  H   0.86959
   20  H   0.86517
   21  H   0.86520
   22  H   0.85650
   23  H   0.85882
   24  H   0.85333
   25  H   0.85604
   26  H   0.85449
   27  H   0.85461

 **********************
 *                    *
 * JOB ENDED NORMALLY *
 *                    *
 **********************



 TOTAL JOB TIME:             0.80 SECONDS

 == MOPAC DONE ==
