 *******************************************************************************
 **                                                                           **
 **                              MOPAC v23.2                                  **
 **                                                                           **
 *******************************************************************************
 **          Digital Object Identifier (DOI): 10.5281/zenodo.6511958          **
 **    Visit the DOI location for information on how to cite this program.    **
 *******************************************************************************

                              PM7 CALCULATION RESULTS

 *******************************************************************************
 *  CALCULATION DONE: (MAX THREADS = 40)             Fri Sep 19 22:01:08 2025  *
 *  PM7        - The PM7 Hamiltonian to be used
 *
 *
 *
 *                 CHARGE ON SYSTEM = +1
 *
 *
 *
 *  1SCF       - DO 1 SCF AND THEN STOP 
 *  T=         - A TIME OF 172800.0 SECONDS REQUESTED
 *  DUMP=N     - RESTART FILE WRITTEN EVERY 7200.0 SECONDS REQUESTED
 *  RELSCF     - DEFAULT SCF CRITERION MULTIPLIED BY 0.0001
 *              (DEFAULT SCF CRITERION = 0.00010)
 *  GRADIENTS  - ALL GRADIENTS TO BE PRINTED
 *  DISP       - PRINT DISPERSION AND HYDROGEN BOND ENERGIES
 *******************************************************************************
PM7 1SCF GRADIENTS DISP RELSCF=0.0001 CHARGE=1
 Title: ASE calculation

   ATOM   CHEMICAL          X               Y               Z
  NUMBER   SYMBOL      (ANGSTROMS)     (ANGSTROMS)     (ANGSTROMS)

     1       C         -0.97994173  *   1.89954359  *   0.54397203  *
     2       C         -0.95630417  *   0.51590042  *   0.11660650  *
     3       C         -2.03195852  *  -0.47757308  *   0.18785819  *
     4       C         -1.54736374  *  -1.66327746  *  -0.29851552  *
     5       C         -0.17074466  *  -1.45246565  *  -0.68998359  *
     6       N          0.14400655  *  -0.12508186  *  -0.44649779  *
     7       C          1.46432884  *   0.47099816  *  -0.67639766  *
     8       C          2.25304063  *   0.44110538  *   0.54367506  *
     9       N          2.89104135  *   0.42092107  *   1.50512216  *
    10       H         -1.94919565  *   2.19594930  *   1.00345534  *
    11       H         -0.81475975  *   2.62892661  *  -0.28005934  *
    12       H         -0.20585001  *   2.14117599  *   1.30859094  *
    13       H         -3.02369678  *  -0.26219936  *   0.56554434  *
    14       H         -2.06762298  *  -2.61042023  *  -0.39399620  *
    15       H          0.53259506  *  -2.16883695  *  -1.10355242  *
    16       H          1.34855096  *   1.53006858  *  -1.05508592  *
    17       H          1.99579788  *  -0.08106919  *  -1.50949471  *



          CARTESIAN COORDINATES 

    NO.       ATOM           X           Y           Z

     1         C         -0.9799      1.8995      0.5440
     2         C         -0.9563      0.5159      0.1166
     3         C         -2.0320     -0.4776      0.1879
     4         C         -1.5474     -1.6633     -0.2985
     5         C         -0.1707     -1.4525     -0.6900
     6         N          0.1440     -0.1251     -0.4465
     7         C          1.4643      0.4710     -0.6764
     8         C          2.2530      0.4411      0.5437
     9         N          2.8910      0.4209      1.5051
    10         H         -1.9492      2.1959      1.0035
    11         H         -0.8148      2.6289     -0.2801
    12         H         -0.2059      2.1412      1.3086
    13         H         -3.0237     -0.2622      0.5655
    14         H         -2.0676     -2.6104     -0.3940
    15         H          0.5326     -2.1688     -1.1036
    16         H          1.3486      1.5301     -1.0551
    17         H          1.9958     -0.0811     -1.5095

 General Reference for PM7:
 "Optimization of Parameters for Semiempirical Methods VI: More Modifications to the 
 NDDO Approximations and Re-optimization of Parameters", J. J. P. Stewart, J. Mol. Mod., 1:32, 19 (2013)
 https://link.springer.com/article/10.1007/s00894-012-1667-x

           Empirical Formula: C7 H8 N2  =    17 atoms



      MOLECULAR POINT GROUP   :   C1  


          UHF CALCULATION, NO. OF ALPHA ELECTRONS =   23
                           NO. OF BETA  ELECTRONS =   22
  SCF CRITERION =    0.1000E-07

 -------------------------------------------------------------------------------
 PM7 1SCF GRADIENTS DISP RELSCF=0.0001 CHARGE=1
 Title: ASE calculation



     1SCF WAS SPECIFIED, SO BFGS WAS NOT USED                 
     SCF FIELD WAS ACHIEVED                                   


                              PM7 CALCULATION
                                                       MOPAC v23.2 Linux
                                                       Fri Sep 19 22:01:09 2025




          FINAL HEAT OF FORMATION =        242.07133 KCAL/MOL =    1012.82646 KJ/MOL

          TOTAL ENERGY            =     -30691.67667 KCAL/MOL = ELECTRONIC ENERGY + CORE-CORE REPULSION
          ENERGY OF ATOMS         =      30935.82464 KCAL/MOL
                              SUM =        244.14797 KCAL/MOL
          DISPERSION ENERGY       =         -2.07664 KCAL/MOL
                              SUM =        242.07133 KCAL/MOL = FINAL HEAT OF FORMATION



          TOTAL ENERGY            =      -1330.91707 EV
          ELECTRONIC ENERGY       =      -6313.70328 EV 
          CORE-CORE REPULSION     =       4982.78621 EV
          COSMO AREA              =        165.11 SQUARE ANGSTROMS
          COSMO VOLUME            =        162.52 CUBIC ANGSTROMS

          GRADIENT NORM           =          1.07719          =       0.26126 PER ATOM
          IONIZATION POTENTIAL    =         14.961739 EV
          ALPHA SOMO LUMO (EV)    =        -14.962 -5.614
          BETA  SOMO LUMO (EV)    =        -15.704 -7.417
          NO. OF ALPHA ELECTRONS  =         23
          NO. OF BETA  ELECTRONS  =         22
          MOLECULAR WEIGHT        =        120.1536         POINT GROUP:  C1  

          MOLECULAR DIMENSIONS (Angstroms)

            Atom       Atom       Distance
            H    14    N     9     6.11425
            H    15    H    10     5.38526
            H    16    H    14     2.68944


          SCF CALCULATIONS        =          1

          WALL-CLOCK TIME         =      0.648 SECONDS
          COMPUTATION TIME        =      0.744 SECONDS

          LARGEST ATOMIC GRADIENTS

          Atom     Label                     Cartesian Gradients           Cartesian Coordinates       |Gradient|
                                           X          Y          Z        X          Y          Z

             6       N                   0.258     -0.091      0.333    0.14401   -0.12508   -0.44650      0.431
            17       H                   0.021     -0.205     -0.329    1.99580   -0.08107   -1.50949      0.389
            11       H                  -0.148      0.155      0.284   -0.81476    2.62893   -0.28006      0.356
             8       C                  -0.210     -0.063      0.186    2.25304    0.44111    0.54368      0.287
            13       H                  -0.036     -0.158     -0.231   -3.02370   -0.26220    0.56554      0.283
            14       H                   0.115      0.214     -0.109   -2.06762   -2.61042   -0.39400      0.266
            10       H                   0.191     -0.044     -0.169   -1.94920    2.19595    1.00346      0.259
            15       H                  -0.019      0.059      0.248    0.53260   -2.16884   -1.10355      0.256
            16       H                  -0.031      0.222     -0.115    1.34855    1.53007   -1.05509      0.252
             4       C                   0.033     -0.001      0.247   -1.54736   -1.66328   -0.29852      0.249



       FINAL  POINT  AND  DERIVATIVES

   PARAMETER     ATOM    TYPE            VALUE        GRADIENT
      1          1  C    CARTESIAN X    -0.979942      0.081484  KCAL/ANGSTROM
      2          1  C    CARTESIAN Y     1.899544     -0.167523  KCAL/ANGSTROM
      3          1  C    CARTESIAN Z     0.543972     -0.083529  KCAL/ANGSTROM
      4          2  C    CARTESIAN X    -0.956304     -0.204441  KCAL/ANGSTROM
      5          2  C    CARTESIAN Y     0.515900      0.040434  KCAL/ANGSTROM
      6          2  C    CARTESIAN Z     0.116606     -0.112599  KCAL/ANGSTROM
      7          3  C    CARTESIAN X    -2.031959     -0.059617  KCAL/ANGSTROM
      8          3  C    CARTESIAN Y    -0.477573      0.053347  KCAL/ANGSTROM
      9          3  C    CARTESIAN Z     0.187858      0.095248  KCAL/ANGSTROM
     10          4  C    CARTESIAN X    -1.547364      0.033460  KCAL/ANGSTROM
     11          4  C    CARTESIAN Y    -1.663277     -0.000936  KCAL/ANGSTROM
     12          4  C    CARTESIAN Z    -0.298516      0.246770  KCAL/ANGSTROM
     13          5  C    CARTESIAN X    -0.170745      0.070223  KCAL/ANGSTROM
     14          5  C    CARTESIAN Y    -1.452466      0.157234  KCAL/ANGSTROM
     15          5  C    CARTESIAN Z    -0.689984     -0.026462  KCAL/ANGSTROM
     16          6  N    CARTESIAN X     0.144007      0.258086  KCAL/ANGSTROM
     17          6  N    CARTESIAN Y    -0.125082     -0.090659  KCAL/ANGSTROM
     18          6  N    CARTESIAN Z    -0.446498      0.332815  KCAL/ANGSTROM
     19          7  C    CARTESIAN X     1.464329      0.038910  KCAL/ANGSTROM
     20          7  C    CARTESIAN Y     0.470998     -0.006196  KCAL/ANGSTROM
     21          7  C    CARTESIAN Z    -0.676398     -0.101374  KCAL/ANGSTROM
     22          8  C    CARTESIAN X     2.253041     -0.209677  KCAL/ANGSTROM
     23          8  C    CARTESIAN Y     0.441105     -0.062669  KCAL/ANGSTROM
     24          8  C    CARTESIAN Z     0.543675      0.186251  KCAL/ANGSTROM
     25          9  N    CARTESIAN X     2.891041      0.005742  KCAL/ANGSTROM
     26          9  N    CARTESIAN Y     0.420921     -0.124370  KCAL/ANGSTROM
     27          9  N    CARTESIAN Z     1.505122     -0.145615  KCAL/ANGSTROM
     28         10  H    CARTESIAN X    -1.949196      0.190527  KCAL/ANGSTROM
     29         10  H    CARTESIAN Y     2.195949     -0.043556  KCAL/ANGSTROM
     30         10  H    CARTESIAN Z     1.003455     -0.169410  KCAL/ANGSTROM
     31         11  H    CARTESIAN X    -0.814760     -0.148231  KCAL/ANGSTROM
     32         11  H    CARTESIAN Y     2.628927      0.154804  KCAL/ANGSTROM
     33         11  H    CARTESIAN Z    -0.280059      0.284061  KCAL/ANGSTROM
     34         12  H    CARTESIAN X    -0.205850     -0.105615  KCAL/ANGSTROM
     35         12  H    CARTESIAN Y     2.141176     -0.041922  KCAL/ANGSTROM
     36         12  H    CARTESIAN Z     1.308591      0.030500  KCAL/ANGSTROM
     37         13  H    CARTESIAN X    -3.023697     -0.036266  KCAL/ANGSTROM
     38         13  H    CARTESIAN Y    -0.262199     -0.158008  KCAL/ANGSTROM
     39         13  H    CARTESIAN Z     0.565544     -0.231374  KCAL/ANGSTROM
     40         14  H    CARTESIAN X    -2.067623      0.114510  KCAL/ANGSTROM
     41         14  H    CARTESIAN Y    -2.610420      0.214115  KCAL/ANGSTROM
     42         14  H    CARTESIAN Z    -0.393996     -0.109028  KCAL/ANGSTROM
     43         15  H    CARTESIAN X     0.532595     -0.019302  KCAL/ANGSTROM
     44         15  H    CARTESIAN Y    -2.168837      0.059007  KCAL/ANGSTROM
     45         15  H    CARTESIAN Z    -1.103552      0.247996  KCAL/ANGSTROM
     46         16  H    CARTESIAN X     1.348551     -0.031033  KCAL/ANGSTROM
     47         16  H    CARTESIAN Y     1.530069      0.222331  KCAL/ANGSTROM
     48         16  H    CARTESIAN Z    -1.055086     -0.115134  KCAL/ANGSTROM
     49         17  H    CARTESIAN X     1.995798      0.021245  KCAL/ANGSTROM
     50         17  H    CARTESIAN Y    -0.081069     -0.205433  KCAL/ANGSTROM
     51         17  H    CARTESIAN Z    -1.509495     -0.329118  KCAL/ANGSTROM




   ATOM   CHEMICAL          X               Y               Z
  NUMBER   SYMBOL      (ANGSTROMS)     (ANGSTROMS)     (ANGSTROMS)

     1       C         -0.97994173  *   1.89954359  *   0.54397203  *
     2       C         -0.95630417  *   0.51590042  *   0.11660650  *
     3       C         -2.03195852  *  -0.47757308  *   0.18785819  *
     4       C         -1.54736374  *  -1.66327746  *  -0.29851552  *
     5       C         -0.17074466  *  -1.45246565  *  -0.68998359  *
     6       N          0.14400655  *  -0.12508186  *  -0.44649779  *
     7       C          1.46432884  *   0.47099816  *  -0.67639766  *
     8       C          2.25304063  *   0.44110538  *   0.54367506  *
     9       N          2.89104135  *   0.42092107  *   1.50512216  *
    10       H         -1.94919565  *   2.19594930  *   1.00345534  *
    11       H         -0.81475975  *   2.62892661  *  -0.28005934  *
    12       H         -0.20585001  *   2.14117599  *   1.30859094  *
    13       H         -3.02369678  *  -0.26219936  *   0.56554434  *
    14       H         -2.06762298  *  -2.61042023  *  -0.39399620  *
    15       H          0.53259506  *  -2.16883695  *  -1.10355242  *
    16       H          1.34855096  *   1.53006858  *  -1.05508592  *
    17       H          1.99579788  *  -0.08106919  *  -1.50949471  *

                             CARTESIAN COORDINATES

   1    C       -0.979941732     1.899543592     0.543972026
   2    C       -0.956304168     0.515900416     0.116606499
   3    C       -2.031958522    -0.477573081     0.187858189
   4    C       -1.547363744    -1.663277456    -0.298515523
   5    C       -0.170744660    -1.452465653    -0.689983589
   6    N        0.144006545    -0.125081862    -0.446497786
   7    C        1.464328839     0.470998163    -0.676397659
   8    C        2.253040634     0.441105379     0.543675063
   9    N        2.891041347     0.420921071     1.505122160
  10    H       -1.949195649     2.195949300     1.003455342
  11    H       -0.814759749     2.628926614    -0.280059340
  12    H       -0.205850015     2.141175985     1.308590938
  13    H       -3.023696784    -0.262199358     0.565544341
  14    H       -2.067622977    -2.610420232    -0.393996199
  15    H        0.532595055    -2.168836947    -1.103552417
  16    H        1.348550955     1.530068582    -1.055085919
  17    H        1.995797884    -0.081069188    -1.509494708


           Empirical Formula: C7 H8 N2  =    17 atoms



      MOLECULAR POINT GROUP   :   C1  


          ALPHA EIGENVALUES  
 -43.57702 -38.87386 -34.60445 -32.67993 -30.44348 -28.69826 -25.73128 -25.25236
 -23.39208 -22.85354 -20.91643 -20.59893 -20.26495 -19.67655 -19.36595 -18.80842
 -18.75855 -18.03849 -17.55115 -17.44415 -17.01657 -15.51097 -14.96174  -5.61385
  -4.50015  -4.39770  -2.96871  -2.87247  -2.22095  -1.82461  -1.69906  -1.63259
  -1.21857  -0.76474  -0.29528  -0.18401   0.05968   0.20897   0.32539   0.47754
   0.99905   1.14471   1.57596   1.64064


           BETA EIGENVALUES 
 -43.76758 -38.87148 -34.56237 -32.54244 -30.45858 -28.52179 -25.65804 -25.23116
 -23.32203 -22.79235 -20.84939 -20.42289 -19.97744 -19.63291 -19.32095 -18.68500
 -18.37967 -17.98797 -17.51269 -17.33729 -17.01328 -15.70437  -7.41672  -4.58123
  -4.38812  -3.78175  -2.97001  -2.85360  -2.13772  -1.72883  -1.67436  -1.53319
  -1.13836  -0.70849  -0.27482  -0.13382   0.05944   0.29275   0.39885   0.50630
   1.01954   1.15202   1.57696   1.66152


              NET ATOMIC CHARGES AND DIPOLE CONTRIBUTIONS

  ATOM NO.   TYPE          CHARGE      No. of ELECS.   s-Pop       p-Pop       
    1          C          -0.504923        4.5049     1.05043     3.45449
    2          C           0.304043        3.6960     1.11906     2.57690
    3          C          -0.141983        4.1420     1.11094     3.03105
    4          C          -0.144513        4.1445     1.10408     3.04044
    5          C           0.122297        3.8777     1.14187     2.73583
    6          N          -0.253686        5.2537     1.53677     3.71691
    7          C          -0.067437        4.0674     1.05803     3.00940
    8          C          -0.003545        4.0035     1.10499     2.89855
    9          N          -0.071687        5.0717     1.82679     3.24489
   10          H           0.223811        0.7762     0.77619
   11          H           0.221582        0.7784     0.77842
   12          H           0.224897        0.7751     0.77510
   13          H           0.219604        0.7804     0.78040
   14          H           0.223792        0.7762     0.77621
   15          H           0.217807        0.7822     0.78219
   16          H           0.212539        0.7875     0.78746
   17          H           0.217401        0.7826     0.78260
 DIPOLE           X         Y         Z       TOTAL
 POINT-CHG.    -3.508     0.044    -3.083     4.671
 HYBRID         0.100     0.155    -0.482     0.516
 SUM           -3.408     0.200    -3.565     4.936


          ATOMIC ORBITAL ELECTRON POPULATIONS

     Atom    s        px        py        pz   
    1  C   1.05043   1.25401   1.00060   1.19989
    2  C   1.11906   0.83563   0.95801   0.78325
    3  C   1.11094   1.06680   0.96395   1.00030
    4  C   1.10408   0.97136   1.08479   0.98429
    5  C   1.14187   1.01703   0.84226   0.87655
    6  N   1.53677   1.14869   1.14905   1.41916
    7  C   1.05803   0.81686   1.15146   1.04108
    8  C   1.10499   0.97084   0.98581   0.94190
    9  N   1.82679   1.06522   1.02979   1.14989
   10  H   0.77619
   11  H   0.77842
   12  H   0.77510
   13  H   0.78040
   14  H   0.77621
   15  H   0.78219
   16  H   0.78746
   17  H   0.78260


                    (SZ)    =    0.500000
                    (S**2)  =    0.785969


          ATOMIC ORBITAL SPIN POPULATIONS

    Atom   Total    s     px     py     pz   
         Atomic
    1  C -0.0084 -0.003 -0.001 -0.012  0.008
    2  C  0.4795  0.011  0.057  0.045  0.366
    3  C  0.1410  0.002  0.012  0.007  0.120
    4  C -0.0411 -0.004 -0.015 -0.004 -0.018
    5  C  0.5716  0.014  0.063  0.046  0.448
    6  N -0.1679 -0.010 -0.022 -0.027 -0.109
    7  C  0.0093  0.001  0.005  0.002  0.002
    8  C -0.0058 -0.002 -0.002 -0.001 -0.002
    9  N  0.0011  0.000  0.001  0.001 -0.000
   10  H  0.0006  0.001
   11  H  0.0218  0.022
   12  H  0.0204  0.020
   13  H -0.0040 -0.004
   14  H  0.0008  0.001
   15  H -0.0156 -0.016
   16  H -0.0021 -0.002
   17  H -0.0013 -0.001

 **********************
 *                    *
 * JOB ENDED NORMALLY *
 *                    *
 **********************



 TOTAL JOB TIME:             0.98 SECONDS

 == MOPAC DONE ==
