 *******************************************************************************
 **                                                                           **
 **                              MOPAC v23.2                                  **
 **                                                                           **
 *******************************************************************************
 **          Digital Object Identifier (DOI): 10.5281/zenodo.6511958          **
 **    Visit the DOI location for information on how to cite this program.    **
 *******************************************************************************

                              PM7 CALCULATION RESULTS

 *******************************************************************************
 *  CALCULATION DONE: (MAX THREADS = 40)             Fri Sep 19 21:41:31 2025  *
 *  PM7        - The PM7 Hamiltonian to be used
 *
 *
 *
 *                 CHARGE ON SYSTEM = +1
 *
 *
 *
 *  EPS=37.5   - USE ANDREAS KLAMT'S COSMO IMPLICIT SOLVATION MODEL
 *  1SCF       - DO 1 SCF AND THEN STOP 
 *  T=         - A TIME OF 172800.0 SECONDS REQUESTED
 *  DUMP=N     - RESTART FILE WRITTEN EVERY 7200.0 SECONDS REQUESTED
 *  RELSCF     - DEFAULT SCF CRITERION MULTIPLIED BY 0.0001
 *              (DEFAULT SCF CRITERION = 0.00010)
 *  GRADIENTS  - ALL GRADIENTS TO BE PRINTED
 *  DISP       - PRINT DISPERSION AND HYDROGEN BOND ENERGIES
 *******************************************************************************
PM7 1SCF GRADIENTS EPS=37.5 DISP RELSCF=0.0001 CHARGE=1
 Title: ASE calculation

   ATOM   CHEMICAL          X               Y               Z
  NUMBER   SYMBOL      (ANGSTROMS)     (ANGSTROMS)     (ANGSTROMS)

     1       C         -2.73615283  *  -0.22366037  *   1.21132827  *
     2       C         -2.89484955  *   0.91307424  *   0.46896281  *
     3       C         -1.76030154  *   1.00392689  *  -0.44579006  *
     4       N         -0.95881463  *  -0.10113942  *  -0.23828514  *
     5       C          0.30309565  *  -0.38191209  *  -0.94228423  *
     6       C          1.46616210  *   0.23979676  *  -0.20789455  *
     7       C          2.85342817  *  -0.31693904  *  -0.47214740  *
     8       C          2.20042610  *  -0.54709327  *   0.86064474  *
     9       C         -1.49789979  *  -0.86585309  *   0.77487581  *
    10       H         -3.38072534  *  -0.62044239  *   1.98601177  *
    11       H         -3.69643422  *   1.64053211  *   0.51038217  *
    12       H         -1.54517984  *   1.77865022  *  -1.17510642  *
    13       H          0.42629614  *  -1.49033513  *  -1.04862149  *
    14       H          0.24123157  *   0.02370122  *  -1.98601177  *
    15       H          1.37153584  *   1.32502609  *  -0.07517060  *
    16       H          2.99457775  *  -1.14573037  *  -1.16421400  *
    17       H          3.69643422  *   0.37329062  *  -0.55647381  *
    18       H          2.57633106  *  -0.02547529  *   1.74352424  *
    19       H          1.87680552  *  -1.54570816  *   1.13949974  *
    20       H         -1.04638847  *  -1.77865022  *   1.14966933  *



          CARTESIAN COORDINATES 

    NO.       ATOM           X           Y           Z

     1         C         -2.7362     -0.2237      1.2113
     2         C         -2.8948      0.9131      0.4690
     3         C         -1.7603      1.0039     -0.4458
     4         N         -0.9588     -0.1011     -0.2383
     5         C          0.3031     -0.3819     -0.9423
     6         C          1.4662      0.2398     -0.2079
     7         C          2.8534     -0.3169     -0.4721
     8         C          2.2004     -0.5471      0.8606
     9         C         -1.4979     -0.8659      0.7749
    10         H         -3.3807     -0.6204      1.9860
    11         H         -3.6964      1.6405      0.5104
    12         H         -1.5452      1.7787     -1.1751
    13         H          0.4263     -1.4903     -1.0486
    14         H          0.2412      0.0237     -1.9860
    15         H          1.3715      1.3250     -0.0752
    16         H          2.9946     -1.1457     -1.1642
    17         H          3.6964      0.3733     -0.5565
    18         H          2.5763     -0.0255      1.7435
    19         H          1.8768     -1.5457      1.1395
    20         H         -1.0464     -1.7787      1.1497

 General Reference for PM7:
 "Optimization of Parameters for Semiempirical Methods VI: More Modifications to the 
 NDDO Approximations and Re-optimization of Parameters", J. J. P. Stewart, J. Mol. Mod., 1:32, 19 (2013)
 https://link.springer.com/article/10.1007/s00894-012-1667-x

           Empirical Formula: C8 H11 N  =    20 atoms



      MOLECULAR POINT GROUP   :   C1  


          UHF CALCULATION, NO. OF ALPHA ELECTRONS =   24
                           NO. OF BETA  ELECTRONS =   23
  SCF CRITERION =    0.1000E-07

 -------------------------------------------------------------------------------
 PM7 1SCF GRADIENTS EPS=37.5 DISP RELSCF=0.0001 CHARGE=1
 Title: ASE calculation



     1SCF WAS SPECIFIED, SO BFGS WAS NOT USED                 
     SCF FIELD WAS ACHIEVED                                   


                              PM7 CALCULATION
                                                       MOPAC v23.2 Linux
                                                       Fri Sep 19 21:41:35 2025




          FINAL HEAT OF FORMATION =        179.83526 KCAL/MOL =     752.43073 KJ/MOL

          TOTAL ENERGY            =     -30212.19908 KCAL/MOL = ELECTRONIC ENERGY + CORE-CORE REPULSION + SOLVATION ENERGY
          ENERGY OF ATOMS         =      30394.11925 KCAL/MOL
                              SUM =        181.92017 KCAL/MOL
          DISPERSION ENERGY       =         -2.08491 KCAL/MOL
                              SUM =        179.83526 KCAL/MOL = FINAL HEAT OF FORMATION

          VAN DER WAALS AREA      =        172.49 SQUARE ANGSTROMS


          TOTAL ENERGY            =      -1310.12495 EV
          ELECTRONIC ENERGY       =      -2031.56980 EV 
          CORE-CORE REPULSION     =        721.44485 EV

          DIELECTRIC ENERGY       =         -2.20406 EV
          COSMO AREA              =        172.49 SQUARE ANGSTROMS
          COSMO VOLUME            =        171.58 CUBIC ANGSTROMS

          GRADIENT NORM           =          9.29034          =       2.07738 PER ATOM
          IONIZATION POTENTIAL    =         10.952902 EV
          ALPHA SOMO LUMO (EV)    =        -10.953 -1.088
          BETA  SOMO LUMO (EV)    =        -11.326 -3.076
          NO. OF ALPHA ELECTRONS  =         24
          NO. OF BETA  ELECTRONS  =         23
          MOLECULAR WEIGHT        =        121.1816         POINT GROUP:  C1  

          MOLECULAR DIMENSIONS (Angstroms)

            Atom       Atom       Distance
            H    17    H    10     7.58538
            H    12    H    19     4.91862
            H    13    H    18     3.35445


          SCF CALCULATIONS        =          2

          WALL-CLOCK TIME         =      3.852 SECONDS
          COMPUTATION TIME        =      0.925 SECONDS

          LARGEST ATOMIC GRADIENTS

          Atom     Label                     Cartesian Gradients           Cartesian Coordinates       |Gradient|
                                           X          Y          Z        X          Y          Z

             5       C                   3.296     -1.101     -3.015    0.30310   -0.38191   -0.94228      4.601
             6       C                  -4.069      1.819     -0.795    1.46616    0.23980   -0.20789      4.528
             7       C                  -1.804     -1.724      1.404    2.85343   -0.31694   -0.47215      2.864
             8       C                  -1.402     -1.398     -1.658    2.20043   -0.54709    0.86064      2.582
            19       H                   1.870      0.507      0.096    1.87681   -1.54571    1.13950      1.940
            10       H                  -1.649     -0.017      0.954   -3.38073   -0.62044    1.98601      1.905
            11       H                  -1.705      0.619      0.570   -3.69643    1.64053    0.51038      1.901
            17       H                   1.651      0.561     -0.164    3.69643    0.37329   -0.55647      1.752
            18       H                   1.475      0.411      0.824    2.57633   -0.02548    1.74352      1.739
            15       H                   1.437     -0.688     -0.249    1.37154    1.32503   -0.07517      1.612



       FINAL  POINT  AND  DERIVATIVES

   PARAMETER     ATOM    TYPE            VALUE        GRADIENT
      1          1  C    CARTESIAN X    -2.736153     -0.953689  KCAL/ANGSTROM
      2          1  C    CARTESIAN Y    -0.223660      0.772109  KCAL/ANGSTROM
      3          1  C    CARTESIAN Z     1.211328     -0.079268  KCAL/ANGSTROM
      4          2  C    CARTESIAN X    -2.894850     -0.493845  KCAL/ANGSTROM
      5          2  C    CARTESIAN Y     0.913074     -0.352749  KCAL/ANGSTROM
      6          2  C    CARTESIAN Z     0.468963      0.429701  KCAL/ANGSTROM
      7          3  C    CARTESIAN X    -1.760302     -0.145941  KCAL/ANGSTROM
      8          3  C    CARTESIAN Y     1.003927      0.870680  KCAL/ANGSTROM
      9          3  C    CARTESIAN Z    -0.445790     -0.087494  KCAL/ANGSTROM
     10          4  N    CARTESIAN X    -0.958815     -0.853075  KCAL/ANGSTROM
     11          4  N    CARTESIAN Y    -0.101139     -1.192653  KCAL/ANGSTROM
     12          4  N    CARTESIAN Z    -0.238285     -0.431763  KCAL/ANGSTROM
     13          5  C    CARTESIAN X     0.303096      3.296209  KCAL/ANGSTROM
     14          5  C    CARTESIAN Y    -0.381912     -1.101400  KCAL/ANGSTROM
     15          5  C    CARTESIAN Z    -0.942284     -3.014951  KCAL/ANGSTROM
     16          6  C    CARTESIAN X     1.466162     -4.068855  KCAL/ANGSTROM
     17          6  C    CARTESIAN Y     0.239797      1.819490  KCAL/ANGSTROM
     18          6  C    CARTESIAN Z    -0.207895     -0.795428  KCAL/ANGSTROM
     19          7  C    CARTESIAN X     2.853428     -1.804496  KCAL/ANGSTROM
     20          7  C    CARTESIAN Y    -0.316939     -1.724036  KCAL/ANGSTROM
     21          7  C    CARTESIAN Z    -0.472147      1.404373  KCAL/ANGSTROM
     22          8  C    CARTESIAN X     2.200426     -1.402143  KCAL/ANGSTROM
     23          8  C    CARTESIAN Y    -0.547093     -1.397667  KCAL/ANGSTROM
     24          8  C    CARTESIAN Z     0.860645     -1.657749  KCAL/ANGSTROM
     25          9  C    CARTESIAN X    -1.497900      0.363727  KCAL/ANGSTROM
     26          9  C    CARTESIAN Y    -0.865853     -0.408805  KCAL/ANGSTROM
     27          9  C    CARTESIAN Z     0.774876      0.174416  KCAL/ANGSTROM
     28         10  H    CARTESIAN X    -3.380725     -1.648630  KCAL/ANGSTROM
     29         10  H    CARTESIAN Y    -0.620442     -0.016671  KCAL/ANGSTROM
     30         10  H    CARTESIAN Z     1.986012      0.954312  KCAL/ANGSTROM
     31         11  H    CARTESIAN X    -3.696434     -1.704841  KCAL/ANGSTROM
     32         11  H    CARTESIAN Y     1.640532      0.619226  KCAL/ANGSTROM
     33         11  H    CARTESIAN Z     0.510382      0.569770  KCAL/ANGSTROM
     34         12  H    CARTESIAN X    -1.545180      0.067638  KCAL/ANGSTROM
     35         12  H    CARTESIAN Y     1.778650      0.002830  KCAL/ANGSTROM
     36         12  H    CARTESIAN Z    -1.175106      0.673120  KCAL/ANGSTROM
     37         13  H    CARTESIAN X     0.426296      0.783009  KCAL/ANGSTROM
     38         13  H    CARTESIAN Y    -1.490335      0.306212  KCAL/ANGSTROM
     39         13  H    CARTESIAN Z    -1.048621      0.519909  KCAL/ANGSTROM
     40         14  H    CARTESIAN X     0.241232      0.651145  KCAL/ANGSTROM
     41         14  H    CARTESIAN Y     0.023701      0.429570  KCAL/ANGSTROM
     42         14  H    CARTESIAN Z    -1.986012      0.513651  KCAL/ANGSTROM
     43         15  H    CARTESIAN X     1.371536      1.436787  KCAL/ANGSTROM
     44         15  H    CARTESIAN Y     1.325026     -0.687730  KCAL/ANGSTROM
     45         15  H    CARTESIAN Z    -0.075171     -0.248696  KCAL/ANGSTROM
     46         16  H    CARTESIAN X     2.994578      1.330438  KCAL/ANGSTROM
     47         16  H    CARTESIAN Y    -1.145730     -0.012041  KCAL/ANGSTROM
     48         16  H    CARTESIAN Z    -1.164214     -0.000411  KCAL/ANGSTROM
     49         17  H    CARTESIAN X     3.696434      1.651475  KCAL/ANGSTROM
     50         17  H    CARTESIAN Y     0.373291      0.561034  KCAL/ANGSTROM
     51         17  H    CARTESIAN Z    -0.556474     -0.163985  KCAL/ANGSTROM
     52         18  H    CARTESIAN X     2.576331      1.475177  KCAL/ANGSTROM
     53         18  H    CARTESIAN Y    -0.025475      0.411183  KCAL/ANGSTROM
     54         18  H    CARTESIAN Z     1.743524      0.824276  KCAL/ANGSTROM
     55         19  H    CARTESIAN X     1.876806      1.870469  KCAL/ANGSTROM
     56         19  H    CARTESIAN Y    -1.545708      0.506716  KCAL/ANGSTROM
     57         19  H    CARTESIAN Z     1.139500      0.096271  KCAL/ANGSTROM
     58         20  H    CARTESIAN X    -1.046388      0.149441  KCAL/ANGSTROM
     59         20  H    CARTESIAN Y    -1.778650      0.594701  KCAL/ANGSTROM
     60         20  H    CARTESIAN Z     1.149669      0.319941  KCAL/ANGSTROM




   ATOM   CHEMICAL          X               Y               Z
  NUMBER   SYMBOL      (ANGSTROMS)     (ANGSTROMS)     (ANGSTROMS)

     1       C         -2.73615283  *  -0.22366037  *   1.21132827  *
     2       C         -2.89484955  *   0.91307424  *   0.46896281  *
     3       C         -1.76030154  *   1.00392689  *  -0.44579006  *
     4       N         -0.95881463  *  -0.10113942  *  -0.23828514  *
     5       C          0.30309565  *  -0.38191209  *  -0.94228423  *
     6       C          1.46616210  *   0.23979676  *  -0.20789455  *
     7       C          2.85342817  *  -0.31693904  *  -0.47214740  *
     8       C          2.20042610  *  -0.54709327  *   0.86064474  *
     9       C         -1.49789979  *  -0.86585309  *   0.77487581  *
    10       H         -3.38072534  *  -0.62044239  *   1.98601177  *
    11       H         -3.69643422  *   1.64053211  *   0.51038217  *
    12       H         -1.54517984  *   1.77865022  *  -1.17510642  *
    13       H          0.42629614  *  -1.49033513  *  -1.04862149  *
    14       H          0.24123157  *   0.02370122  *  -1.98601177  *
    15       H          1.37153584  *   1.32502609  *  -0.07517060  *
    16       H          2.99457775  *  -1.14573037  *  -1.16421400  *
    17       H          3.69643422  *   0.37329062  *  -0.55647381  *
    18       H          2.57633106  *  -0.02547529  *   1.74352424  *
    19       H          1.87680552  *  -1.54570816  *   1.13949974  *
    20       H         -1.04638847  *  -1.77865022  *   1.14966933  *

                             CARTESIAN COORDINATES

   1    C       -2.736152833    -0.223660371     1.211328274
   2    C       -2.894849553     0.913074242     0.468962814
   3    C       -1.760301535     1.003926887    -0.445790063
   4    N       -0.958814628    -0.101139419    -0.238285144
   5    C        0.303095649    -0.381912094    -0.942284235
   6    C        1.466162097     0.239796756    -0.207894548
   7    C        2.853428168    -0.316939041    -0.472147398
   8    C        2.200426102    -0.547093274     0.860644743
   9    C       -1.497899790    -0.865853091     0.774875814
  10    H       -3.380725339    -0.620442388     1.986011769
  11    H       -3.696434219     1.640532109     0.510382169
  12    H       -1.545179844     1.778650215    -1.175106421
  13    H        0.426296145    -1.490335134    -1.048621491
  14    H        0.241231569     0.023701222    -1.986011769
  15    H        1.371535840     1.325026091    -0.075170600
  16    H        2.994577750    -1.145730372    -1.164214005
  17    H        3.696434219     0.373290624    -0.556473807
  18    H        2.576331062    -0.025475290     1.743524236
  19    H        1.876805520    -1.545708162     1.139499743
  20    H       -1.046388473    -1.778650215     1.149669330


           Empirical Formula: C8 H11 N  =    20 atoms



      MOLECULAR POINT GROUP   :   C1  


          ALPHA EIGENVALUES  
 -39.09273 -31.16776 -29.59266 -26.35495 -25.14407 -21.43628 -21.20186 -21.09383
 -20.38656 -19.04419 -17.25930 -16.81077 -16.11508 -15.65068 -15.23032 -14.76320
 -14.60302 -13.90217 -13.15458 -12.69679 -11.99193 -11.69621 -11.08572 -10.95290
  -1.08833  -0.15116   0.32261   1.94359   2.20445   2.62606   3.15062   3.22161
   3.52380   3.87431   4.00571   4.09677   4.65919   4.68308   4.70699   5.12581
   5.15683   5.23939   5.33397   5.73201   5.81180   6.10436   6.17722


           BETA EIGENVALUES 
 -39.33732 -31.15899 -29.57394 -26.10048 -25.16110 -21.39506 -21.13675 -21.05750
 -20.34831 -19.00931 -17.22042 -16.70691 -16.05020 -15.63941 -14.81121 -14.67067
 -14.47352 -13.84264 -13.00997 -12.69684 -11.99238 -11.69782 -11.32608  -3.07561
   0.02223   0.32053   0.51755   1.95759   2.29506   2.74129   3.15010   3.29619
   3.53920   3.87297   4.06921   4.09798   4.68947   4.74636   4.78343   5.12279
   5.15449   5.25090   5.35185   5.73174   5.81183   6.10423   6.17720


              NET ATOMIC CHARGES AND DIPOLE CONTRIBUTIONS

  ATOM NO.   TYPE          CHARGE      No. of ELECS.   s-Pop       p-Pop       
    1          C          -0.154504        4.1545     1.10659     3.04791
    2          C          -0.156272        4.1563     1.10620     3.05007
    3          C           0.142241        3.8578     1.15116     2.70660
    4          N          -0.191554        5.1916     1.53129     3.66026
    5          C          -0.107284        4.1073     1.07913     3.02815
    6          C          -0.211780        4.2118     1.05074     3.16104
    7          C          -0.297290        4.2973     1.05468     3.24260
    8          C          -0.316884        4.3169     1.05482     3.26207
    9          C           0.139871        3.8601     1.15004     2.71009
   10          H           0.215302        0.7847     0.78470
   11          H           0.215632        0.7844     0.78437
   12          H           0.229372        0.7706     0.77063
   13          H           0.198024        0.8020     0.80198
   14          H           0.200794        0.7992     0.79921
   15          H           0.180648        0.8194     0.81935
   16          H           0.172071        0.8279     0.82793
   17          H           0.173815        0.8262     0.82619
   18          H           0.172525        0.8275     0.82748
   19          H           0.169283        0.8307     0.83072
   20          H           0.225990        0.7740     0.77401
 DIPOLE           X         Y         Z       TOTAL
 POINT-CHG.    -3.932     0.044    -0.735     4.000
 HYBRID         0.076    -0.089    -0.158     0.197
 SUM           -3.856    -0.045    -0.893     3.958


          ATOMIC ORBITAL ELECTRON POPULATIONS

     Atom    s        px        py        pz   
    1  C   1.10659   1.00133   0.99471   1.05187
    2  C   1.10620   1.03298   1.04433   0.97276
    3  C   1.15116   0.87645   0.87840   0.95175
    4  N   1.53129   1.20659   1.19682   1.25685
    5  C   1.07913   0.80745   1.16864   1.05206
    6  C   1.05074   0.96164   1.09679   1.10261
    7  C   1.05468   1.01685   1.15848   1.06727
    8  C   1.05482   1.10994   1.14272   1.00941
    9  C   1.15004   0.92965   0.96881   0.81164
   10  H   0.78470
   11  H   0.78437
   12  H   0.77063
   13  H   0.80198
   14  H   0.79921
   15  H   0.81935
   16  H   0.82793
   17  H   0.82619
   18  H   0.82748
   19  H   0.83072
   20  H   0.77401


                    (SZ)    =    0.500000
                    (S**2)  =    0.789936


          ATOMIC ORBITAL SPIN POPULATIONS

    Atom   Total    s     px     py     pz   
         Atomic
    1  C  0.0550 -0.001  0.010  0.015  0.032
    2  C  0.0479 -0.001  0.010  0.016  0.023
    3  C  0.5696  0.014  0.154  0.145  0.257
    4  N -0.2074 -0.012 -0.052 -0.059 -0.085
    5  C  0.0120  0.001  0.006  0.002  0.003
    6  C -0.0079 -0.001 -0.004 -0.001 -0.001
    7  C  0.0003  0.000  0.000  0.000 -0.000
    8  C  0.0005  0.000  0.000  0.000  0.000
    9  C  0.5683  0.014  0.150  0.161  0.244
   10  H -0.0018 -0.002
   11  H -0.0016 -0.002
   12  H -0.0154 -0.015
   13  H -0.0022 -0.002
   14  H -0.0020 -0.002
   15  H  0.0002  0.000
   16  H -0.0000 -0.000
   17  H -0.0001 -0.000
   18  H -0.0001 -0.000
   19  H -0.0001 -0.000
   20  H -0.0154 -0.015

 **********************
 *                    *
 * JOB ENDED NORMALLY *
 *                    *
 **********************



 TOTAL JOB TIME:             4.39 SECONDS

 == MOPAC DONE ==
