 *******************************************************************************
 **                                                                           **
 **                              MOPAC v23.2                                  **
 **                                                                           **
 *******************************************************************************
 **          Digital Object Identifier (DOI): 10.5281/zenodo.6511958          **
 **    Visit the DOI location for information on how to cite this program.    **
 *******************************************************************************

                              PM7 CALCULATION RESULTS

 *******************************************************************************
 *  CALCULATION DONE: (MAX THREADS = 40)             Fri Sep 19 21:44:50 2025  *
 *  PM7        - The PM7 Hamiltonian to be used
 *  1SCF       - DO 1 SCF AND THEN STOP 
 *  T=         - A TIME OF 172800.0 SECONDS REQUESTED
 *  DUMP=N     - RESTART FILE WRITTEN EVERY 7200.0 SECONDS REQUESTED
 *  RELSCF     - DEFAULT SCF CRITERION MULTIPLIED BY 0.0001
 *              (DEFAULT SCF CRITERION = 0.00010)
 *  GRADIENTS  - ALL GRADIENTS TO BE PRINTED
 *  DISP       - PRINT DISPERSION AND HYDROGEN BOND ENERGIES
 *******************************************************************************
PM7 1SCF GRADIENTS DISP RELSCF=0.0001
 Title: ASE calculation

   ATOM   CHEMICAL          X               Y               Z
  NUMBER   SYMBOL      (ANGSTROMS)     (ANGSTROMS)     (ANGSTROMS)

     1       C         -2.55284439  *   0.16221398  *  -0.49750877  *
     2       C         -1.09321226  *  -0.10469758  *  -0.76854935  *
     3       C         -0.34938069  *  -1.03931521  *   0.27580950  *
     4       C         -0.13887668  *   0.24425713  *   1.16443157  *
     5       C         -0.07398295  *   0.97972952  *  -0.22374112  *
     6       C          1.25333927  *   0.40326412  *  -0.79858504  *
     7       O          2.31897313  *   0.97639470  *  -0.09646208  *
     8       C          1.03227883  *  -1.09235193  *  -0.36752900  *
     9       O          1.79493882  *  -1.99759789  *  -0.49806327  *
    10       H         -2.92826125  *   0.97767298  *  -1.13018631  *
    11       H         -3.16446234  *  -0.72446270  *  -0.71023924  *
    12       H         -2.75294940  *   0.44547151  *   0.54309227  *
    13       H         -0.94856794  *  -0.39161254  *  -1.82194268  *
    14       H         -0.80581090  *  -1.93335436  *   0.65867126  *
    15       H         -0.98568994  *   0.50911699  *   1.79503491  *
    16       H          0.76778540  *   0.28000321  *   1.77161783  *
    17       H         -0.26234181  *   2.03431034  *  -0.30894696  *
    18       H          1.39132887  *   0.53879449  *  -1.88187848  *
    19       H          3.15675853  *   0.50811124  *  -0.31346384  *



          CARTESIAN COORDINATES 

    NO.       ATOM           X           Y           Z

     1         C         -2.5528      0.1622     -0.4975
     2         C         -1.0932     -0.1047     -0.7685
     3         C         -0.3494     -1.0393      0.2758
     4         C         -0.1389      0.2443      1.1644
     5         C         -0.0740      0.9797     -0.2237
     6         C          1.2533      0.4033     -0.7986
     7         O          2.3190      0.9764     -0.0965
     8         C          1.0323     -1.0924     -0.3675
     9         O          1.7949     -1.9976     -0.4981
    10         H         -2.9283      0.9777     -1.1302
    11         H         -3.1645     -0.7245     -0.7102
    12         H         -2.7529      0.4455      0.5431
    13         H         -0.9486     -0.3916     -1.8219
    14         H         -0.8058     -1.9334      0.6587
    15         H         -0.9857      0.5091      1.7950
    16         H          0.7678      0.2800      1.7716
    17         H         -0.2623      2.0343     -0.3089
    18         H          1.3913      0.5388     -1.8819
    19         H          3.1568      0.5081     -0.3135

 General Reference for PM7:
 "Optimization of Parameters for Semiempirical Methods VI: More Modifications to the 
 NDDO Approximations and Re-optimization of Parameters", J. J. P. Stewart, J. Mol. Mod., 1:32, 19 (2013)
 https://link.springer.com/article/10.1007/s00894-012-1667-x

           Empirical Formula: C7 H10 O2  =    19 atoms



      MOLECULAR POINT GROUP   :   C1  


      RHF CALCULATION, NO. OF DOUBLY OCCUPIED LEVELS = 25

  SCF CRITERION =    0.1000E-07

 -------------------------------------------------------------------------------
 PM7 1SCF GRADIENTS DISP RELSCF=0.0001
 Title: ASE calculation



     1SCF WAS SPECIFIED, SO BFGS WAS NOT USED                 
     SCF FIELD WAS ACHIEVED                                   


                              PM7 CALCULATION
                                                       MOPAC v23.2 Linux
                                                       Fri Sep 19 21:44:51 2025




          FINAL HEAT OF FORMATION =        -48.17989 KCAL/MOL =    -201.58464 KJ/MOL

          TOTAL ENERGY            =     -36529.11247 KCAL/MOL = ELECTRONIC ENERGY + CORE-CORE REPULSION
          ENERGY OF ATOMS         =      36482.50324 KCAL/MOL
                              SUM =        -46.60923 KCAL/MOL
          DISPERSION ENERGY       =         -1.57065 KCAL/MOL
                              SUM =        -48.17989 KCAL/MOL = FINAL HEAT OF FORMATION



          TOTAL ENERGY            =      -1584.05224 EV
          ELECTRONIC ENERGY       =      -7679.32403 EV 
          CORE-CORE REPULSION     =       6095.27179 EV
          COSMO AREA              =        155.78 SQUARE ANGSTROMS
          COSMO VOLUME            =        155.23 CUBIC ANGSTROMS

          GRADIENT NORM           =          1.22099          =       0.28011 PER ATOM
          IONIZATION POTENTIAL    =          9.843589 EV
          HOMO LUMO ENERGIES (EV) =         -9.844  0.482
          NO. OF FILLED LEVELS    =         25
          MOLECULAR WEIGHT        =        126.1548         POINT GROUP:  C1  

          MOLECULAR DIMENSIONS (Angstroms)

            Atom       Atom       Distance
            H    19    H    11     6.45248
            O     9    H    17     4.35920
            H    15    H    18     3.78076


          SCF CALCULATIONS        =          1

          WALL-CLOCK TIME         =      0.617 SECONDS
          COMPUTATION TIME        =      0.622 SECONDS

          LARGEST ATOMIC GRADIENTS

          Atom     Label                     Cartesian Gradients           Cartesian Coordinates       |Gradient|
                                           X          Y          Z        X          Y          Z

             8       C                   0.041      0.081      0.441    1.03228   -1.09235   -0.36753      0.450
             5       C                   0.089      0.107      0.419   -0.07398    0.97973   -0.22374      0.442
            11       H                   0.006      0.336      0.015   -3.16446   -0.72446   -0.71024      0.336
            12       H                  -0.333     -0.041     -0.004   -2.75295    0.44547    0.54309      0.336
            16       H                  -0.009     -0.281     -0.177    0.76779    0.28000    1.77162      0.332
             7       O                  -0.097     -0.154     -0.261    2.31897    0.97639   -0.09646      0.318
             9       O                   0.170      0.011      0.267    1.79494   -1.99760   -0.49806      0.316
            18       H                   0.246     -0.126     -0.130    1.39133    0.53879   -1.88188      0.306
            15       H                   0.152     -0.200      0.109   -0.98569    0.50912    1.79503      0.274
            19       H                  -0.105      0.126     -0.214    3.15676    0.50811   -0.31346      0.269



       FINAL  POINT  AND  DERIVATIVES

   PARAMETER     ATOM    TYPE            VALUE        GRADIENT
      1          1  C    CARTESIAN X    -2.552844      0.189867  KCAL/ANGSTROM
      2          1  C    CARTESIAN Y     0.162214      0.069424  KCAL/ANGSTROM
      3          1  C    CARTESIAN Z    -0.497509      0.048344  KCAL/ANGSTROM
      4          2  C    CARTESIAN X    -1.093212      0.099853  KCAL/ANGSTROM
      5          2  C    CARTESIAN Y    -0.104698      0.009495  KCAL/ANGSTROM
      6          2  C    CARTESIAN Z    -0.768549      0.035115  KCAL/ANGSTROM
      7          3  C    CARTESIAN X    -0.349381      0.073741  KCAL/ANGSTROM
      8          3  C    CARTESIAN Y    -1.039315     -0.012500  KCAL/ANGSTROM
      9          3  C    CARTESIAN Z     0.275809     -0.058566  KCAL/ANGSTROM
     10          4  C    CARTESIAN X    -0.138877     -0.153889  KCAL/ANGSTROM
     11          4  C    CARTESIAN Y     0.244257      0.098668  KCAL/ANGSTROM
     12          4  C    CARTESIAN Z     1.164432      0.111153  KCAL/ANGSTROM
     13          5  C    CARTESIAN X    -0.073983      0.088962  KCAL/ANGSTROM
     14          5  C    CARTESIAN Y     0.979730      0.106899  KCAL/ANGSTROM
     15          5  C    CARTESIAN Z    -0.223741      0.419089  KCAL/ANGSTROM
     16          6  C    CARTESIAN X     1.253339     -0.202554  KCAL/ANGSTROM
     17          6  C    CARTESIAN Y     0.403264      0.077329  KCAL/ANGSTROM
     18          6  C    CARTESIAN Z    -0.798585     -0.092185  KCAL/ANGSTROM
     19          7  O    CARTESIAN X     2.318973     -0.097490  KCAL/ANGSTROM
     20          7  O    CARTESIAN Y     0.976395     -0.154467  KCAL/ANGSTROM
     21          7  O    CARTESIAN Z    -0.096462     -0.260607  KCAL/ANGSTROM
     22          8  C    CARTESIAN X     1.032279      0.041202  KCAL/ANGSTROM
     23          8  C    CARTESIAN Y    -1.092352      0.080960  KCAL/ANGSTROM
     24          8  C    CARTESIAN Z    -0.367529      0.441090  KCAL/ANGSTROM
     25          9  O    CARTESIAN X     1.794939      0.169939  KCAL/ANGSTROM
     26          9  O    CARTESIAN Y    -1.997598      0.011406  KCAL/ANGSTROM
     27          9  O    CARTESIAN Z    -0.498063      0.266586  KCAL/ANGSTROM
     28         10  H    CARTESIAN X    -2.928261     -0.023247  KCAL/ANGSTROM
     29         10  H    CARTESIAN Y     0.977673     -0.146718  KCAL/ANGSTROM
     30         10  H    CARTESIAN Z    -1.130186     -0.037305  KCAL/ANGSTROM
     31         11  H    CARTESIAN X    -3.164462      0.006367  KCAL/ANGSTROM
     32         11  H    CARTESIAN Y    -0.724463      0.335859  KCAL/ANGSTROM
     33         11  H    CARTESIAN Z    -0.710239      0.015478  KCAL/ANGSTROM
     34         12  H    CARTESIAN X    -2.752949     -0.333490  KCAL/ANGSTROM
     35         12  H    CARTESIAN Y     0.445472     -0.040638  KCAL/ANGSTROM
     36         12  H    CARTESIAN Z     0.543092     -0.003668  KCAL/ANGSTROM
     37         13  H    CARTESIAN X    -0.948568      0.026053  KCAL/ANGSTROM
     38         13  H    CARTESIAN Y    -0.391613     -0.073053  KCAL/ANGSTROM
     39         13  H    CARTESIAN Z    -1.821943     -0.220696  KCAL/ANGSTROM
     40         14  H    CARTESIAN X    -0.805811     -0.045835  KCAL/ANGSTROM
     41         14  H    CARTESIAN Y    -1.933354      0.019141  KCAL/ANGSTROM
     42         14  H    CARTESIAN Z     0.658671     -0.204365  KCAL/ANGSTROM
     43         15  H    CARTESIAN X    -0.985690      0.151658  KCAL/ANGSTROM
     44         15  H    CARTESIAN Y     0.509117     -0.200083  KCAL/ANGSTROM
     45         15  H    CARTESIAN Z     1.795035      0.109196  KCAL/ANGSTROM
     46         16  H    CARTESIAN X     0.767785     -0.009093  KCAL/ANGSTROM
     47         16  H    CARTESIAN Y     0.280003     -0.280555  KCAL/ANGSTROM
     48         16  H    CARTESIAN Z     1.771618     -0.177302  KCAL/ANGSTROM
     49         17  H    CARTESIAN X    -0.262342     -0.123326  KCAL/ANGSTROM
     50         17  H    CARTESIAN Y     2.034310      0.099094  KCAL/ANGSTROM
     51         17  H    CARTESIAN Z    -0.308947     -0.047553  KCAL/ANGSTROM
     52         18  H    CARTESIAN X     1.391329      0.246184  KCAL/ANGSTROM
     53         18  H    CARTESIAN Y     0.538794     -0.126289  KCAL/ANGSTROM
     54         18  H    CARTESIAN Z    -1.881878     -0.130215  KCAL/ANGSTROM
     55         19  H    CARTESIAN X     3.156759     -0.104906  KCAL/ANGSTROM
     56         19  H    CARTESIAN Y     0.508111      0.126021  KCAL/ANGSTROM
     57         19  H    CARTESIAN Z    -0.313464     -0.213593  KCAL/ANGSTROM




   ATOM   CHEMICAL          X               Y               Z
  NUMBER   SYMBOL      (ANGSTROMS)     (ANGSTROMS)     (ANGSTROMS)

     1       C         -2.55284439  *   0.16221398  *  -0.49750877  *
     2       C         -1.09321226  *  -0.10469758  *  -0.76854935  *
     3       C         -0.34938069  *  -1.03931521  *   0.27580950  *
     4       C         -0.13887668  *   0.24425713  *   1.16443157  *
     5       C         -0.07398295  *   0.97972952  *  -0.22374112  *
     6       C          1.25333927  *   0.40326412  *  -0.79858504  *
     7       O          2.31897313  *   0.97639470  *  -0.09646208  *
     8       C          1.03227883  *  -1.09235193  *  -0.36752900  *
     9       O          1.79493882  *  -1.99759789  *  -0.49806327  *
    10       H         -2.92826125  *   0.97767298  *  -1.13018631  *
    11       H         -3.16446234  *  -0.72446270  *  -0.71023924  *
    12       H         -2.75294940  *   0.44547151  *   0.54309227  *
    13       H         -0.94856794  *  -0.39161254  *  -1.82194268  *
    14       H         -0.80581090  *  -1.93335436  *   0.65867126  *
    15       H         -0.98568994  *   0.50911699  *   1.79503491  *
    16       H          0.76778540  *   0.28000321  *   1.77161783  *
    17       H         -0.26234181  *   2.03431034  *  -0.30894696  *
    18       H          1.39132887  *   0.53879449  *  -1.88187848  *
    19       H          3.15675853  *   0.50811124  *  -0.31346384  *

                             CARTESIAN COORDINATES

   1    C       -2.552844385     0.162213978    -0.497508773
   2    C       -1.093212258    -0.104697580    -0.768549353
   3    C       -0.349380693    -1.039315209     0.275809499
   4    C       -0.138876676     0.244257125     1.164431571
   5    C       -0.073982950     0.979729519    -0.223741122
   6    C        1.253339268     0.403264119    -0.798585039
   7    O        2.318973132     0.976394702    -0.096462081
   8    C        1.032278825    -1.092351932    -0.367528998
   9    O        1.794938816    -1.997597895    -0.498063267
  10    H       -2.928261255     0.977672978    -1.130186308
  11    H       -3.164462337    -0.724462699    -0.710239240
  12    H       -2.752949400     0.445471511     0.543092275
  13    H       -0.948567935    -0.391612541    -1.821942684
  14    H       -0.805810903    -1.933354359     0.658671257
  15    H       -0.985689940     0.509116994     1.795034908
  16    H        0.767785400     0.280003212     1.771617826
  17    H       -0.262341808     2.034310338    -0.308946961
  18    H        1.391328866     0.538794492    -1.881878475
  19    H        3.156758528     0.508111235    -0.313463843


           Empirical Formula: C7 H10 O2  =    19 atoms



      MOLECULAR POINT GROUP   :   C1  


                  EIGENVALUES  
 -32.95804 -31.23443 -29.51457 -26.37139 -24.23580 -23.36712 -21.55754 -18.99510
 -18.81966 -17.55927 -17.14831 -16.43324 -15.29880 -15.04445 -14.38011 -14.06334
 -13.73174 -13.50379 -12.98597 -12.63676 -12.33442 -11.60055 -11.51389 -11.40113
  -9.84359   0.48175   2.26320   2.44784   2.86329   2.91753   3.08713   3.33080
   3.54967   4.16578   4.55397   5.11422   5.21490   5.25359   5.41934   5.62081
   5.63643   5.70422   5.89366   6.00573   6.24747   6.61996


              NET ATOMIC CHARGES AND DIPOLE CONTRIBUTIONS

  ATOM NO.   TYPE          CHARGE      No. of ELECS.   s-Pop       p-Pop       
    1          C          -0.446658        4.4467     1.04986     3.39680
    2          C          -0.100525        4.1005     1.07892     3.02161
    3          C          -0.238191        4.2382     1.09954     3.13865
    4          C          -0.267738        4.2677     1.07882     3.18892
    5          C          -0.136295        4.1363     1.09367     3.04263
    6          C           0.022403        3.9776     1.11369     2.86391
    7          O          -0.519049        6.5190     1.84934     4.66971
    8          C           0.410917        3.5891     1.15954     2.42954
    9          O          -0.413880        6.4139     1.87174     4.54214
   10          H           0.151861        0.8481     0.84814
   11          H           0.152687        0.8473     0.84731
   12          H           0.153198        0.8468     0.84680
   13          H           0.138024        0.8620     0.86198
   14          H           0.165667        0.8343     0.83433
   15          H           0.148152        0.8518     0.85185
   16          H           0.160408        0.8396     0.83959
   17          H           0.157179        0.8428     0.84282
   18          H           0.137134        0.8629     0.86287
   19          H           0.324706        0.6753     0.67529
 DIPOLE           X         Y         Z       TOTAL
 POINT-CHG.    -2.767     1.333    -0.758     3.163
 HYBRID         0.546    -0.283     0.157     0.635
 SUM           -2.221     1.050    -0.600     2.529


          ATOMIC ORBITAL ELECTRON POPULATIONS

     Atom    s        px        py        pz   
    1  C   1.04986   1.03921   1.17565   1.18194
    2  C   1.07892   0.96898   0.99567   1.05696
    3  C   1.09954   1.03625   1.05695   1.04545
    4  C   1.07882   1.17021   0.99415   1.02456
    5  C   1.09367   0.97083   1.06807   1.00374
    6  C   1.11369   0.87464   0.96942   1.01985
    7  O   1.84934   1.30282   1.63659   1.73031
    8  C   1.15954   0.85012   0.87108   0.70834
    9  O   1.87174   1.54771   1.50467   1.48976
   10  H   0.84814
   11  H   0.84731
   12  H   0.84680
   13  H   0.86198
   14  H   0.83433
   15  H   0.85185
   16  H   0.83959
   17  H   0.84282
   18  H   0.86287
   19  H   0.67529

 **********************
 *                    *
 * JOB ENDED NORMALLY *
 *                    *
 **********************



 TOTAL JOB TIME:             1.18 SECONDS

 == MOPAC DONE ==
