 *******************************************************************************
 **                                                                           **
 **                              MOPAC v23.2                                  **
 **                                                                           **
 *******************************************************************************
 **          Digital Object Identifier (DOI): 10.5281/zenodo.6511958          **
 **    Visit the DOI location for information on how to cite this program.    **
 *******************************************************************************

                              PM7 CALCULATION RESULTS

 *******************************************************************************
 *  CALCULATION DONE: (MAX THREADS = 40)             Fri Sep 19 21:38:18 2025  *
 *  PM7        - The PM7 Hamiltonian to be used
 *  EPS=37.5   - USE ANDREAS KLAMT'S COSMO IMPLICIT SOLVATION MODEL
 *  1SCF       - DO 1 SCF AND THEN STOP 
 *  T=         - A TIME OF 172800.0 SECONDS REQUESTED
 *  DUMP=N     - RESTART FILE WRITTEN EVERY 7200.0 SECONDS REQUESTED
 *  RELSCF     - DEFAULT SCF CRITERION MULTIPLIED BY 0.0001
 *              (DEFAULT SCF CRITERION = 0.00010)
 *  GRADIENTS  - ALL GRADIENTS TO BE PRINTED
 *  DISP       - PRINT DISPERSION AND HYDROGEN BOND ENERGIES
 *******************************************************************************
PM7 1SCF GRADIENTS EPS=37.5 DISP RELSCF=0.0001
 Title: ASE calculation

   ATOM   CHEMICAL          X               Y               Z
  NUMBER   SYMBOL      (ANGSTROMS)     (ANGSTROMS)     (ANGSTROMS)

     1       C          2.43707215  *  -1.00784889  *  -0.46996193  *
     2       C          1.23844498  *  -0.22767040  *   0.06693262  *
     3       C          1.19370975  *   1.17066645  *  -0.57262562  *
     4       O          0.10716120  *   1.97994153  *  -0.16400230  *
     5       C         -0.97968478  *   1.35435479  *   0.49223529  *
     6       C         -1.30359602  *  -0.01931265  *  -0.05227374  *
     7       C         -2.43686403  *  -0.05595848  *  -1.03565127  *
     8       C         -1.05654598  *  -1.21751621  *   0.84716023  *
     9       C         -0.07652463  *  -0.90402419  *  -0.26020333  *
    10       H          2.39176595  *  -1.13066873  *  -1.55781955  *
    11       H          3.38004704  *  -0.50085100  *  -0.23346988  *
    12       H          2.48322191  *  -2.01045956  *  -0.02831491  *
    13       H          1.34676690  *  -0.11752185  *   1.17381016  *
    14       H          2.07401799  *   1.77938637  *  -0.29699145  *
    15       H          1.11460535  *   1.10447378  *  -1.67393481  *
    16       H         -0.73935605  *   1.32941584  *   1.57196227  *
    17       H         -1.79287921  *   2.08698488  *   0.32320122  *
    18       H         -2.59977295  *  -1.05891194  *  -1.44799720  *
    19       H         -3.38004704  *   0.26073318  *  -0.57107660  *
    20       H         -2.24212505  *   0.61616617  *  -1.88418916  *
    21       H         -1.70146812  *  -2.08698488  *   0.75946368  *
    22       H         -0.77240497  *  -1.07354459  *   1.88418916  *
    23       H         -0.03811053  *  -1.56956560  *  -1.12344771  *



          CARTESIAN COORDINATES 

    NO.       ATOM           X           Y           Z

     1         C          2.4371     -1.0078     -0.4700
     2         C          1.2384     -0.2277      0.0669
     3         C          1.1937      1.1707     -0.5726
     4         O          0.1072      1.9799     -0.1640
     5         C         -0.9797      1.3544      0.4922
     6         C         -1.3036     -0.0193     -0.0523
     7         C         -2.4369     -0.0560     -1.0357
     8         C         -1.0565     -1.2175      0.8472
     9         C         -0.0765     -0.9040     -0.2602
    10         H          2.3918     -1.1307     -1.5578
    11         H          3.3800     -0.5009     -0.2335
    12         H          2.4832     -2.0105     -0.0283
    13         H          1.3468     -0.1175      1.1738
    14         H          2.0740      1.7794     -0.2970
    15         H          1.1146      1.1045     -1.6739
    16         H         -0.7394      1.3294      1.5720
    17         H         -1.7929      2.0870      0.3232
    18         H         -2.5998     -1.0589     -1.4480
    19         H         -3.3800      0.2607     -0.5711
    20         H         -2.2421      0.6162     -1.8842
    21         H         -1.7015     -2.0870      0.7595
    22         H         -0.7724     -1.0735      1.8842
    23         H         -0.0381     -1.5696     -1.1234

 General Reference for PM7:
 "Optimization of Parameters for Semiempirical Methods VI: More Modifications to the 
 NDDO Approximations and Re-optimization of Parameters", J. J. P. Stewart, J. Mol. Mod., 1:32, 19 (2013)
 https://link.springer.com/article/10.1007/s00894-012-1667-x

           Empirical Formula: C8 H14 O  =    23 atoms



      MOLECULAR POINT GROUP   :   C1  


      RHF CALCULATION, NO. OF DOUBLY OCCUPIED LEVELS = 26

  SCF CRITERION =    0.1000E-07

 -------------------------------------------------------------------------------
 PM7 1SCF GRADIENTS EPS=37.5 DISP RELSCF=0.0001
 Title: ASE calculation



     1SCF WAS SPECIFIED, SO BFGS WAS NOT USED                 
     SCF FIELD WAS ACHIEVED                                   


                              PM7 CALCULATION
                                                       MOPAC v23.2 Linux
                                                       Fri Sep 19 21:38:18 2025




          FINAL HEAT OF FORMATION =        -42.54842 KCAL/MOL =    -178.02259 KJ/MOL

          TOTAL ENERGY            =     -33822.44271 KCAL/MOL = ELECTRONIC ENERGY + CORE-CORE REPULSION + SOLVATION ENERGY
          ENERGY OF ATOMS         =      33782.22825 KCAL/MOL
                              SUM =        -40.21446 KCAL/MOL
          DISPERSION ENERGY       =         -2.33396 KCAL/MOL
                              SUM =        -42.54842 KCAL/MOL = FINAL HEAT OF FORMATION

          VAN DER WAALS AREA      =        170.44 SQUARE ANGSTROMS


          TOTAL ENERGY            =      -1466.67993 EV
          ELECTRONIC ENERGY       =      -2512.40342 EV 
          CORE-CORE REPULSION     =       1045.72348 EV

          DIELECTRIC ENERGY       =         -0.21608 EV
          COSMO AREA              =        170.44 SQUARE ANGSTROMS
          COSMO VOLUME            =        176.77 CUBIC ANGSTROMS

          GRADIENT NORM           =          5.86077          =       1.22205 PER ATOM
          IONIZATION POTENTIAL    =          9.992408 EV
          HOMO LUMO ENERGIES (EV) =         -9.992  2.007
          NO. OF FILLED LEVELS    =         26
          MOLECULAR WEIGHT        =        126.1980         POINT GROUP:  C1  

          MOLECULAR DIMENSIONS (Angstroms)

            Atom       Atom       Distance
            H    19    H    11     6.81123
            H    14    H    21     4.43571
            H    16    H    10     3.74265


          SCF CALCULATIONS        =          2

          WALL-CLOCK TIME         =      0.531 SECONDS
          COMPUTATION TIME        =      0.449 SECONDS

          LARGEST ATOMIC GRADIENTS

          Atom     Label                     Cartesian Gradients           Cartesian Coordinates       |Gradient|
                                           X          Y          Z        X          Y          Z

             5       C                   2.863      0.098     -0.674   -0.97968    1.35435    0.49224      2.943
             3       C                  -2.279      0.399      1.050    1.19371    1.17067   -0.57263      2.540
             7       C                  -1.419     -0.960     -0.387   -2.43686   -0.05596   -1.03565      1.756
             1       C                   1.375     -0.612     -0.550    2.43707   -1.00785   -0.46996      1.602
             8       C                  -0.636     -1.012      1.034   -1.05655   -1.21752    0.84716      1.580
            17       H                   1.066      0.033     -0.168   -1.79288    2.08698    0.32320      1.080
            23       H                  -0.160      0.336      0.998   -0.03811   -1.56957   -1.12345      1.065
             9       C                   0.140     -0.020     -1.017   -0.07652   -0.90402   -0.26020      1.027
            22       H                  -0.110     -0.332     -0.933   -0.77240   -1.07354    1.88419      0.996
            18       H                   0.235      0.768      0.403   -2.59977   -1.05891   -1.44800      0.899



       FINAL  POINT  AND  DERIVATIVES

   PARAMETER     ATOM    TYPE            VALUE        GRADIENT
      1          1  C    CARTESIAN X     2.437072      1.374752  KCAL/ANGSTROM
      2          1  C    CARTESIAN Y    -1.007849     -0.611799  KCAL/ANGSTROM
      3          1  C    CARTESIAN Z    -0.469962     -0.550024  KCAL/ANGSTROM
      4          2  C    CARTESIAN X     1.238445      0.395910  KCAL/ANGSTROM
      5          2  C    CARTESIAN Y    -0.227670     -0.539336  KCAL/ANGSTROM
      6          2  C    CARTESIAN Z     0.066933      0.229531  KCAL/ANGSTROM
      7          3  C    CARTESIAN X     1.193710     -2.278593  KCAL/ANGSTROM
      8          3  C    CARTESIAN Y     1.170666      0.399283  KCAL/ANGSTROM
      9          3  C    CARTESIAN Z    -0.572626      1.049835  KCAL/ANGSTROM
     10          4  O    CARTESIAN X     0.107161     -0.362189  KCAL/ANGSTROM
     11          4  O    CARTESIAN Y     1.979942      0.474598  KCAL/ANGSTROM
     12          4  O    CARTESIAN Z    -0.164002     -0.291661  KCAL/ANGSTROM
     13          5  C    CARTESIAN X    -0.979685      2.863444  KCAL/ANGSTROM
     14          5  C    CARTESIAN Y     1.354355      0.097872  KCAL/ANGSTROM
     15          5  C    CARTESIAN Z     0.492235     -0.674140  KCAL/ANGSTROM
     16          6  C    CARTESIAN X    -1.303596     -0.356491  KCAL/ANGSTROM
     17          6  C    CARTESIAN Y    -0.019313     -0.416204  KCAL/ANGSTROM
     18          6  C    CARTESIAN Z    -0.052274      0.329595  KCAL/ANGSTROM
     19          7  C    CARTESIAN X    -2.436864     -1.418623  KCAL/ANGSTROM
     20          7  C    CARTESIAN Y    -0.055958     -0.960260  KCAL/ANGSTROM
     21          7  C    CARTESIAN Z    -1.035651     -0.386826  KCAL/ANGSTROM
     22          8  C    CARTESIAN X    -1.056546     -0.635747  KCAL/ANGSTROM
     23          8  C    CARTESIAN Y    -1.217516     -1.011601  KCAL/ANGSTROM
     24          8  C    CARTESIAN Z     0.847160      1.034376  KCAL/ANGSTROM
     25          9  C    CARTESIAN X    -0.076525      0.140303  KCAL/ANGSTROM
     26          9  C    CARTESIAN Y    -0.904024     -0.019599  KCAL/ANGSTROM
     27          9  C    CARTESIAN Z    -0.260203     -1.017132  KCAL/ANGSTROM
     28         10  H    CARTESIAN X     2.391766     -0.132915  KCAL/ANGSTROM
     29         10  H    CARTESIAN Y    -1.130669      0.172627  KCAL/ANGSTROM
     30         10  H    CARTESIAN Z    -1.557820      0.618129  KCAL/ANGSTROM
     31         11  H    CARTESIAN X     3.380047     -0.694083  KCAL/ANGSTROM
     32         11  H    CARTESIAN Y    -0.500851      0.103849  KCAL/ANGSTROM
     33         11  H    CARTESIAN Z    -0.233470      0.150935  KCAL/ANGSTROM
     34         12  H    CARTESIAN X     2.483222     -0.152717  KCAL/ANGSTROM
     35         12  H    CARTESIAN Y    -2.010460      0.457752  KCAL/ANGSTROM
     36         12  H    CARTESIAN Z    -0.028315      0.147237  KCAL/ANGSTROM
     37         13  H    CARTESIAN X     1.346767     -0.030166  KCAL/ANGSTROM
     38         13  H    CARTESIAN Y    -0.117522     -0.180715  KCAL/ANGSTROM
     39         13  H    CARTESIAN Z     1.173810     -0.718928  KCAL/ANGSTROM
     40         14  H    CARTESIAN X     2.074018     -0.881339  KCAL/ANGSTROM
     41         14  H    CARTESIAN Y     1.779386      0.084616  KCAL/ANGSTROM
     42         14  H    CARTESIAN Z    -0.296991      0.018110  KCAL/ANGSTROM
     43         15  H    CARTESIAN X     1.114605     -0.029040  KCAL/ANGSTROM
     44         15  H    CARTESIAN Y     1.104474      0.227943  KCAL/ANGSTROM
     45         15  H    CARTESIAN Z    -1.673935      0.202462  KCAL/ANGSTROM
     46         16  H    CARTESIAN X    -0.739356     -0.411206  KCAL/ANGSTROM
     47         16  H    CARTESIAN Y     1.329416      0.242334  KCAL/ANGSTROM
     48         16  H    CARTESIAN Z     1.571962     -0.537968  KCAL/ANGSTROM
     49         17  H    CARTESIAN X    -1.792879      1.065809  KCAL/ANGSTROM
     50         17  H    CARTESIAN Y     2.086985      0.033331  KCAL/ANGSTROM
     51         17  H    CARTESIAN Z     0.323201     -0.168146  KCAL/ANGSTROM
     52         18  H    CARTESIAN X    -2.599773      0.234784  KCAL/ANGSTROM
     53         18  H    CARTESIAN Y    -1.058912      0.768341  KCAL/ANGSTROM
     54         18  H    CARTESIAN Z    -1.447997      0.402672  KCAL/ANGSTROM
     55         19  H    CARTESIAN X    -3.380047      0.741501  KCAL/ANGSTROM
     56         19  H    CARTESIAN Y     0.260733     -0.151807  KCAL/ANGSTROM
     57         19  H    CARTESIAN Z    -0.571077      0.024884  KCAL/ANGSTROM
     58         20  H    CARTESIAN X    -2.242125      0.605651  KCAL/ANGSTROM
     59         20  H    CARTESIAN Y     0.616166      0.210068  KCAL/ANGSTROM
     60         20  H    CARTESIAN Z    -1.884189      0.122377  KCAL/ANGSTROM
     61         21  H    CARTESIAN X    -1.701468      0.231186  KCAL/ANGSTROM
     62         21  H    CARTESIAN Y    -2.086985      0.615278  KCAL/ANGSTROM
     63         21  H    CARTESIAN Z     0.759464     -0.050045  KCAL/ANGSTROM
     64         22  H    CARTESIAN X    -0.772405     -0.110150  KCAL/ANGSTROM
     65         22  H    CARTESIAN Y    -1.073545     -0.332083  KCAL/ANGSTROM
     66         22  H    CARTESIAN Z     1.884189     -0.932830  KCAL/ANGSTROM
     67         23  H    CARTESIAN X    -0.038111     -0.160081  KCAL/ANGSTROM
     68         23  H    CARTESIAN Y    -1.569566      0.335511  KCAL/ANGSTROM
     69         23  H    CARTESIAN Z    -1.123448      0.997555  KCAL/ANGSTROM




   ATOM   CHEMICAL          X               Y               Z
  NUMBER   SYMBOL      (ANGSTROMS)     (ANGSTROMS)     (ANGSTROMS)

     1       C          2.43707215  *  -1.00784889  *  -0.46996193  *
     2       C          1.23844498  *  -0.22767040  *   0.06693262  *
     3       C          1.19370975  *   1.17066645  *  -0.57262562  *
     4       O          0.10716120  *   1.97994153  *  -0.16400230  *
     5       C         -0.97968478  *   1.35435479  *   0.49223529  *
     6       C         -1.30359602  *  -0.01931265  *  -0.05227374  *
     7       C         -2.43686403  *  -0.05595848  *  -1.03565127  *
     8       C         -1.05654598  *  -1.21751621  *   0.84716023  *
     9       C         -0.07652463  *  -0.90402419  *  -0.26020333  *
    10       H          2.39176595  *  -1.13066873  *  -1.55781955  *
    11       H          3.38004704  *  -0.50085100  *  -0.23346988  *
    12       H          2.48322191  *  -2.01045956  *  -0.02831491  *
    13       H          1.34676690  *  -0.11752185  *   1.17381016  *
    14       H          2.07401799  *   1.77938637  *  -0.29699145  *
    15       H          1.11460535  *   1.10447378  *  -1.67393481  *
    16       H         -0.73935605  *   1.32941584  *   1.57196227  *
    17       H         -1.79287921  *   2.08698488  *   0.32320122  *
    18       H         -2.59977295  *  -1.05891194  *  -1.44799720  *
    19       H         -3.38004704  *   0.26073318  *  -0.57107660  *
    20       H         -2.24212505  *   0.61616617  *  -1.88418916  *
    21       H         -1.70146812  *  -2.08698488  *   0.75946368  *
    22       H         -0.77240497  *  -1.07354459  *   1.88418916  *
    23       H         -0.03811053  *  -1.56956560  *  -1.12344771  *

                             CARTESIAN COORDINATES

   1    C        2.437072152    -1.007848887    -0.469961931
   2    C        1.238444977    -0.227670404     0.066932616
   3    C        1.193709746     1.170666453    -0.572625617
   4    O        0.107161199     1.979941530    -0.164002298
   5    C       -0.979684782     1.354354793     0.492235293
   6    C       -1.303596023    -0.019312651    -0.052273741
   7    C       -2.436864030    -0.055958476    -1.035651272
   8    C       -1.056545978    -1.217516210     0.847160230
   9    C       -0.076524628    -0.904024187    -0.260203334
  10    H        2.391765949    -1.130668733    -1.557819545
  11    H        3.380047044    -0.500850998    -0.233469882
  12    H        2.483221910    -2.010459561    -0.028314910
  13    H        1.346766897    -0.117521850     1.173810165
  14    H        2.074017986     1.779386365    -0.296991452
  15    H        1.114605350     1.104473780    -1.673934813
  16    H       -0.739356048     1.329415841     1.571962265
  17    H       -1.792879212     2.086984880     0.323201223
  18    H       -2.599772948    -1.058911941    -1.447997203
  19    H       -3.380047044     0.260733181    -0.571076604
  20    H       -2.242125047     0.616166169    -1.884189161
  21    H       -1.701468118    -2.086984880     0.759463681
  22    H       -0.772404966    -1.073544593     1.884189161
  23    H       -0.038110529    -1.569565597    -1.123447709


           Empirical Formula: C8 H14 O  =    23 atoms



      MOLECULAR POINT GROUP   :   C1  


                  EIGENVALUES  
 -31.76472 -28.98880 -27.96597 -25.15181 -24.44777 -23.04871 -21.31381 -19.80233
 -18.26043 -16.81767 -16.58526 -16.10032 -15.14785 -14.80852 -14.20053 -13.81014
 -13.59203 -13.33035 -13.01142 -12.70043 -12.21197 -12.08534 -11.68688 -10.77825
 -10.55379  -9.99241   2.00703   2.44278   3.60233   3.81720   3.94675   4.11232
   4.52952   4.57024   4.74483   4.85729   5.64172   5.68527   5.78589   5.79360
   5.80617   5.81939   5.87965   5.98020   6.07337   6.22164   6.28611   6.49061
   6.96210   6.98327


              NET ATOMIC CHARGES AND DIPOLE CONTRIBUTIONS

  ATOM NO.   TYPE          CHARGE      No. of ELECS.   s-Pop       p-Pop       
    1          C          -0.458332        4.4583     1.05473     3.40360
    2          C          -0.126563        4.1266     1.06067     3.06589
    3          C          -0.031871        4.0319     1.09310     2.93877
    4          O          -0.486948        6.4869     1.86866     4.61829
    5          C          -0.022530        4.0225     1.08734     2.93519
    6          C          -0.032346        4.0323     1.04280     2.98954
    7          C          -0.447815        4.4478     1.05052     3.39730
    8          C          -0.362724        4.3627     1.05847     3.30425
    9          C          -0.175131        4.1751     1.05770     3.11743
   10          H           0.154414        0.8456     0.84559
   11          H           0.155478        0.8445     0.84452
   12          H           0.155174        0.8448     0.84483
   13          H           0.153907        0.8461     0.84609
   14          H           0.138068        0.8619     0.86193
   15          H           0.133211        0.8668     0.86679
   16          H           0.133191        0.8668     0.86681
   17          H           0.149393        0.8506     0.85061
   18          H           0.156880        0.8431     0.84312
   19          H           0.159295        0.8407     0.84071
   20          H           0.158395        0.8416     0.84161
   21          H           0.166167        0.8338     0.83383
   22          H           0.166064        0.8339     0.83394
   23          H           0.164624        0.8354     0.83538
 DIPOLE           X         Y         Z       TOTAL
 POINT-CHG.     0.122    -2.050     0.136     2.059
 HYBRID        -0.048     0.024    -0.069     0.088
 SUM            0.074    -2.026     0.067     2.029


          ATOMIC ORBITAL ELECTRON POPULATIONS

     Atom    s        px        py        pz   
    1  C   1.05473   1.08768   1.14646   1.16946
    2  C   1.06067   0.97114   0.98458   1.11017
    3  C   1.09310   0.89983   0.96217   1.07678
    4  O   1.86866   1.37446   1.42250   1.82133
    5  C   1.08734   0.90957   0.99276   1.03286
    6  C   1.04280   1.00783   0.93850   1.04321
    7  C   1.05052   1.09189   1.18881   1.11661
    8  C   1.05847   1.13403   1.10241   1.06781
    9  C   1.05770   0.94705   1.08845   1.08193
   10  H   0.84559
   11  H   0.84452
   12  H   0.84483
   13  H   0.84609
   14  H   0.86193
   15  H   0.86679
   16  H   0.86681
   17  H   0.85061
   18  H   0.84312
   19  H   0.84071
   20  H   0.84161
   21  H   0.83383
   22  H   0.83394
   23  H   0.83538

 **********************
 *                    *
 * JOB ENDED NORMALLY *
 *                    *
 **********************



 TOTAL JOB TIME:             0.91 SECONDS

 == MOPAC DONE ==
