 *******************************************************************************
 **                                                                           **
 **                              MOPAC v23.2                                  **
 **                                                                           **
 *******************************************************************************
 **          Digital Object Identifier (DOI): 10.5281/zenodo.6511958          **
 **    Visit the DOI location for information on how to cite this program.    **
 *******************************************************************************

                              PM7 CALCULATION RESULTS

 *******************************************************************************
 *  CALCULATION DONE: (MAX THREADS = 40)             Fri Sep 19 21:31:56 2025  *
 *  PM7        - The PM7 Hamiltonian to be used
 *
 *
 *
 *                 CHARGE ON SYSTEM = +1
 *
 *
 *
 *  1SCF       - DO 1 SCF AND THEN STOP 
 *  T=         - A TIME OF 172800.0 SECONDS REQUESTED
 *  DUMP=N     - RESTART FILE WRITTEN EVERY 7200.0 SECONDS REQUESTED
 *  RELSCF     - DEFAULT SCF CRITERION MULTIPLIED BY 0.0001
 *              (DEFAULT SCF CRITERION = 0.00010)
 *  GRADIENTS  - ALL GRADIENTS TO BE PRINTED
 *  DISP       - PRINT DISPERSION AND HYDROGEN BOND ENERGIES
 *******************************************************************************
PM7 1SCF GRADIENTS DISP RELSCF=0.0001 CHARGE=1
 Title: ASE calculation

   ATOM   CHEMICAL          X               Y               Z
  NUMBER   SYMBOL      (ANGSTROMS)     (ANGSTROMS)     (ANGSTROMS)

     1       O          1.87695267  *   1.72063528  *  -1.22371480  *
     2       C          1.43233832  *   0.75709833  *  -0.69714054  *
     3       N          2.15875750  *  -0.44703506  *  -0.24841884  *
     4       N          1.37292102  *  -1.35360906  *   0.30415986  *
     5       C          0.07874900  *  -0.82933926  *   0.26716147  *
     6       N          0.09411295  *   0.41081809  *  -0.31673683  *
     7       C         -1.23744559  *   1.04128980  *  -0.38404932  *
     8       C         -2.15790625  *  -0.03182692  *   0.27015467  *
     9       C         -1.26945585  *  -1.24547939  *   0.67939015  *
    10       H          3.16682593  *  -0.62053313  *  -0.33163155  *
    11       H         -1.51306021  *   1.25940459  *  -1.44244037  *
    12       H         -1.23853949  *   2.00843383  *   0.17188315  *
    13       H         -2.68530031  *   0.38482009  *   1.15153096  *
    14       H         -2.95749541  *  -0.34600679  *  -0.43027907  *
    15       H         -1.59963133  *  -2.19418514  *   0.18756385  *
    16       H         -1.34133570  *  -1.47592687  *   1.77158573  *



          CARTESIAN COORDINATES 

    NO.       ATOM           X           Y           Z

     1         O          1.8770      1.7206     -1.2237
     2         C          1.4323      0.7571     -0.6971
     3         N          2.1588     -0.4470     -0.2484
     4         N          1.3729     -1.3536      0.3042
     5         C          0.0787     -0.8293      0.2672
     6         N          0.0941      0.4108     -0.3167
     7         C         -1.2374      1.0413     -0.3840
     8         C         -2.1579     -0.0318      0.2702
     9         C         -1.2695     -1.2455      0.6794
    10         H          3.1668     -0.6205     -0.3316
    11         H         -1.5131      1.2594     -1.4424
    12         H         -1.2385      2.0084      0.1719
    13         H         -2.6853      0.3848      1.1515
    14         H         -2.9575     -0.3460     -0.4303
    15         H         -1.5996     -2.1942      0.1876
    16         H         -1.3413     -1.4759      1.7716

 General Reference for PM7:
 "Optimization of Parameters for Semiempirical Methods VI: More Modifications to the 
 NDDO Approximations and Re-optimization of Parameters", J. J. P. Stewart, J. Mol. Mod., 1:32, 19 (2013)
 https://link.springer.com/article/10.1007/s00894-012-1667-x

           Empirical Formula: C5 H7 N3 O  =    16 atoms



      MOLECULAR POINT GROUP   :   Cs  


          UHF CALCULATION, NO. OF ALPHA ELECTRONS =   24
                           NO. OF BETA  ELECTRONS =   23
  SCF CRITERION =    0.1000E-07

 -------------------------------------------------------------------------------
 PM7 1SCF GRADIENTS DISP RELSCF=0.0001 CHARGE=1
 Title: ASE calculation



     1SCF WAS SPECIFIED, SO BFGS WAS NOT USED                 
     SCF FIELD WAS ACHIEVED                                   


                              PM7 CALCULATION
                                                       MOPAC v23.2 Linux
                                                       Fri Sep 19 21:31:56 2025




          FINAL HEAT OF FORMATION =        194.71207 KCAL/MOL =     814.67531 KJ/MOL

          TOTAL ENERGY            =     -35825.83456 KCAL/MOL = ELECTRONIC ENERGY + CORE-CORE REPULSION
          ENERGY OF ATOMS         =      36022.11410 KCAL/MOL
                              SUM =        196.27954 KCAL/MOL
          DISPERSION ENERGY       =         -1.56748 KCAL/MOL
          MM CORR. FOR -CO-NH-    =          0.00001 KCAL/MOL
                              SUM =        194.71207 KCAL/MOL = FINAL HEAT OF FORMATION



          TOTAL ENERGY            =      -1553.55522 EV
          ELECTRONIC ENERGY       =      -7171.87473 EV 
          CORE-CORE REPULSION     =       5618.31950 EV
          COSMO AREA              =        150.20 SQUARE ANGSTROMS
          COSMO VOLUME            =        143.02 CUBIC ANGSTROMS

          GRADIENT NORM           =          0.82960          =       0.20740 PER ATOM
          IONIZATION POTENTIAL    =         15.009318 EV
          ALPHA SOMO LUMO (EV)    =        -15.009 -5.683
          BETA  SOMO LUMO (EV)    =        -15.759 -7.632
          NO. OF ALPHA ELECTRONS  =         24
          NO. OF BETA  ELECTRONS  =         23
          MOLECULAR WEIGHT        =        125.1298         POINT GROUP:  Cs  

          MOLECULAR DIMENSIONS (Angstroms)

            Atom       Atom       Distance
            H    14    H    10     6.13126
            O     1    H    16     4.51738
            H    12    H    15     2.82664


          SCF CALCULATIONS        =          1

          WALL-CLOCK TIME         =      1.086 SECONDS
          COMPUTATION TIME        =      0.488 SECONDS

          LARGEST ATOMIC GRADIENTS

          Atom     Label                     Cartesian Gradients           Cartesian Coordinates       |Gradient|
                                           X          Y          Z        X          Y          Z

            10       H                  -0.322     -0.120      0.085    3.16683   -0.62053   -0.33163      0.354
             3       N                  -0.029      0.314     -0.022    2.15876   -0.44704   -0.24842      0.316
            16       H                  -0.002     -0.257      0.156   -1.34134   -1.47593    1.77159      0.300
             4       N                   0.158      0.193      0.054    1.37292   -1.35361    0.30416      0.255
             8       C                   0.152     -0.001     -0.195   -2.15791   -0.03183    0.27015      0.248
            14       H                  -0.205      0.054     -0.022   -2.95750   -0.34601   -0.43028      0.213
             6       N                  -0.013     -0.199      0.009    0.09411    0.41082   -0.31674      0.199
             5       C                   0.024     -0.167     -0.004    0.07875   -0.82934    0.26716      0.169
            15       H                   0.042      0.151     -0.022   -1.59963   -2.19419    0.18756      0.159
             2       C                  -0.074      0.004     -0.129    1.43234    0.75710   -0.69714      0.149



       FINAL  POINT  AND  DERIVATIVES

   PARAMETER     ATOM    TYPE            VALUE        GRADIENT
      1          1  O    CARTESIAN X     1.876953      0.094543  KCAL/ANGSTROM
      2          1  O    CARTESIAN Y     1.720635     -0.069268  KCAL/ANGSTROM
      3          1  O    CARTESIAN Z    -1.223715     -0.070859  KCAL/ANGSTROM
      4          2  C    CARTESIAN X     1.432338     -0.073815  KCAL/ANGSTROM
      5          2  C    CARTESIAN Y     0.757098      0.004403  KCAL/ANGSTROM
      6          2  C    CARTESIAN Z    -0.697141     -0.129219  KCAL/ANGSTROM
      7          3  N    CARTESIAN X     2.158757     -0.029366  KCAL/ANGSTROM
      8          3  N    CARTESIAN Y    -0.447035      0.313808  KCAL/ANGSTROM
      9          3  N    CARTESIAN Z    -0.248419     -0.021677  KCAL/ANGSTROM
     10          4  N    CARTESIAN X     1.372921      0.158096  KCAL/ANGSTROM
     11          4  N    CARTESIAN Y    -1.353609      0.192588  KCAL/ANGSTROM
     12          4  N    CARTESIAN Z     0.304160      0.053821  KCAL/ANGSTROM
     13          5  C    CARTESIAN X     0.078749      0.023874  KCAL/ANGSTROM
     14          5  C    CARTESIAN Y    -0.829339     -0.167358  KCAL/ANGSTROM
     15          5  C    CARTESIAN Z     0.267161     -0.004021  KCAL/ANGSTROM
     16          6  N    CARTESIAN X     0.094113     -0.013377  KCAL/ANGSTROM
     17          6  N    CARTESIAN Y     0.410818     -0.198739  KCAL/ANGSTROM
     18          6  N    CARTESIAN Z    -0.316737      0.008725  KCAL/ANGSTROM
     19          7  C    CARTESIAN X    -1.237446      0.136934  KCAL/ANGSTROM
     20          7  C    CARTESIAN Y     1.041290     -0.025434  KCAL/ANGSTROM
     21          7  C    CARTESIAN Z    -0.384049     -0.031458  KCAL/ANGSTROM
     22          8  C    CARTESIAN X    -2.157906      0.151912  KCAL/ANGSTROM
     23          8  C    CARTESIAN Y    -0.031827     -0.001442  KCAL/ANGSTROM
     24          8  C    CARTESIAN Z     0.270155     -0.195422  KCAL/ANGSTROM
     25          9  C    CARTESIAN X    -1.269456      0.032187  KCAL/ANGSTROM
     26          9  C    CARTESIAN Y    -1.245479      0.016600  KCAL/ANGSTROM
     27          9  C    CARTESIAN Z     0.679390      0.094858  KCAL/ANGSTROM
     28         10  H    CARTESIAN X     3.166826     -0.322183  KCAL/ANGSTROM
     29         10  H    CARTESIAN Y    -0.620533     -0.119545  KCAL/ANGSTROM
     30         10  H    CARTESIAN Z    -0.331632      0.084629  KCAL/ANGSTROM
     31         11  H    CARTESIAN X    -1.513060     -0.014136  KCAL/ANGSTROM
     32         11  H    CARTESIAN Y     1.259405      0.057290  KCAL/ANGSTROM
     33         11  H    CARTESIAN Z    -1.442440      0.046471  KCAL/ANGSTROM
     34         12  H    CARTESIAN X    -1.238539      0.110169  KCAL/ANGSTROM
     35         12  H    CARTESIAN Y     2.008434      0.085948  KCAL/ANGSTROM
     36         12  H    CARTESIAN Z     0.171883      0.031054  KCAL/ANGSTROM
     37         13  H    CARTESIAN X    -2.685300     -0.090184  KCAL/ANGSTROM
     38         13  H    CARTESIAN Y     0.384820     -0.037274  KCAL/ANGSTROM
     39         13  H    CARTESIAN Z     1.151531      0.021421  KCAL/ANGSTROM
     40         14  H    CARTESIAN X    -2.957495     -0.204985  KCAL/ANGSTROM
     41         14  H    CARTESIAN Y    -0.346007      0.053850  KCAL/ANGSTROM
     42         14  H    CARTESIAN Z    -0.430279     -0.022192  KCAL/ANGSTROM
     43         15  H    CARTESIAN X    -1.599631      0.042261  KCAL/ANGSTROM
     44         15  H    CARTESIAN Y    -2.194185      0.151348  KCAL/ANGSTROM
     45         15  H    CARTESIAN Z     0.187564     -0.022048  KCAL/ANGSTROM
     46         16  H    CARTESIAN X    -1.341336     -0.001935  KCAL/ANGSTROM
     47         16  H    CARTESIAN Y    -1.475927     -0.256781  KCAL/ANGSTROM
     48         16  H    CARTESIAN Z     1.771586      0.155909  KCAL/ANGSTROM




   ATOM   CHEMICAL          X               Y               Z
  NUMBER   SYMBOL      (ANGSTROMS)     (ANGSTROMS)     (ANGSTROMS)

     1       O          1.87695267  *   1.72063528  *  -1.22371480  *
     2       C          1.43233832  *   0.75709833  *  -0.69714054  *
     3       N          2.15875750  *  -0.44703506  *  -0.24841884  *
     4       N          1.37292102  *  -1.35360906  *   0.30415986  *
     5       C          0.07874900  *  -0.82933926  *   0.26716147  *
     6       N          0.09411295  *   0.41081809  *  -0.31673683  *
     7       C         -1.23744559  *   1.04128980  *  -0.38404932  *
     8       C         -2.15790625  *  -0.03182692  *   0.27015467  *
     9       C         -1.26945585  *  -1.24547939  *   0.67939015  *
    10       H          3.16682593  *  -0.62053313  *  -0.33163155  *
    11       H         -1.51306021  *   1.25940459  *  -1.44244037  *
    12       H         -1.23853949  *   2.00843383  *   0.17188315  *
    13       H         -2.68530031  *   0.38482009  *   1.15153096  *
    14       H         -2.95749541  *  -0.34600679  *  -0.43027907  *
    15       H         -1.59963133  *  -2.19418514  *   0.18756385  *
    16       H         -1.34133570  *  -1.47592687  *   1.77158573  *

                             CARTESIAN COORDINATES

   1    O        1.876952669     1.720635277    -1.223714798
   2    C        1.432338317     0.757098329    -0.697140538
   3    N        2.158757498    -0.447035063    -0.248418841
   4    N        1.372921023    -1.353609062     0.304159863
   5    C        0.078749002    -0.829339262     0.267161472
   6    N        0.094112950     0.410818088    -0.316736831
   7    C       -1.237445589     1.041289804    -0.384049323
   8    C       -2.157906247    -0.031826921     0.270154665
   9    C       -1.269455851    -1.245479395     0.679390155
  10    H        3.166825933    -0.620533128    -0.331631554
  11    H       -1.513060210     1.259404593    -1.442440369
  12    H       -1.238539490     2.008433826     0.171883147
  13    H       -2.685300314     0.384820086     1.151530964
  14    H       -2.957495411    -0.346006791    -0.430279074
  15    H       -1.599631328    -2.194185142     0.187563852
  16    H       -1.341335700    -1.475926871     1.771585730


           Empirical Formula: C5 H7 N3 O  =    16 atoms



      MOLECULAR POINT GROUP   :   Cs  


          ALPHA EIGENVALUES  
 -47.09517 -42.31877 -38.29469 -35.60176 -33.68190 -30.70402 -28.11350 -26.38566
 -25.89331 -23.25408 -23.14383 -22.27904 -21.55861 -21.06254 -20.07309 -19.86779
 -18.95292 -18.58783 -18.41416 -18.04769 -17.91448 -16.51510 -16.06037 -15.00932
  -5.68340  -5.35959  -4.78736  -4.09689  -3.35638  -2.43191  -2.25568  -1.57477
  -1.44366  -1.04338  -0.69719  -0.57300   0.07594   0.30667   0.32439   0.78897
   1.01747   1.07323   1.62504


           BETA EIGENVALUES 
 -46.55098 -41.97158 -37.64612 -34.84462 -33.58328 -30.59289 -27.97538 -26.26231
 -25.81106 -23.03154 -22.68046 -22.04131 -21.42528 -20.65358 -19.99062 -19.26509
 -18.44644 -18.23878 -18.18828 -18.03952 -17.37704 -16.25259 -15.75949  -7.63224
  -5.16770  -4.50916  -4.12931  -3.86053  -3.21970  -2.39492  -2.18113  -1.49485
  -1.25087  -1.00384  -0.59666  -0.39162   0.08421   0.34235   0.48826   0.79697
   1.01825   1.08100   1.62506


              NET ATOMIC CHARGES AND DIPOLE CONTRIBUTIONS

  ATOM NO.   TYPE          CHARGE      No. of ELECS.   s-Pop       p-Pop       
    1          O          -0.160108        6.1601     1.88301     4.27709
    2          C           0.544204        3.4558     1.07410     2.38170
    3          N          -0.217149        5.2171     1.56052     3.65663
    4          N          -0.135823        5.1358     1.80262     3.33320
    5          C           0.369239        3.6308     1.13066     2.50010
    6          N          -0.389776        5.3898     1.58046     3.80931
    7          C          -0.047448        4.0474     1.09140     2.95604
    8          C          -0.281377        4.2814     1.07658     3.20480
    9          C          -0.287065        4.2871     1.06688     3.22018
   10          H           0.395550        0.6044     0.60445
   11          H           0.190073        0.8099     0.80993
   12          H           0.189848        0.8102     0.81015
   13          H           0.189831        0.8102     0.81017
   14          H           0.190029        0.8100     0.80997
   15          H           0.224873        0.7751     0.77513
   16          H           0.225099        0.7749     0.77490
 DIPOLE           X         Y         Z       TOTAL
 POINT-CHG.    -2.087    -0.970     0.805     2.437
 HYBRID         0.678     0.519    -0.359     0.926
 SUM           -1.409    -0.451     0.446     1.545


          ATOMIC ORBITAL ELECTRON POPULATIONS

     Atom    s        px        py        pz   
    1  O   1.88301   1.67578   1.28223   1.31909
    2  C   1.07410   0.76996   0.80428   0.80745
    3  N   1.56052   1.18030   1.12912   1.34721
    4  N   1.80262   1.02961   1.13939   1.16420
    5  C   1.13066   0.93381   0.78617   0.78011
    6  N   1.58046   1.15858   1.21250   1.43824
    7  C   1.09140   0.73430   1.05027   1.17147
    8  C   1.07658   1.05798   0.97528   1.17154
    9  C   1.06688   0.91433   1.10806   1.19779
   10  H   0.60445
   11  H   0.80993
   12  H   0.81015
   13  H   0.81017
   14  H   0.80997
   15  H   0.77513
   16  H   0.77490


                    (SZ)    =    0.500000
                    (S**2)  =    0.772214


          ATOMIC ORBITAL SPIN POPULATIONS

    Atom   Total    s     px     py     pz   
         Atomic
    1  O  0.2191  0.006  0.008  0.037  0.169
    2  C -0.0858 -0.009 -0.010 -0.021 -0.046
    3  N  0.4006  0.017  0.022  0.076  0.286
    4  N  0.3047  0.008  0.016  0.043  0.238
    5  C  0.0599 -0.002 -0.004  0.009  0.057
    6  N  0.1105  0.004  0.006  0.020  0.081
    7  C -0.0078 -0.001 -0.006 -0.002  0.000
    8  C -0.0002 -0.000 -0.000 -0.000  0.000
    9  C -0.0005 -0.001 -0.003 -0.000  0.003
   10  H -0.0155 -0.016
   11  H  0.0035  0.003
   12  H  0.0035  0.003
   13  H -0.0001 -0.000
   14  H -0.0001 -0.000
   15  H  0.0042  0.004
   16  H  0.0041  0.004

 **********************
 *                    *
 * JOB ENDED NORMALLY *
 *                    *
 **********************



 TOTAL JOB TIME:             1.84 SECONDS

 == MOPAC DONE ==
