 *******************************************************************************
 **                                                                           **
 **                              MOPAC v23.2                                  **
 **                                                                           **
 *******************************************************************************
 **          Digital Object Identifier (DOI): 10.5281/zenodo.6511958          **
 **    Visit the DOI location for information on how to cite this program.    **
 *******************************************************************************

                              PM7 CALCULATION RESULTS

 *******************************************************************************
 *  CALCULATION DONE: (MAX THREADS = 40)             Fri Sep 19 21:34:00 2025  *
 *  PM7        - The PM7 Hamiltonian to be used
 *  EPS=37.5   - USE ANDREAS KLAMT'S COSMO IMPLICIT SOLVATION MODEL
 *  1SCF       - DO 1 SCF AND THEN STOP 
 *  T=         - A TIME OF 172800.0 SECONDS REQUESTED
 *  DUMP=N     - RESTART FILE WRITTEN EVERY 7200.0 SECONDS REQUESTED
 *  RELSCF     - DEFAULT SCF CRITERION MULTIPLIED BY 0.0001
 *              (DEFAULT SCF CRITERION = 0.00010)
 *  GRADIENTS  - ALL GRADIENTS TO BE PRINTED
 *  DISP       - PRINT DISPERSION AND HYDROGEN BOND ENERGIES
 *******************************************************************************
PM7 1SCF GRADIENTS EPS=37.5 DISP RELSCF=0.0001
 Title: ASE calculation

   ATOM   CHEMICAL          X               Y               Z
  NUMBER   SYMBOL      (ANGSTROMS)     (ANGSTROMS)     (ANGSTROMS)

     1       C          1.77943893  *   0.74722877  *  -0.96489510  *
     2       N          0.45521535  *   0.86023829  *  -0.78756387  *
     3       C          0.08799207  *  -0.08126617  *   0.17022593  *
     4       C         -1.29619515  *  -0.23311760  *   0.62476273  *
     5       C         -2.38547409  *  -0.50312520  *  -0.40367720  *
     6       N         -2.31422040  *   0.79270632  *   0.29588092  *
     7       C          1.22151202  *  -0.78661345  *   0.58148382  *
     8       N          2.29090349  *  -0.25748715  *  -0.14077668  *
     9       H          2.37937225  *   1.33502783  *  -1.63915549  *
    10       H         -1.39402875  *  -0.65267357  *   1.63915549  *
    11       H         -2.12803016  *  -0.58501426  *  -1.45915537  *
    12       H         -3.23877326  *  -1.13090880  *  -0.13998840  *
    13       H         -1.97318777  *   1.57884647  *  -0.25387843  *
    14       H          1.33061938  *  -1.57884647  *   1.29006553  *
    15       H          3.23877326  *  -0.54791163  *  -0.06222814  *



          CARTESIAN COORDINATES 

    NO.       ATOM           X           Y           Z

     1         C          1.7794      0.7472     -0.9649
     2         N          0.4552      0.8602     -0.7876
     3         C          0.0880     -0.0813      0.1702
     4         C         -1.2962     -0.2331      0.6248
     5         C         -2.3855     -0.5031     -0.4037
     6         N         -2.3142      0.7927      0.2959
     7         C          1.2215     -0.7866      0.5815
     8         N          2.2909     -0.2575     -0.1408
     9         H          2.3794      1.3350     -1.6392
    10         H         -1.3940     -0.6527      1.6392
    11         H         -2.1280     -0.5850     -1.4592
    12         H         -3.2388     -1.1309     -0.1400
    13         H         -1.9732      1.5788     -0.2539
    14         H          1.3306     -1.5788      1.2901
    15         H          3.2388     -0.5479     -0.0622

 General Reference for PM7:
 "Optimization of Parameters for Semiempirical Methods VI: More Modifications to the 
 NDDO Approximations and Re-optimization of Parameters", J. J. P. Stewart, J. Mol. Mod., 1:32, 19 (2013)
 https://link.springer.com/article/10.1007/s00894-012-1667-x

           Empirical Formula: C5 H7 N3  =    15 atoms



      MOLECULAR POINT GROUP   :   C1  


      RHF CALCULATION, NO. OF DOUBLY OCCUPIED LEVELS = 21

  SCF CRITERION =    0.1000E-07

 -------------------------------------------------------------------------------
 PM7 1SCF GRADIENTS EPS=37.5 DISP RELSCF=0.0001
 Title: ASE calculation



     1SCF WAS SPECIFIED, SO BFGS WAS NOT USED                 
     SCF FIELD WAS ACHIEVED                                   


                              PM7 CALCULATION
                                                       MOPAC v23.2 Linux
                                                       Fri Sep 19 21:34:00 2025




          FINAL HEAT OF FORMATION =         51.71736 KCAL/MOL =     216.38542 KJ/MOL

          TOTAL ENERGY            =     -29200.35125 KCAL/MOL = ELECTRONIC ENERGY + CORE-CORE REPULSION + SOLVATION ENERGY
          ENERGY OF ATOMS         =      29253.51905 KCAL/MOL
                              SUM =         53.16780 KCAL/MOL
          DISPERSION ENERGY       =         -1.37617 KCAL/MOL
          H-BOND ENERGY           =         -0.07427 KCAL/MOL
                              SUM =         51.71736 KCAL/MOL = FINAL HEAT OF FORMATION

          VAN DER WAALS AREA      =        144.55 SQUARE ANGSTROMS


          TOTAL ENERGY            =      -1266.24708 EV
          ELECTRONIC ENERGY       =      -1739.26616 EV 
          CORE-CORE REPULSION     =        473.01908 EV

          DIELECTRIC ENERGY       =         -0.78483 EV
          COSMO AREA              =        144.55 SQUARE ANGSTROMS
          COSMO VOLUME            =        135.32 CUBIC ANGSTROMS

          GRADIENT NORM           =         26.14815          =       6.75142 PER ATOM
          IONIZATION POTENTIAL    =          9.488012 EV
          HOMO LUMO ENERGIES (EV) =         -9.488  0.354
          NO. OF FILLED LEVELS    =         21
          MOLECULAR WEIGHT        =        109.1304         POINT GROUP:  C1  

          MOLECULAR DIMENSIONS (Angstroms)

            Atom       Atom       Distance
            H    15    H    12     6.50419
            H    14    H     9     4.06896
            H    13    H    11     2.37847


          SCF CALCULATIONS        =          2

          WALL-CLOCK TIME         =      0.625 SECONDS
          COMPUTATION TIME        =      1.057 SECONDS

          LARGEST ATOMIC GRADIENTS

          Atom     Label                     Cartesian Gradients           Cartesian Coordinates       |Gradient|
                                           X          Y          Z        X          Y          Z

             8       N                  14.042     -5.125      1.720    2.29090   -0.25749   -0.14078     15.047
             1       C                  -9.677      8.427     -5.588    1.77944    0.74723   -0.96490     13.996
             7       C                  -3.278     -5.137      5.295    1.22151   -0.78661    0.58148      8.073
             2       N                   7.738     -2.087     -0.630    0.45522    0.86024   -0.78756      8.039
            15       H                  -7.663      1.925      0.386    3.23877   -0.54791   -0.06223      7.911
             9       H                  -2.825     -1.133      1.771    2.37937    1.33503   -1.63916      3.521
            14       H                  -1.077      2.412     -2.242    1.33062   -1.57885    1.29007      3.465
             6       N                   1.336     -3.012     -0.919   -2.31422    0.79271    0.29588      3.421
            10       H                  -0.644      2.235     -1.425   -1.39403   -0.65267    1.63916      2.728
             3       C                   2.346     -0.225     -1.340    0.08799   -0.08127    0.17023      2.711



       FINAL  POINT  AND  DERIVATIVES

   PARAMETER     ATOM    TYPE            VALUE        GRADIENT
      1          1  C    CARTESIAN X     1.779439     -9.676705  KCAL/ANGSTROM
      2          1  C    CARTESIAN Y     0.747229      8.427246  KCAL/ANGSTROM
      3          1  C    CARTESIAN Z    -0.964895     -5.587609  KCAL/ANGSTROM
      4          2  N    CARTESIAN X     0.455215      7.737741  KCAL/ANGSTROM
      5          2  N    CARTESIAN Y     0.860238     -2.086572  KCAL/ANGSTROM
      6          2  N    CARTESIAN Z    -0.787564     -0.629699  KCAL/ANGSTROM
      7          3  C    CARTESIAN X     0.087992      2.346175  KCAL/ANGSTROM
      8          3  C    CARTESIAN Y    -0.081266     -0.224512  KCAL/ANGSTROM
      9          3  C    CARTESIAN Z     0.170226     -1.340015  KCAL/ANGSTROM
     10          4  C    CARTESIAN X    -1.296195     -0.783657  KCAL/ANGSTROM
     11          4  C    CARTESIAN Y    -0.233118      0.829477  KCAL/ANGSTROM
     12          4  C    CARTESIAN Z     0.624763      1.616515  KCAL/ANGSTROM
     13          5  C    CARTESIAN X    -2.385474     -0.377936  KCAL/ANGSTROM
     14          5  C    CARTESIAN Y    -0.503125      0.302095  KCAL/ANGSTROM
     15          5  C    CARTESIAN Z    -0.403677     -2.024916  KCAL/ANGSTROM
     16          6  N    CARTESIAN X    -2.314220      1.335600  KCAL/ANGSTROM
     17          6  N    CARTESIAN Y     0.792706     -3.011992  KCAL/ANGSTROM
     18          6  N    CARTESIAN Z     0.295881     -0.918883  KCAL/ANGSTROM
     19          7  C    CARTESIAN X     1.221512     -3.278035  KCAL/ANGSTROM
     20          7  C    CARTESIAN Y    -0.786613     -5.137249  KCAL/ANGSTROM
     21          7  C    CARTESIAN Z     0.581484      5.294648  KCAL/ANGSTROM
     22          8  N    CARTESIAN X     2.290903     14.041949  KCAL/ANGSTROM
     23          8  N    CARTESIAN Y    -0.257487     -5.125380  KCAL/ANGSTROM
     24          8  N    CARTESIAN Z    -0.140777      1.719634  KCAL/ANGSTROM
     25          9  H    CARTESIAN X     2.379372     -2.824685  KCAL/ANGSTROM
     26          9  H    CARTESIAN Y     1.335028     -1.132934  KCAL/ANGSTROM
     27          9  H    CARTESIAN Z    -1.639155      1.771395  KCAL/ANGSTROM
     28         10  H    CARTESIAN X    -1.394029     -0.644075  KCAL/ANGSTROM
     29         10  H    CARTESIAN Y    -0.652674      2.234614  KCAL/ANGSTROM
     30         10  H    CARTESIAN Z     1.639155     -1.425337  KCAL/ANGSTROM
     31         11  H    CARTESIAN X    -2.128030      0.342399  KCAL/ANGSTROM
     32         11  H    CARTESIAN Y    -0.585014      0.231594  KCAL/ANGSTROM
     33         11  H    CARTESIAN Z    -1.459155      0.864227  KCAL/ANGSTROM
     34         12  H    CARTESIAN X    -3.238773      0.737820  KCAL/ANGSTROM
     35         12  H    CARTESIAN Y    -1.130909      1.709806  KCAL/ANGSTROM
     36         12  H    CARTESIAN Z    -0.139988      0.761194  KCAL/ANGSTROM
     37         13  H    CARTESIAN X    -1.973188     -0.216169  KCAL/ANGSTROM
     38         13  H    CARTESIAN Y     1.578846     -1.354102  KCAL/ANGSTROM
     39         13  H    CARTESIAN Z    -0.253878      1.754484  KCAL/ANGSTROM
     40         14  H    CARTESIAN X     1.330619     -1.077281  KCAL/ANGSTROM
     41         14  H    CARTESIAN Y    -1.578846      2.412463  KCAL/ANGSTROM
     42         14  H    CARTESIAN Z     1.290066     -2.241835  KCAL/ANGSTROM
     43         15  H    CARTESIAN X     3.238773     -7.663152  KCAL/ANGSTROM
     44         15  H    CARTESIAN Y    -0.547912      1.925462  KCAL/ANGSTROM
     45         15  H    CARTESIAN Z    -0.062228      0.386232  KCAL/ANGSTROM




   ATOM   CHEMICAL          X               Y               Z
  NUMBER   SYMBOL      (ANGSTROMS)     (ANGSTROMS)     (ANGSTROMS)

     1       C          1.77943893  *   0.74722877  *  -0.96489510  *
     2       N          0.45521535  *   0.86023829  *  -0.78756387  *
     3       C          0.08799207  *  -0.08126617  *   0.17022593  *
     4       C         -1.29619515  *  -0.23311760  *   0.62476273  *
     5       C         -2.38547409  *  -0.50312520  *  -0.40367720  *
     6       N         -2.31422040  *   0.79270632  *   0.29588092  *
     7       C          1.22151202  *  -0.78661345  *   0.58148382  *
     8       N          2.29090349  *  -0.25748715  *  -0.14077668  *
     9       H          2.37937225  *   1.33502783  *  -1.63915549  *
    10       H         -1.39402875  *  -0.65267357  *   1.63915549  *
    11       H         -2.12803016  *  -0.58501426  *  -1.45915537  *
    12       H         -3.23877326  *  -1.13090880  *  -0.13998840  *
    13       H         -1.97318777  *   1.57884647  *  -0.25387843  *
    14       H          1.33061938  *  -1.57884647  *   1.29006553  *
    15       H          3.23877326  *  -0.54791163  *  -0.06222814  *

                             CARTESIAN COORDINATES

   1    C        1.779438928     0.747228774    -0.964895095
   2    N        0.455215353     0.860238292    -0.787563874
   3    C        0.087992067    -0.081266174     0.170225929
   4    C       -1.296195150    -0.233117597     0.624762732
   5    C       -2.385474087    -0.503125202    -0.403677199
   6    N       -2.314220398     0.792706318     0.295880922
   7    C        1.221512019    -0.786613455     0.581483824
   8    N        2.290903489    -0.257487145    -0.140776678
   9    H        2.379372254     1.335027825    -1.639155494
  10    H       -1.394028754    -0.652673574     1.639155494
  11    H       -2.128030163    -0.585014256    -1.459155371
  12    H       -3.238773261    -1.130908798    -0.139988396
  13    H       -1.973187768     1.578846472    -0.253878431
  14    H        1.330619384    -1.578846472     1.290065531
  15    H        3.238773261    -0.547911630    -0.062228137


           Empirical Formula: C5 H7 N3  =    15 atoms



      MOLECULAR POINT GROUP   :   C1  


                  EIGENVALUES  
 -39.02352 -36.83908 -33.88638 -26.54134 -24.09576 -22.23557 -22.00724 -20.18884
 -19.04162 -16.63597 -16.48942 -15.47278 -14.91298 -14.86240 -13.51769 -13.03316
 -12.73445 -11.64490 -11.17933 -10.71666  -9.48801   0.35372   0.76817   2.02612
   2.31255   2.59704   3.34181   3.57066   3.80400   4.19615   4.72847   5.12629
   5.22394   5.37923   5.62322   5.70477   5.82167   6.34788   6.54800


              NET ATOMIC CHARGES AND DIPOLE CONTRIBUTIONS

  ATOM NO.   TYPE          CHARGE      No. of ELECS.   s-Pop       p-Pop       
    1          C           0.098037        3.9020     1.10408     2.79788
    2          N          -0.500208        5.5002     1.76505     3.73516
    3          C          -0.002058        4.0021     1.06131     2.94075
    4          C          -0.048807        4.0488     1.05459     2.99422
    5          C          -0.198313        4.1983     1.07494     3.12338
    6          N          -0.528093        5.5281     1.72896     3.79913
    7          C          -0.120789        4.1208     1.09271     3.02808
    8          N          -0.297606        5.2976     1.52214     3.77547
    9          H           0.214872        0.7851     0.78513
   10          H           0.191622        0.8084     0.80838
   11          H           0.167226        0.8328     0.83277
   12          H           0.178578        0.8214     0.82142
   13          H           0.288364        0.7116     0.71164
   14          H           0.200544        0.7995     0.79946
   15          H           0.356632        0.6434     0.64337
 DIPOLE           X         Y         Z       TOTAL
 POINT-CHG.     4.988    -3.302     0.097     5.983
 HYBRID         1.535    -0.137    -0.435     1.602
 SUM            6.524    -3.439    -0.338     7.382


          ATOMIC ORBITAL ELECTRON POPULATIONS

     Atom    s        px        py        pz   
    1  C   1.10408   0.88332   0.93331   0.98125
    2  N   1.76505   1.18688   1.29867   1.24961
    3  C   1.06131   0.97346   0.97962   0.98766
    4  C   1.05459   0.88445   1.02699   1.08278
    5  C   1.07494   1.08395   0.96608   1.07334
    6  N   1.72896   1.33033   1.08561   1.38319
    7  C   1.09271   0.88988   1.08056   1.05763
    8  N   1.52214   1.18126   1.28736   1.30685
    9  H   0.78513
   10  H   0.80838
   11  H   0.83277
   12  H   0.82142
   13  H   0.71164
   14  H   0.79946
   15  H   0.64337

 **********************
 *                    *
 * JOB ENDED NORMALLY *
 *                    *
 **********************



 TOTAL JOB TIME:             1.20 SECONDS

 == MOPAC DONE ==
