 *******************************************************************************
 **                                                                           **
 **                              MOPAC v23.2                                  **
 **                                                                           **
 *******************************************************************************
 **          Digital Object Identifier (DOI): 10.5281/zenodo.6511958          **
 **    Visit the DOI location for information on how to cite this program.    **
 *******************************************************************************

                              PM7 CALCULATION RESULTS

 *******************************************************************************
 *  CALCULATION DONE: (MAX THREADS = 40)             Fri Sep 19 21:32:17 2025  *
 *  PM7        - The PM7 Hamiltonian to be used
 *
 *
 *
 *                 CHARGE ON SYSTEM = +1
 *
 *
 *
 *  1SCF       - DO 1 SCF AND THEN STOP 
 *  T=         - A TIME OF 172800.0 SECONDS REQUESTED
 *  DUMP=N     - RESTART FILE WRITTEN EVERY 7200.0 SECONDS REQUESTED
 *  RELSCF     - DEFAULT SCF CRITERION MULTIPLIED BY 0.0001
 *              (DEFAULT SCF CRITERION = 0.00010)
 *  GRADIENTS  - ALL GRADIENTS TO BE PRINTED
 *  DISP       - PRINT DISPERSION AND HYDROGEN BOND ENERGIES
 *******************************************************************************
PM7 1SCF GRADIENTS DISP RELSCF=0.0001 CHARGE=1
 Title: ASE calculation

   ATOM   CHEMICAL          X               Y               Z
  NUMBER   SYMBOL      (ANGSTROMS)     (ANGSTROMS)     (ANGSTROMS)

     1       O         -0.36797829  *   1.99028169  *  -0.17767725  *
     2       C         -0.68503058  *   0.72153825  *   0.20471134  *
     3       C         -2.07188230  *   0.35415285  *   0.78187755  *
     4       O         -2.28567529  *  -0.63458670  *  -0.27256612  *
     5       C         -1.07409381  *  -0.31302083  *  -0.95873674  *
     6       C         -0.03859762  *  -1.47677432  *  -0.92036515  *
     7       N          0.88645558  *  -1.03920122  *   0.07916297  *
     8       C          1.88523168  *  -0.01638715  *   0.12484751  *
     9       C          0.53043210  *   0.10590287  *   0.89773625  *
    10       H         -1.16610482  *   2.57768910  *  -0.28123787  *
    11       H         -2.84687062  *   1.13146444  *   0.71635278  *
    12       H         -2.10671712  *  -0.14208172  *   1.75900555  *
    13       H         -1.27854241  *   0.06490700  *  -1.96875232  *
    14       H          0.44120329  *  -1.69614550  *  -1.90413787  *
    15       H         -0.55065500  *  -2.43464303  *  -0.60406693  *
    16       H          2.12727804  *   0.55889468  *  -0.78824126  *
    17       H          2.80132391  *  -0.17182853  *   0.73095974  *
    18       H          0.54686814  *   0.10092128  *   1.99881857  *



          CARTESIAN COORDINATES 

    NO.       ATOM           X           Y           Z

     1         O         -0.3680      1.9903     -0.1777
     2         C         -0.6850      0.7215      0.2047
     3         C         -2.0719      0.3542      0.7819
     4         O         -2.2857     -0.6346     -0.2726
     5         C         -1.0741     -0.3130     -0.9587
     6         C         -0.0386     -1.4768     -0.9204
     7         N          0.8865     -1.0392      0.0792
     8         C          1.8852     -0.0164      0.1248
     9         C          0.5304      0.1059      0.8977
    10         H         -1.1661      2.5777     -0.2812
    11         H         -2.8469      1.1315      0.7164
    12         H         -2.1067     -0.1421      1.7590
    13         H         -1.2785      0.0649     -1.9688
    14         H          0.4412     -1.6961     -1.9041
    15         H         -0.5507     -2.4346     -0.6041
    16         H          2.1273      0.5589     -0.7882
    17         H          2.8013     -0.1718      0.7310
    18         H          0.5469      0.1009      1.9988

 General Reference for PM7:
 "Optimization of Parameters for Semiempirical Methods VI: More Modifications to the 
 NDDO Approximations and Re-optimization of Parameters", J. J. P. Stewart, J. Mol. Mod., 1:32, 19 (2013)
 https://link.springer.com/article/10.1007/s00894-012-1667-x

           Empirical Formula: C6 H9 N O2  =    18 atoms



      MOLECULAR POINT GROUP   :   C1  


          UHF CALCULATION, NO. OF ALPHA ELECTRONS =   25
                           NO. OF BETA  ELECTRONS =   24
  SCF CRITERION =    0.1000E-07

 -------------------------------------------------------------------------------
 PM7 1SCF GRADIENTS DISP RELSCF=0.0001 CHARGE=1
 Title: ASE calculation



     1SCF WAS SPECIFIED, SO BFGS WAS NOT USED                 
     SCF FIELD WAS ACHIEVED                                   


                              PM7 CALCULATION
                                                       MOPAC v23.2 Linux
                                                       Fri Sep 19 21:32:18 2025




          FINAL HEAT OF FORMATION =        183.69371 KCAL/MOL =     768.57446 KJ/MOL

          TOTAL ENERGY            =     -37453.70812 KCAL/MOL = ELECTRONIC ENERGY + CORE-CORE REPULSION
          ENERGY OF ATOMS         =      37638.97832 KCAL/MOL
                              SUM =        185.27020 KCAL/MOL
          DISPERSION ENERGY       =         -1.57649 KCAL/MOL
                              SUM =        183.69371 KCAL/MOL = FINAL HEAT OF FORMATION



          TOTAL ENERGY            =      -1624.14650 EV
          ELECTRONIC ENERGY       =      -7884.51190 EV 
          CORE-CORE REPULSION     =       6260.36540 EV
          COSMO AREA              =        150.91 SQUARE ANGSTROMS
          COSMO VOLUME            =        150.09 CUBIC ANGSTROMS

          GRADIENT NORM           =          1.01780          =       0.23990 PER ATOM
          IONIZATION POTENTIAL    =         14.788632 EV
          ALPHA SOMO LUMO (EV)    =        -14.800 -4.543
          BETA  SOMO LUMO (EV)    =        -14.789 -7.692
          NO. OF ALPHA ELECTRONS  =         25
          NO. OF BETA  ELECTRONS  =         24
          MOLECULAR WEIGHT        =        127.1426         POINT GROUP:  C1  

          MOLECULAR DIMENSIONS (Angstroms)

            Atom       Atom       Distance
            H    17    H    11     5.79663
            H    15    H    10     4.75689
            H    18    H    13     3.92307


          SCF CALCULATIONS        =          1

          WALL-CLOCK TIME         =      0.852 SECONDS
          COMPUTATION TIME        =      0.229 SECONDS

          LARGEST ATOMIC GRADIENTS

          Atom     Label                     Cartesian Gradients           Cartesian Coordinates       |Gradient|
                                           X          Y          Z        X          Y          Z

            10       H                  -0.041      0.296     -0.286   -1.16610    2.57769   -0.28124      0.414
            12       H                  -0.033     -0.327     -0.140   -2.10672   -0.14208    1.75901      0.358
            17       H                   0.267      0.093     -0.124    2.80132   -0.17183    0.73096      0.309
            16       H                  -0.125      0.258      0.094    2.12728    0.55889   -0.78824      0.302
            14       H                  -0.160     -0.026     -0.253    0.44120   -1.69615   -1.90414      0.300
             2       C                   0.014     -0.234     -0.163   -0.68503    0.72154    0.20471      0.286
             8       C                   0.040     -0.208      0.067    1.88523   -0.01639    0.12485      0.222
             3       C                   0.070      0.193      0.082   -2.07188    0.35415    0.78188      0.222
             7       N                  -0.071     -0.096      0.162    0.88646   -1.03920    0.07916      0.201
             9       C                  -0.022     -0.117      0.161    0.53043    0.10590    0.89774      0.200



       FINAL  POINT  AND  DERIVATIVES

   PARAMETER     ATOM    TYPE            VALUE        GRADIENT
      1          1  O    CARTESIAN X    -0.367978     -0.075358  KCAL/ANGSTROM
      2          1  O    CARTESIAN Y     1.990282     -0.136463  KCAL/ANGSTROM
      3          1  O    CARTESIAN Z    -0.177677      0.066021  KCAL/ANGSTROM
      4          2  C    CARTESIAN X    -0.685031      0.013504  KCAL/ANGSTROM
      5          2  C    CARTESIAN Y     0.721538     -0.234352  KCAL/ANGSTROM
      6          2  C    CARTESIAN Z     0.204711     -0.162561  KCAL/ANGSTROM
      7          3  C    CARTESIAN X    -2.071882      0.070108  KCAL/ANGSTROM
      8          3  C    CARTESIAN Y     0.354153      0.193434  KCAL/ANGSTROM
      9          3  C    CARTESIAN Z     0.781878      0.082118  KCAL/ANGSTROM
     10          4  O    CARTESIAN X    -2.285675     -0.014409  KCAL/ANGSTROM
     11          4  O    CARTESIAN Y    -0.634587      0.178745  KCAL/ANGSTROM
     12          4  O    CARTESIAN Z    -0.272566      0.033923  KCAL/ANGSTROM
     13          5  C    CARTESIAN X    -1.074094      0.029334  KCAL/ANGSTROM
     14          5  C    CARTESIAN Y    -0.313021     -0.067557  KCAL/ANGSTROM
     15          5  C    CARTESIAN Z    -0.958737      0.028394  KCAL/ANGSTROM
     16          6  C    CARTESIAN X    -0.038598      0.028222  KCAL/ANGSTROM
     17          6  C    CARTESIAN Y    -1.476774     -0.042241  KCAL/ANGSTROM
     18          6  C    CARTESIAN Z    -0.920365     -0.030401  KCAL/ANGSTROM
     19          7  N    CARTESIAN X     0.886456     -0.071189  KCAL/ANGSTROM
     20          7  N    CARTESIAN Y    -1.039201     -0.096272  KCAL/ANGSTROM
     21          7  N    CARTESIAN Z     0.079163      0.161763  KCAL/ANGSTROM
     22          8  C    CARTESIAN X     1.885232      0.039737  KCAL/ANGSTROM
     23          8  C    CARTESIAN Y    -0.016387     -0.207849  KCAL/ANGSTROM
     24          8  C    CARTESIAN Z     0.124848      0.067499  KCAL/ANGSTROM
     25          9  C    CARTESIAN X     0.530432     -0.022220  KCAL/ANGSTROM
     26          9  C    CARTESIAN Y     0.105903     -0.116936  KCAL/ANGSTROM
     27          9  C    CARTESIAN Z     0.897736      0.161109  KCAL/ANGSTROM
     28         10  H    CARTESIAN X    -1.166105     -0.040514  KCAL/ANGSTROM
     29         10  H    CARTESIAN Y     2.577689      0.295839  KCAL/ANGSTROM
     30         10  H    CARTESIAN Z    -0.281238     -0.286291  KCAL/ANGSTROM
     31         11  H    CARTESIAN X    -2.846871     -0.033508  KCAL/ANGSTROM
     32         11  H    CARTESIAN Y     1.131464      0.180927  KCAL/ANGSTROM
     33         11  H    CARTESIAN Z     0.716353     -0.067546  KCAL/ANGSTROM
     34         12  H    CARTESIAN X    -2.106717     -0.032636  KCAL/ANGSTROM
     35         12  H    CARTESIAN Y    -0.142082     -0.327228  KCAL/ANGSTROM
     36         12  H    CARTESIAN Z     1.759006     -0.140480  KCAL/ANGSTROM
     37         13  H    CARTESIAN X    -1.278542     -0.049441  KCAL/ANGSTROM
     38         13  H    CARTESIAN Y     0.064907     -0.063587  KCAL/ANGSTROM
     39         13  H    CARTESIAN Z    -1.968752      0.132037  KCAL/ANGSTROM
     40         14  H    CARTESIAN X     0.441203     -0.159919  KCAL/ANGSTROM
     41         14  H    CARTESIAN Y    -1.696146     -0.025604  KCAL/ANGSTROM
     42         14  H    CARTESIAN Z    -1.904138     -0.252854  KCAL/ANGSTROM
     43         15  H    CARTESIAN X    -0.550655      0.133698  KCAL/ANGSTROM
     44         15  H    CARTESIAN Y    -2.434643      0.098800  KCAL/ANGSTROM
     45         15  H    CARTESIAN Z    -0.604067      0.056606  KCAL/ANGSTROM
     46         16  H    CARTESIAN X     2.127278     -0.125050  KCAL/ANGSTROM
     47         16  H    CARTESIAN Y     0.558895      0.257899  KCAL/ANGSTROM
     48         16  H    CARTESIAN Z    -0.788241      0.094020  KCAL/ANGSTROM
     49         17  H    CARTESIAN X     2.801324      0.267496  KCAL/ANGSTROM
     50         17  H    CARTESIAN Y    -0.171829      0.092917  KCAL/ANGSTROM
     51         17  H    CARTESIAN Z     0.730960     -0.123938  KCAL/ANGSTROM
     52         18  H    CARTESIAN X     0.546868      0.042140  KCAL/ANGSTROM
     53         18  H    CARTESIAN Y     0.100921      0.019524  KCAL/ANGSTROM
     54         18  H    CARTESIAN Z     1.998819      0.180577  KCAL/ANGSTROM




   ATOM   CHEMICAL          X               Y               Z
  NUMBER   SYMBOL      (ANGSTROMS)     (ANGSTROMS)     (ANGSTROMS)

     1       O         -0.36797829  *   1.99028169  *  -0.17767725  *
     2       C         -0.68503058  *   0.72153825  *   0.20471134  *
     3       C         -2.07188230  *   0.35415285  *   0.78187755  *
     4       O         -2.28567529  *  -0.63458670  *  -0.27256612  *
     5       C         -1.07409381  *  -0.31302083  *  -0.95873674  *
     6       C         -0.03859762  *  -1.47677432  *  -0.92036515  *
     7       N          0.88645558  *  -1.03920122  *   0.07916297  *
     8       C          1.88523168  *  -0.01638715  *   0.12484751  *
     9       C          0.53043210  *   0.10590287  *   0.89773625  *
    10       H         -1.16610482  *   2.57768910  *  -0.28123787  *
    11       H         -2.84687062  *   1.13146444  *   0.71635278  *
    12       H         -2.10671712  *  -0.14208172  *   1.75900555  *
    13       H         -1.27854241  *   0.06490700  *  -1.96875232  *
    14       H          0.44120329  *  -1.69614550  *  -1.90413787  *
    15       H         -0.55065500  *  -2.43464303  *  -0.60406693  *
    16       H          2.12727804  *   0.55889468  *  -0.78824126  *
    17       H          2.80132391  *  -0.17182853  *   0.73095974  *
    18       H          0.54686814  *   0.10092128  *   1.99881857  *

                             CARTESIAN COORDINATES

   1    O       -0.367978287     1.990281688    -0.177677247
   2    C       -0.685030581     0.721538254     0.204711336
   3    C       -2.071882296     0.354152851     0.781877550
   4    O       -2.285675287    -0.634586697    -0.272566124
   5    C       -1.074093812    -0.313020833    -0.958736737
   6    C       -0.038597622    -1.476774319    -0.920365145
   7    N        0.886455575    -1.039201217     0.079162966
   8    C        1.885231683    -0.016387148     0.124847513
   9    C        0.530432102     0.105902868     0.897736252
  10    H       -1.166104819     2.577689104    -0.281237870
  11    H       -2.846870616     1.131464440     0.716352780
  12    H       -2.106717116    -0.142081716     1.759005554
  13    H       -1.278542408     0.064906996    -1.968752321
  14    H        0.441203288    -1.696145501    -1.904137870
  15    H       -0.550655004    -2.434643026    -0.604066934
  16    H        2.127278042     0.558894678    -0.788241259
  17    H        2.801323911    -0.171828531     0.730959742
  18    H        0.546868139     0.100921279     1.998818570


           Empirical Formula: C6 H9 N O2  =    18 atoms



      MOLECULAR POINT GROUP   :   C1  


          ALPHA EIGENVALUES  
 -44.37055 -36.19844 -34.38572 -32.71027 -30.73167 -28.90488 -27.45310 -26.01967
 -25.14652 -23.33970 -22.91319 -21.50318 -21.39116 -20.79210 -20.40793 -19.48805
 -19.13030 -18.60567 -18.17652 -18.04875 -17.87864 -16.73671 -16.45757 -15.30566
 -14.80037  -4.54291  -4.17426  -3.16094  -2.83574  -2.29385  -2.16587  -2.03932
  -1.79569  -1.47875  -1.01807  -0.82764  -0.27554  -0.08681   0.04007   0.12509
   0.43659   0.91982   1.02079   1.25813   1.50628


           BETA EIGENVALUES 
 -43.22195 -36.11394 -34.35618 -32.48485 -30.51551 -28.56823 -27.30699 -25.82653
 -24.98953 -22.79992 -22.52750 -21.23315 -21.22266 -20.75428 -20.10542 -19.35924
 -18.84300 -18.43565 -18.04842 -17.85634 -17.70586 -16.42962 -15.31233 -14.78863
  -7.69186  -3.98004  -3.87169  -3.11307  -2.71164  -2.21926  -2.11752  -1.92603
  -1.70239  -1.10325  -0.96519  -0.77450  -0.14860  -0.03355   0.08518   0.18395
   0.50364   0.94069   1.02295   1.26457   1.50658


              NET ATOMIC CHARGES AND DIPOLE CONTRIBUTIONS

  ATOM NO.   TYPE          CHARGE      No. of ELECS.   s-Pop       p-Pop       
    1          O          -0.484375        6.4844     1.84061     4.64376
    2          C           0.193896        3.8061     1.10337     2.70273
    3          C          -0.111445        4.1114     1.11551     2.99593
    4          O          -0.303393        6.3034     1.90852     4.39487
    5          C           0.010249        3.9898     1.13786     2.85189
    6          C          -0.194198        4.1942     1.09989     3.09430
    7          N           0.010105        4.9899     1.60241     3.38748
    8          C          -0.130894        4.1309     1.10698     3.02392
    9          C          -0.068720        4.0687     1.11405     2.95467
   10          H           0.366351        0.6336     0.63365
   11          H           0.180038        0.8200     0.81996
   12          H           0.174508        0.8255     0.82549
   13          H           0.194582        0.8054     0.80542
   14          H           0.211976        0.7880     0.78802
   15          H           0.247332        0.7527     0.75267
   16          H           0.228682        0.7713     0.77132
   17          H           0.238767        0.7612     0.76123
   18          H           0.236538        0.7635     0.76346
 DIPOLE           X         Y         Z       TOTAL
 POINT-CHG.     3.687    -0.554     0.553     3.769
 HYBRID        -0.033    -0.364    -0.177     0.406
 SUM            3.654    -0.918     0.377     3.786


          ATOMIC ORBITAL ELECTRON POPULATIONS

     Atom    s        px        py        pz   
    1  O   1.84061   1.47050   1.28877   1.88448
    2  C   1.10337   0.93555   0.82475   0.94244
    3  C   1.11551   0.99511   0.99977   1.00105
    4  O   1.90852   1.38147   1.57681   1.43659
    5  C   1.13786   0.86099   0.92065   1.07025
    6  C   1.09989   0.96674   1.11785   1.00971
    7  N   1.60241   1.19330   1.03063   1.16355
    8  C   1.10698   0.98827   0.87529   1.16036
    9  C   1.11405   0.99373   0.86995   1.09099
   10  H   0.63365
   11  H   0.81996
   12  H   0.82549
   13  H   0.80542
   14  H   0.78802
   15  H   0.75267
   16  H   0.77132
   17  H   0.76123
   18  H   0.76346


                    (SZ)    =    0.500000
                    (S**2)  =    0.757679


          ATOMIC ORBITAL SPIN POPULATIONS

    Atom   Total    s     px     py     pz   
         Atomic
    1  O  0.0022  0.001 -0.001  0.000  0.002
    2  C  0.0109  0.003  0.006  0.001 -0.000
    3  C -0.0013 -0.000 -0.001 -0.000 -0.000
    4  O  0.0122  0.000  0.004  0.005  0.003
    5  C  0.0506  0.004  0.019  0.026  0.002
    6  C -0.0096 -0.007 -0.012 -0.009  0.019
    7  N  0.8011  0.062  0.089  0.419  0.231
    8  C  0.0353 -0.005 -0.006  0.057 -0.012
    9  C  0.0114 -0.004  0.007  0.015 -0.007
   10  H  0.0020  0.002
   11  H -0.0000 -0.000
   12  H -0.0001 -0.000
   13  H  0.0069  0.007
   14  H  0.0058  0.006
   15  H  0.0265  0.027
   16  H  0.0171  0.017
   17  H  0.0184  0.018
   18  H  0.0106  0.011

 **********************
 *                    *
 * JOB ENDED NORMALLY *
 *                    *
 **********************



 TOTAL JOB TIME:             1.41 SECONDS

 == MOPAC DONE ==
