 *******************************************************************************
 **                                                                           **
 **                              MOPAC v23.2                                  **
 **                                                                           **
 *******************************************************************************
 **          Digital Object Identifier (DOI): 10.5281/zenodo.6511958          **
 **    Visit the DOI location for information on how to cite this program.    **
 *******************************************************************************

                              PM7 CALCULATION RESULTS

 *******************************************************************************
 *  CALCULATION DONE: (MAX THREADS = 40)             Fri Sep 19 21:38:54 2025  *
 *  PM7        - The PM7 Hamiltonian to be used
 *  EPS=37.5   - USE ANDREAS KLAMT'S COSMO IMPLICIT SOLVATION MODEL
 *  1SCF       - DO 1 SCF AND THEN STOP 
 *  T=         - A TIME OF 172800.0 SECONDS REQUESTED
 *  DUMP=N     - RESTART FILE WRITTEN EVERY 7200.0 SECONDS REQUESTED
 *  RELSCF     - DEFAULT SCF CRITERION MULTIPLIED BY 0.0001
 *              (DEFAULT SCF CRITERION = 0.00010)
 *  GRADIENTS  - ALL GRADIENTS TO BE PRINTED
 *  DISP       - PRINT DISPERSION AND HYDROGEN BOND ENERGIES
 *******************************************************************************
PM7 1SCF GRADIENTS EPS=37.5 DISP RELSCF=0.0001
 Title: ASE calculation

   ATOM   CHEMICAL          X               Y               Z
  NUMBER   SYMBOL      (ANGSTROMS)     (ANGSTROMS)     (ANGSTROMS)

     1       C          2.55734694  *   0.18794910  *   0.38630554  *
     2       C          1.03713948  *  -0.02565352  *   0.31253041  *
     3       C          0.72647214  *  -1.28730527  *  -0.43788493  *
     4       C         -0.49156549  *  -1.82156090  *  -0.56446468  *
     5       C         -1.74124036  *  -1.19596077  *  -0.02527372  *
     6       O         -2.07626325  *  -0.13604691  *  -0.91380075  *
     7       C         -2.18393796  *   1.14622192  *  -0.34020755  *
     8       C         -0.91527475  *   1.63737720  *   0.36586448  *
     9       C          0.36398021  *   1.19632874  *  -0.35754804  *
    10       H          3.05577183  *  -0.66688020  *   0.85644215  *
    11       H          2.80678004  *   1.07579903  *   0.97803825  *
    12       H          2.99098099  *   0.31839577  *  -0.61190720  *
    13       H          0.65199307  *  -0.13093872  *   1.35925901  *
    14       H          1.58937802  *  -1.77448721  *  -0.89460372  *
    15       H         -0.64545542  *  -2.74297001  *  -1.12282968  *
    16       H         -1.62470482  *  -0.85751262  *   1.01790124  *
    17       H         -2.61114508  *  -1.87920437  *  -0.07926447  *
    18       H         -3.05577183  *   1.16865276  *   0.33684465  *
    19       H         -2.40925473  *   1.75348184  *  -1.24022378  *
    20       H         -0.90617835  *   1.29396404  *   1.41661103  *
    21       H         -0.94607335  *   2.74297001  *   0.42512342  *
    22       H          0.13608825  *   0.95767122  *  -1.41661103  *
    23       H          1.07470716  *   2.04226547  *  -0.39085320  *



          CARTESIAN COORDINATES 

    NO.       ATOM           X           Y           Z

     1         C          2.5573      0.1879      0.3863
     2         C          1.0371     -0.0257      0.3125
     3         C          0.7265     -1.2873     -0.4379
     4         C         -0.4916     -1.8216     -0.5645
     5         C         -1.7412     -1.1960     -0.0253
     6         O         -2.0763     -0.1360     -0.9138
     7         C         -2.1839      1.1462     -0.3402
     8         C         -0.9153      1.6374      0.3659
     9         C          0.3640      1.1963     -0.3575
    10         H          3.0558     -0.6669      0.8564
    11         H          2.8068      1.0758      0.9780
    12         H          2.9910      0.3184     -0.6119
    13         H          0.6520     -0.1309      1.3593
    14         H          1.5894     -1.7745     -0.8946
    15         H         -0.6455     -2.7430     -1.1228
    16         H         -1.6247     -0.8575      1.0179
    17         H         -2.6111     -1.8792     -0.0793
    18         H         -3.0558      1.1687      0.3368
    19         H         -2.4093      1.7535     -1.2402
    20         H         -0.9062      1.2940      1.4166
    21         H         -0.9461      2.7430      0.4251
    22         H          0.1361      0.9577     -1.4166
    23         H          1.0747      2.0423     -0.3909

 General Reference for PM7:
 "Optimization of Parameters for Semiempirical Methods VI: More Modifications to the 
 NDDO Approximations and Re-optimization of Parameters", J. J. P. Stewart, J. Mol. Mod., 1:32, 19 (2013)
 https://link.springer.com/article/10.1007/s00894-012-1667-x

           Empirical Formula: C8 H14 O  =    23 atoms



      MOLECULAR POINT GROUP   :   C1  


      RHF CALCULATION, NO. OF DOUBLY OCCUPIED LEVELS = 26

  SCF CRITERION =    0.1000E-07

 -------------------------------------------------------------------------------
 PM7 1SCF GRADIENTS EPS=37.5 DISP RELSCF=0.0001
 Title: ASE calculation



     1SCF WAS SPECIFIED, SO BFGS WAS NOT USED                 
     SCF FIELD WAS ACHIEVED                                   


                              PM7 CALCULATION
                                                       MOPAC v23.2 Linux
                                                       Fri Sep 19 21:38:54 2025




          FINAL HEAT OF FORMATION =        -44.88646 KCAL/MOL =    -187.80495 KJ/MOL

          TOTAL ENERGY            =     -33824.65853 KCAL/MOL = ELECTRONIC ENERGY + CORE-CORE REPULSION + SOLVATION ENERGY
          ENERGY OF ATOMS         =      33782.22825 KCAL/MOL
                              SUM =        -42.43028 KCAL/MOL
          DISPERSION ENERGY       =         -2.45618 KCAL/MOL
                              SUM =        -44.88646 KCAL/MOL = FINAL HEAT OF FORMATION

          VAN DER WAALS AREA      =        168.92 SQUARE ANGSTROMS


          TOTAL ENERGY            =      -1466.77602 EV
          ELECTRONIC ENERGY       =      -2428.77644 EV 
          CORE-CORE REPULSION     =        962.00042 EV

          DIELECTRIC ENERGY       =         -0.21988 EV
          COSMO AREA              =        168.92 SQUARE ANGSTROMS
          COSMO VOLUME            =        174.59 CUBIC ANGSTROMS

          GRADIENT NORM           =          7.65426          =       1.59602 PER ATOM
          IONIZATION POTENTIAL    =          9.826484 EV
          HOMO LUMO ENERGIES (EV) =         -9.826  0.806
          NO. OF FILLED LEVELS    =         26
          MOLECULAR WEIGHT        =        126.1980         POINT GROUP:  C1  

          MOLECULAR DIMENSIONS (Angstroms)

            Atom       Atom       Distance
            H    18    H    10     6.40235
            H    21    H    15     5.43828
            H    16    H    22     3.09491


          SCF CALCULATIONS        =          2

          WALL-CLOCK TIME         =      0.836 SECONDS
          COMPUTATION TIME        =      0.491 SECONDS

          LARGEST ATOMIC GRADIENTS

          Atom     Label                     Cartesian Gradients           Cartesian Coordinates       |Gradient|
                                           X          Y          Z        X          Y          Z

             7       C                  -0.676     -3.616      0.654   -2.18394    1.14622   -0.34021      3.737
             5       C                  -1.114      2.676      1.794   -1.74124   -1.19596   -0.02527      3.409
             8       C                   0.239      1.963      2.026   -0.91527    1.63738    0.36586      2.831
             6       O                  -0.142      1.924     -1.458   -2.07626   -0.13605   -0.91380      2.418
             1       C                   1.327      0.571      0.113    2.55735    0.18795    0.38631      1.449
             4       C                   0.635     -1.064      0.515   -0.49157   -1.82156   -0.56446      1.342
             9       C                   0.578      0.778      0.872    0.36398    1.19633   -0.35755      1.304
            22       H                  -0.464     -0.818     -0.898    0.13609    0.95767   -1.41661      1.300
             3       C                   0.515     -0.947     -0.604    0.72647   -1.28731   -0.43788      1.236
            14       H                  -1.077      0.497      0.256    1.58938   -1.77449   -0.89460      1.214



       FINAL  POINT  AND  DERIVATIVES

   PARAMETER     ATOM    TYPE            VALUE        GRADIENT
      1          1  C    CARTESIAN X     2.557347      1.326646  KCAL/ANGSTROM
      2          1  C    CARTESIAN Y     0.187949      0.570747  KCAL/ANGSTROM
      3          1  C    CARTESIAN Z     0.386306      0.112692  KCAL/ANGSTROM
      4          2  C    CARTESIAN X     1.037139     -0.959796  KCAL/ANGSTROM
      5          2  C    CARTESIAN Y    -0.025654     -0.082138  KCAL/ANGSTROM
      6          2  C    CARTESIAN Z     0.312530      0.456181  KCAL/ANGSTROM
      7          3  C    CARTESIAN X     0.726472      0.515057  KCAL/ANGSTROM
      8          3  C    CARTESIAN Y    -1.287305     -0.946691  KCAL/ANGSTROM
      9          3  C    CARTESIAN Z    -0.437885     -0.604232  KCAL/ANGSTROM
     10          4  C    CARTESIAN X    -0.491565      0.634824  KCAL/ANGSTROM
     11          4  C    CARTESIAN Y    -1.821561     -1.064248  KCAL/ANGSTROM
     12          4  C    CARTESIAN Z    -0.564465      0.514875  KCAL/ANGSTROM
     13          5  C    CARTESIAN X    -1.741240     -1.114488  KCAL/ANGSTROM
     14          5  C    CARTESIAN Y    -1.195961      2.676487  KCAL/ANGSTROM
     15          5  C    CARTESIAN Z    -0.025274      1.793704  KCAL/ANGSTROM
     16          6  O    CARTESIAN X    -2.076263     -0.142319  KCAL/ANGSTROM
     17          6  O    CARTESIAN Y    -0.136047      1.923780  KCAL/ANGSTROM
     18          6  O    CARTESIAN Z    -0.913801     -1.458229  KCAL/ANGSTROM
     19          7  C    CARTESIAN X    -2.183938     -0.675910  KCAL/ANGSTROM
     20          7  C    CARTESIAN Y     1.146222     -3.616473  KCAL/ANGSTROM
     21          7  C    CARTESIAN Z    -0.340208      0.653595  KCAL/ANGSTROM
     22          8  C    CARTESIAN X    -0.915275      0.238882  KCAL/ANGSTROM
     23          8  C    CARTESIAN Y     1.637377      1.962542  KCAL/ANGSTROM
     24          8  C    CARTESIAN Z     0.365864      2.025983  KCAL/ANGSTROM
     25          9  C    CARTESIAN X     0.363980      0.578304  KCAL/ANGSTROM
     26          9  C    CARTESIAN Y     1.196329      0.778436  KCAL/ANGSTROM
     27          9  C    CARTESIAN Z    -0.357548      0.871856  KCAL/ANGSTROM
     28         10  H    CARTESIAN X     3.055772     -0.422777  KCAL/ANGSTROM
     29         10  H    CARTESIAN Y    -0.666880      0.221368  KCAL/ANGSTROM
     30         10  H    CARTESIAN Z     0.856442      0.000301  KCAL/ANGSTROM
     31         11  H    CARTESIAN X     2.806780     -0.038627  KCAL/ANGSTROM
     32         11  H    CARTESIAN Y     1.075799     -0.119365  KCAL/ANGSTROM
     33         11  H    CARTESIAN Z     0.978038      0.222236  KCAL/ANGSTROM
     34         12  H    CARTESIAN X     2.990981     -0.426645  KCAL/ANGSTROM
     35         12  H    CARTESIAN Y     0.318396     -0.215501  KCAL/ANGSTROM
     36         12  H    CARTESIAN Z    -0.611907     -0.315217  KCAL/ANGSTROM
     37         13  H    CARTESIAN X     0.651993      0.273956  KCAL/ANGSTROM
     38         13  H    CARTESIAN Y    -0.130939     -0.153686  KCAL/ANGSTROM
     39         13  H    CARTESIAN Z     1.359259     -0.413817  KCAL/ANGSTROM
     40         14  H    CARTESIAN X     1.589378     -1.077283  KCAL/ANGSTROM
     41         14  H    CARTESIAN Y    -1.774487      0.496659  KCAL/ANGSTROM
     42         14  H    CARTESIAN Z    -0.894604      0.255922  KCAL/ANGSTROM
     43         15  H    CARTESIAN X    -0.645455      0.260616  KCAL/ANGSTROM
     44         15  H    CARTESIAN Y    -2.742970      0.756324  KCAL/ANGSTROM
     45         15  H    CARTESIAN Z    -1.122830     -0.390268  KCAL/ANGSTROM
     46         16  H    CARTESIAN X    -1.624705      0.274170  KCAL/ANGSTROM
     47         16  H    CARTESIAN Y    -0.857513     -0.688925  KCAL/ANGSTROM
     48         16  H    CARTESIAN Z     1.017901     -0.538766  KCAL/ANGSTROM
     49         17  H    CARTESIAN X    -2.611145      0.590344  KCAL/ANGSTROM
     50         17  H    CARTESIAN Y    -1.879204      0.108404  KCAL/ANGSTROM
     51         17  H    CARTESIAN Z    -0.079264     -0.686969  KCAL/ANGSTROM
     52         18  H    CARTESIAN X    -3.055772      0.391623  KCAL/ANGSTROM
     53         18  H    CARTESIAN Y     1.168653      0.522937  KCAL/ANGSTROM
     54         18  H    CARTESIAN Z     0.336845     -0.768843  KCAL/ANGSTROM
     55         19  H    CARTESIAN X    -2.409255     -0.016664  KCAL/ANGSTROM
     56         19  H    CARTESIAN Y     1.753482     -1.155353  KCAL/ANGSTROM
     57         19  H    CARTESIAN Z    -1.240224      0.146281  KCAL/ANGSTROM
     58         20  H    CARTESIAN X    -0.906178      0.038682  KCAL/ANGSTROM
     59         20  H    CARTESIAN Y     1.293964     -0.030160  KCAL/ANGSTROM
     60         20  H    CARTESIAN Z     1.416611     -0.702102  KCAL/ANGSTROM
     61         21  H    CARTESIAN X    -0.946073      0.619260  KCAL/ANGSTROM
     62         21  H    CARTESIAN Y     2.742970     -0.702812  KCAL/ANGSTROM
     63         21  H    CARTESIAN Z     0.425123     -0.479517  KCAL/ANGSTROM
     64         22  H    CARTESIAN X     0.136088     -0.464296  KCAL/ANGSTROM
     65         22  H    CARTESIAN Y     0.957671     -0.817569  KCAL/ANGSTROM
     66         22  H    CARTESIAN Z    -1.416611     -0.897501  KCAL/ANGSTROM
     67         23  H    CARTESIAN X     1.074707     -0.403561  KCAL/ANGSTROM
     68         23  H    CARTESIAN Y     2.042265     -0.424764  KCAL/ANGSTROM
     69         23  H    CARTESIAN Z    -0.390853      0.201830  KCAL/ANGSTROM




   ATOM   CHEMICAL          X               Y               Z
  NUMBER   SYMBOL      (ANGSTROMS)     (ANGSTROMS)     (ANGSTROMS)

     1       C          2.55734694  *   0.18794910  *   0.38630554  *
     2       C          1.03713948  *  -0.02565352  *   0.31253041  *
     3       C          0.72647214  *  -1.28730527  *  -0.43788493  *
     4       C         -0.49156549  *  -1.82156090  *  -0.56446468  *
     5       C         -1.74124036  *  -1.19596077  *  -0.02527372  *
     6       O         -2.07626325  *  -0.13604691  *  -0.91380075  *
     7       C         -2.18393796  *   1.14622192  *  -0.34020755  *
     8       C         -0.91527475  *   1.63737720  *   0.36586448  *
     9       C          0.36398021  *   1.19632874  *  -0.35754804  *
    10       H          3.05577183  *  -0.66688020  *   0.85644215  *
    11       H          2.80678004  *   1.07579903  *   0.97803825  *
    12       H          2.99098099  *   0.31839577  *  -0.61190720  *
    13       H          0.65199307  *  -0.13093872  *   1.35925901  *
    14       H          1.58937802  *  -1.77448721  *  -0.89460372  *
    15       H         -0.64545542  *  -2.74297001  *  -1.12282968  *
    16       H         -1.62470482  *  -0.85751262  *   1.01790124  *
    17       H         -2.61114508  *  -1.87920437  *  -0.07926447  *
    18       H         -3.05577183  *   1.16865276  *   0.33684465  *
    19       H         -2.40925473  *   1.75348184  *  -1.24022378  *
    20       H         -0.90617835  *   1.29396404  *   1.41661103  *
    21       H         -0.94607335  *   2.74297001  *   0.42512342  *
    22       H          0.13608825  *   0.95767122  *  -1.41661103  *
    23       H          1.07470716  *   2.04226547  *  -0.39085320  *

                             CARTESIAN COORDINATES

   1    C        2.557346936     0.187949097     0.386305544
   2    C        1.037139480    -0.025653519     0.312530408
   3    C        0.726472144    -1.287305270    -0.437884930
   4    C       -0.491565494    -1.821560904    -0.564464679
   5    C       -1.741240358    -1.195960773    -0.025273718
   6    O       -2.076263250    -0.136046913    -0.913800748
   7    C       -2.183937960     1.146221923    -0.340207546
   8    C       -0.915274754     1.637377196     0.365864484
   9    C        0.363980211     1.196328739    -0.357548036
  10    H        3.055771825    -0.666880200     0.856442145
  11    H        2.806780043     1.075799026     0.978038248
  12    H        2.990980993     0.318395765    -0.611907201
  13    H        0.651993071    -0.130938719     1.359259014
  14    H        1.589378022    -1.774487209    -0.894603724
  15    H       -0.645455416    -2.742970012    -1.122829684
  16    H       -1.624704818    -0.857512622     1.017901241
  17    H       -2.611145079    -1.879204369    -0.079264471
  18    H       -3.055771825     1.168652760     0.336844651
  19    H       -2.409254730     1.753481842    -1.240223777
  20    H       -0.906178354     1.293964037     1.416611034
  21    H       -0.946073352     2.742970012     0.425123416
  22    H        0.136088245     0.957671224    -1.416611034
  23    H        1.074707160     2.042265469    -0.390853203


           Empirical Formula: C8 H14 O  =    23 atoms



      MOLECULAR POINT GROUP   :   C1  


                  EIGENVALUES  
 -30.39276 -28.77520 -27.44345 -25.85552 -23.93435 -22.98817 -20.72137 -19.97238
 -18.16600 -16.97818 -16.48557 -16.12711 -15.28266 -14.81246 -14.28148 -13.98580
 -13.08831 -13.00631 -12.52669 -12.22760 -12.13282 -11.65974 -11.34553 -11.04064
 -10.17348  -9.82648   0.80574   2.54254   3.81926   4.01912   4.22007   4.31547
   4.50700   4.68671   4.94809   5.42079   5.68708   5.81985   5.82429   5.89982
   5.95003   6.03825   6.06382   6.13712   6.19919   6.23891   6.44384   6.59885
   6.73187   7.05927


              NET ATOMIC CHARGES AND DIPOLE CONTRIBUTIONS

  ATOM NO.   TYPE          CHARGE      No. of ELECS.   s-Pop       p-Pop       
    1          C          -0.465356        4.4654     1.05881     3.40655
    2          C          -0.099684        4.0997     1.05840     3.04129
    3          C          -0.132019        4.1320     1.10279     3.02923
    4          C          -0.239306        4.2393     1.09259     3.14672
    5          C          -0.029118        4.0291     1.08152     2.94760
    6          O          -0.457725        6.4577     1.87313     4.58459
    7          C          -0.025605        4.0256     1.08878     2.93683
    8          C          -0.325613        4.3256     1.06641     3.25920
    9          C          -0.264307        4.2643     1.06287     3.20143
   10          H           0.149533        0.8505     0.85047
   11          H           0.149569        0.8504     0.85043
   12          H           0.152034        0.8480     0.84797
   13          H           0.149816        0.8502     0.85018
   14          H           0.151742        0.8483     0.84826
   15          H           0.153704        0.8463     0.84630
   16          H           0.139106        0.8609     0.86089
   17          H           0.132874        0.8671     0.86713
   18          H           0.123242        0.8768     0.87676
   19          H           0.142518        0.8575     0.85748
   20          H           0.150276        0.8497     0.84972
   21          H           0.151514        0.8485     0.84849
   22          H           0.152647        0.8474     0.84735
   23          H           0.140159        0.8598     0.85984
 DIPOLE           X         Y         Z       TOTAL
 POINT-CHG.     0.755     0.989     2.228     2.551
 HYBRID         0.086     0.019    -0.173     0.194
 SUM            0.841     1.008     2.055     2.438


          ATOMIC ORBITAL ELECTRON POPULATIONS

     Atom    s        px        py        pz   
    1  C   1.05881   1.04627   1.17793   1.18234
    2  C   1.05840   0.98206   0.97481   1.08442
    3  C   1.10279   1.04489   0.99921   0.98512
    4  C   1.09259   0.99766   1.07696   1.07211
    5  C   1.08152   1.02682   0.90937   1.01142
    6  O   1.87313   1.92037   1.24641   1.41782
    7  C   1.08878   1.02689   0.82613   1.08381
    8  C   1.06641   1.01007   1.14037   1.10876
    9  C   1.06287   1.03355   1.05880   1.10908
   10  H   0.85047
   11  H   0.85043
   12  H   0.84797
   13  H   0.85018
   14  H   0.84826
   15  H   0.84630
   16  H   0.86089
   17  H   0.86713
   18  H   0.87676
   19  H   0.85748
   20  H   0.84972
   21  H   0.84849
   22  H   0.84735
   23  H   0.85984

 **********************
 *                    *
 * JOB ENDED NORMALLY *
 *                    *
 **********************



 TOTAL JOB TIME:             1.20 SECONDS

 == MOPAC DONE ==
