 *******************************************************************************
 **                                                                           **
 **                              MOPAC v23.2                                  **
 **                                                                           **
 *******************************************************************************
 **          Digital Object Identifier (DOI): 10.5281/zenodo.6511958          **
 **    Visit the DOI location for information on how to cite this program.    **
 *******************************************************************************

                              PM7 CALCULATION RESULTS

 *******************************************************************************
 *  CALCULATION DONE: (MAX THREADS = 40)             Fri Sep 19 21:35:33 2025  *
 *  PM7        - The PM7 Hamiltonian to be used
 *  1SCF       - DO 1 SCF AND THEN STOP 
 *  T=         - A TIME OF 172800.0 SECONDS REQUESTED
 *  DUMP=N     - RESTART FILE WRITTEN EVERY 7200.0 SECONDS REQUESTED
 *  RELSCF     - DEFAULT SCF CRITERION MULTIPLIED BY 0.0001
 *              (DEFAULT SCF CRITERION = 0.00010)
 *  GRADIENTS  - ALL GRADIENTS TO BE PRINTED
 *  DISP       - PRINT DISPERSION AND HYDROGEN BOND ENERGIES
 *******************************************************************************
PM7 1SCF GRADIENTS DISP RELSCF=0.0001
 Title: ASE calculation

   ATOM   CHEMICAL          X               Y               Z
  NUMBER   SYMBOL      (ANGSTROMS)     (ANGSTROMS)     (ANGSTROMS)

     1       C          1.84916806  *   0.14499175  *   0.00962562  *
     2       N          0.39046120  *   0.00534785  *  -0.11020288  *
     3       C         -0.38700447  *   1.16940614  *  -0.19100529  *
     4       O          0.12226794  *   2.25894171  *  -0.09616115  *
     5       C         -1.88085298  *   0.96947590  *  -0.37171252  *
     6       O         -2.17419660  *  -0.25202686  *  -1.00968244  *
     7       C         -1.65995046  *  -1.37437558  *  -0.33059309  *
     8       C         -0.15558465  *  -1.28546411  *  -0.14791771  *
     9       O          0.54744587  *  -2.25712017  *  -0.01701641  *
    10       H          2.14886511  *   0.19239602  *   1.07070192  *
    11       H          2.19163418  *   1.07031470  *  -0.48951397  *
    12       H          2.36002300  *  -0.71738939  *  -0.45719941  *
    13       H         -2.41175870  *   1.05160933  *   0.59563101  *
    14       H         -2.29670262  *   1.72209149  *  -1.07803476  *
    15       H         -1.92555827  *  -2.21560370  *  -1.00879098  *
    16       H         -2.16929586  *  -1.52045253  *   0.64076113  *



          CARTESIAN COORDINATES 

    NO.       ATOM           X           Y           Z

     1         C          1.8492      0.1450      0.0096
     2         N          0.3905      0.0053     -0.1102
     3         C         -0.3870      1.1694     -0.1910
     4         O          0.1223      2.2589     -0.0962
     5         C         -1.8809      0.9695     -0.3717
     6         O         -2.1742     -0.2520     -1.0097
     7         C         -1.6600     -1.3744     -0.3306
     8         C         -0.1556     -1.2855     -0.1479
     9         O          0.5474     -2.2571     -0.0170
    10         H          2.1489      0.1924      1.0707
    11         H          2.1916      1.0703     -0.4895
    12         H          2.3600     -0.7174     -0.4572
    13         H         -2.4118      1.0516      0.5956
    14         H         -2.2967      1.7221     -1.0780
    15         H         -1.9256     -2.2156     -1.0088
    16         H         -2.1693     -1.5205      0.6408

 General Reference for PM7:
 "Optimization of Parameters for Semiempirical Methods VI: More Modifications to the 
 NDDO Approximations and Re-optimization of Parameters", J. J. P. Stewart, J. Mol. Mod., 1:32, 19 (2013)
 https://link.springer.com/article/10.1007/s00894-012-1667-x

           Empirical Formula: C5 H7 N O3  =    16 atoms



      MOLECULAR POINT GROUP   :   Cs  


      RHF CALCULATION, NO. OF DOUBLY OCCUPIED LEVELS = 25

  SCF CRITERION =    0.1000E-07

 -------------------------------------------------------------------------------
 PM7 1SCF GRADIENTS DISP RELSCF=0.0001
 Title: ASE calculation



     1SCF WAS SPECIFIED, SO BFGS WAS NOT USED                 
     SCF FIELD WAS ACHIEVED                                   


                              PM7 CALCULATION
                                                       MOPAC v23.2 Linux
                                                       Fri Sep 19 21:35:34 2025




          FINAL HEAT OF FORMATION =       -121.59167 KCAL/MOL =    -508.73954 KJ/MOL

          TOTAL ENERGY            =     -41074.10557 KCAL/MOL = ELECTRONIC ENERGY + CORE-CORE REPULSION
          ENERGY OF ATOMS         =      40954.02300 KCAL/MOL
                              SUM =       -120.08257 KCAL/MOL
          DISPERSION ENERGY       =         -1.50910 KCAL/MOL
                              SUM =       -121.59167 KCAL/MOL = FINAL HEAT OF FORMATION



          TOTAL ENERGY            =      -1781.14180 EV
          ELECTRONIC ENERGY       =      -7862.38160 EV 
          CORE-CORE REPULSION     =       6081.23981 EV
          COSMO AREA              =        149.31 SQUARE ANGSTROMS
          COSMO VOLUME            =        143.53 CUBIC ANGSTROMS

          GRADIENT NORM           =          0.98303          =       0.24576 PER ATOM
          IONIZATION POTENTIAL    =         10.417928 EV
          HOMO LUMO ENERGIES (EV) =        -10.418 -0.089
          NO. OF FILLED LEVELS    =         25
          MOLECULAR WEIGHT        =        129.1152         POINT GROUP:  Cs  

          MOLECULAR DIMENSIONS (Angstroms)

            Atom       Atom       Distance
            H    14    H    12     5.29354
            H    15    O     4     5.00245
            H    11    H    16     2.21814


          SCF CALCULATIONS        =          1

          WALL-CLOCK TIME         =      0.797 SECONDS
          COMPUTATION TIME        =      0.652 SECONDS

          LARGEST ATOMIC GRADIENTS

          Atom     Label                     Cartesian Gradients           Cartesian Coordinates       |Gradient|
                                           X          Y          Z        X          Y          Z

            10       H                   0.248      0.013     -0.356    2.14887    0.19240    1.07070      0.434
            12       H                  -0.265      0.128      0.048    2.36002   -0.71739   -0.45720      0.299
            11       H                  -0.240     -0.162      0.062    2.19163    1.07031   -0.48951      0.297
             6       O                  -0.013     -0.003      0.293   -2.17420   -0.25203   -1.00968      0.293
             4       O                  -0.060     -0.093      0.223    0.12227    2.25894   -0.09616      0.249
             2       N                   0.231      0.024      0.060    0.39046    0.00535   -0.11020      0.240
            14       H                   0.021      0.131     -0.194   -2.29670    1.72209   -1.07803      0.235
            15       H                   0.048     -0.136     -0.186   -1.92556   -2.21560   -1.00879      0.235
             9       O                  -0.028      0.025      0.226    0.54745   -2.25712   -0.01702      0.229
            13       H                  -0.081     -0.138     -0.155   -2.41176    1.05161    0.59563      0.223



       FINAL  POINT  AND  DERIVATIVES

   PARAMETER     ATOM    TYPE            VALUE        GRADIENT
      1          1  C    CARTESIAN X     1.849168      0.130678  KCAL/ANGSTROM
      2          1  C    CARTESIAN Y     0.144992      0.014971  KCAL/ANGSTROM
      3          1  C    CARTESIAN Z     0.009626     -0.053073  KCAL/ANGSTROM
      4          2  N    CARTESIAN X     0.390461      0.231453  KCAL/ANGSTROM
      5          2  N    CARTESIAN Y     0.005348      0.023701  KCAL/ANGSTROM
      6          2  N    CARTESIAN Z    -0.110203      0.060398  KCAL/ANGSTROM
      7          3  C    CARTESIAN X    -0.387004      0.127839  KCAL/ANGSTROM
      8          3  C    CARTESIAN Y     1.169406     -0.114098  KCAL/ANGSTROM
      9          3  C    CARTESIAN Z    -0.191005      0.062694  KCAL/ANGSTROM
     10          4  O    CARTESIAN X     0.122268     -0.060323  KCAL/ANGSTROM
     11          4  O    CARTESIAN Y     2.258942     -0.093440  KCAL/ANGSTROM
     12          4  O    CARTESIAN Z    -0.096161      0.223334  KCAL/ANGSTROM
     13          5  C    CARTESIAN X    -1.880853     -0.051069  KCAL/ANGSTROM
     14          5  C    CARTESIAN Y     0.969476      0.106524  KCAL/ANGSTROM
     15          5  C    CARTESIAN Z    -0.371713      0.034282  KCAL/ANGSTROM
     16          6  O    CARTESIAN X    -2.174197     -0.012757  KCAL/ANGSTROM
     17          6  O    CARTESIAN Y    -0.252027     -0.002577  KCAL/ANGSTROM
     18          6  O    CARTESIAN Z    -1.009682      0.292694  KCAL/ANGSTROM
     19          7  C    CARTESIAN X    -1.659950     -0.021939  KCAL/ANGSTROM
     20          7  C    CARTESIAN Y    -1.374376     -0.116434  KCAL/ANGSTROM
     21          7  C    CARTESIAN Z    -0.330593      0.039974  KCAL/ANGSTROM
     22          8  C    CARTESIAN X    -0.155585      0.051252  KCAL/ANGSTROM
     23          8  C    CARTESIAN Y    -1.285464      0.205759  KCAL/ANGSTROM
     24          8  C    CARTESIAN Z    -0.147918      0.058808  KCAL/ANGSTROM
     25          9  O    CARTESIAN X     0.547446     -0.027525  KCAL/ANGSTROM
     26          9  O    CARTESIAN Y    -2.257120      0.024750  KCAL/ANGSTROM
     27          9  O    CARTESIAN Z    -0.017016      0.226339  KCAL/ANGSTROM
     28         10  H    CARTESIAN X     2.148865      0.247869  KCAL/ANGSTROM
     29         10  H    CARTESIAN Y     0.192396      0.012974  KCAL/ANGSTROM
     30         10  H    CARTESIAN Z     1.070702     -0.356157  KCAL/ANGSTROM
     31         11  H    CARTESIAN X     2.191634     -0.240302  KCAL/ANGSTROM
     32         11  H    CARTESIAN Y     1.070315     -0.162210  KCAL/ANGSTROM
     33         11  H    CARTESIAN Z    -0.489514      0.062264  KCAL/ANGSTROM
     34         12  H    CARTESIAN X     2.360023     -0.265329  KCAL/ANGSTROM
     35         12  H    CARTESIAN Y    -0.717389      0.128158  KCAL/ANGSTROM
     36         12  H    CARTESIAN Z    -0.457199      0.047812  KCAL/ANGSTROM
     37         13  H    CARTESIAN X    -2.411759     -0.081365  KCAL/ANGSTROM
     38         13  H    CARTESIAN Y     1.051609     -0.137910  KCAL/ANGSTROM
     39         13  H    CARTESIAN Z     0.595631     -0.154786  KCAL/ANGSTROM
     40         14  H    CARTESIAN X    -2.296703      0.021226  KCAL/ANGSTROM
     41         14  H    CARTESIAN Y     1.722091      0.131486  KCAL/ANGSTROM
     42         14  H    CARTESIAN Z    -1.078035     -0.193866  KCAL/ANGSTROM
     43         15  H    CARTESIAN X    -1.925558      0.047551  KCAL/ANGSTROM
     44         15  H    CARTESIAN Y    -2.215604     -0.135693  KCAL/ANGSTROM
     45         15  H    CARTESIAN Z    -1.008791     -0.186114  KCAL/ANGSTROM
     46         16  H    CARTESIAN X    -2.169296     -0.097261  KCAL/ANGSTROM
     47         16  H    CARTESIAN Y    -1.520453      0.114037  KCAL/ANGSTROM
     48         16  H    CARTESIAN Z     0.640761     -0.164607  KCAL/ANGSTROM




   ATOM   CHEMICAL          X               Y               Z
  NUMBER   SYMBOL      (ANGSTROMS)     (ANGSTROMS)     (ANGSTROMS)

     1       C          1.84916806  *   0.14499175  *   0.00962562  *
     2       N          0.39046120  *   0.00534785  *  -0.11020288  *
     3       C         -0.38700447  *   1.16940614  *  -0.19100529  *
     4       O          0.12226794  *   2.25894171  *  -0.09616115  *
     5       C         -1.88085298  *   0.96947590  *  -0.37171252  *
     6       O         -2.17419660  *  -0.25202686  *  -1.00968244  *
     7       C         -1.65995046  *  -1.37437558  *  -0.33059309  *
     8       C         -0.15558465  *  -1.28546411  *  -0.14791771  *
     9       O          0.54744587  *  -2.25712017  *  -0.01701641  *
    10       H          2.14886511  *   0.19239602  *   1.07070192  *
    11       H          2.19163418  *   1.07031470  *  -0.48951397  *
    12       H          2.36002300  *  -0.71738939  *  -0.45719941  *
    13       H         -2.41175870  *   1.05160933  *   0.59563101  *
    14       H         -2.29670262  *   1.72209149  *  -1.07803476  *
    15       H         -1.92555827  *  -2.21560370  *  -1.00879098  *
    16       H         -2.16929586  *  -1.52045253  *   0.64076113  *

                             CARTESIAN COORDINATES

   1    C        1.849168063     0.144991747     0.009625621
   2    N        0.390461203     0.005347851    -0.110202883
   3    C       -0.387004466     1.169406136    -0.191005290
   4    O        0.122267944     2.258941707    -0.096161151
   5    C       -1.880852981     0.969475903    -0.371712525
   6    O       -2.174196600    -0.252026857    -1.009682440
   7    C       -1.659950457    -1.374375580    -0.330593088
   8    C       -0.155584650    -1.285464113    -0.147917714
   9    O        0.547445868    -2.257120173    -0.017016406
  10    H        2.148865114     0.192396018     1.070701924
  11    H        2.191634184     1.070314696    -0.489513965
  12    H        2.360022997    -0.717389387    -0.457199415
  13    H       -2.411758696     1.051609332     0.595631008
  14    H       -2.296702621     1.722091495    -1.078034759
  15    H       -1.925558268    -2.215603700    -1.008790977
  16    H       -2.169295861    -1.520452527     0.640761132


           Empirical Formula: C5 H7 N O3  =    16 atoms



      MOLECULAR POINT GROUP   :   Cs  


                  EIGENVALUES  
 -37.54643 -31.68189 -31.17222 -30.76794 -26.52874 -26.41564 -23.79306 -22.64371
 -19.32944 -18.81425 -17.73327 -16.84173 -16.36010 -15.87340 -15.48591 -14.70844
 -14.62359 -14.15725 -13.51398 -13.45635 -13.26556 -12.03835 -10.92501 -10.71423
 -10.41793  -0.08870   0.60086   1.11406   1.51531   2.23457   2.82539   3.15635
   3.63846   4.33732   4.42464   4.51229   4.73186   4.90074   5.03091   5.15821
   5.24878   5.47441   6.07905


              NET ATOMIC CHARGES AND DIPOLE CONTRIBUTIONS

  ATOM NO.   TYPE          CHARGE      No. of ELECS.   s-Pop       p-Pop       
    1          C          -0.223362        4.2234     1.06038     3.16299
    2          N          -0.519981        5.5200     1.58282     3.93716
    3          C           0.550124        3.4499     1.10285     2.34703
    4          O          -0.465407        6.4654     1.87931     4.58609
    5          C          -0.145594        4.1456     1.10181     3.04379
    6          O          -0.319377        6.3194     1.88202     4.43736
    7          C          -0.145627        4.1456     1.10182     3.04381
    8          C           0.550114        3.4499     1.10282     2.34706
    9          O          -0.465459        6.4655     1.87933     4.58613
   10          H           0.151780        0.8482     0.84822
   11          H           0.167267        0.8327     0.83273
   12          H           0.167271        0.8327     0.83273
   13          H           0.159487        0.8405     0.84051
   14          H           0.189653        0.8103     0.81035
   15          H           0.189642        0.8104     0.81036
   16          H           0.159467        0.8405     0.84053
 DIPOLE           X         Y         Z       TOTAL
 POINT-CHG.    -2.210    -0.194     0.729     2.335
 HYBRID         0.332     0.030    -0.043     0.336
 SUM           -1.878    -0.163     0.685     2.006


          ATOMIC ORBITAL ELECTRON POPULATIONS

     Atom    s        px        py        pz   
    1  C   1.06038   0.80902   1.18078   1.17318
    2  N   1.58282   1.14768   1.13861   1.65086
    3  C   1.10285   0.86518   0.77510   0.70674
    4  O   1.87931   1.75350   1.33933   1.49326
    5  C   1.10181   1.00768   0.91314   1.12297
    6  O   1.88202   1.76524   1.18638   1.48573
    7  C   1.10182   0.98220   0.94722   1.11439
    8  C   1.10282   0.87606   0.76373   0.70727
    9  O   1.87933   1.65550   1.44009   1.49054
   10  H   0.84822
   11  H   0.83273
   12  H   0.83273
   13  H   0.84051
   14  H   0.81035
   15  H   0.81036
   16  H   0.84053

 **********************
 *                    *
 * JOB ENDED NORMALLY *
 *                    *
 **********************



 TOTAL JOB TIME:             1.33 SECONDS

 == MOPAC DONE ==
