 *******************************************************************************
 **                                                                           **
 **                              MOPAC v23.2                                  **
 **                                                                           **
 *******************************************************************************
 **          Digital Object Identifier (DOI): 10.5281/zenodo.6511958          **
 **    Visit the DOI location for information on how to cite this program.    **
 *******************************************************************************

                              PM7 CALCULATION RESULTS

 *******************************************************************************
 *  CALCULATION DONE: (MAX THREADS = 40)             Fri Sep 19 21:34:10 2025  *
 *  PM7        - The PM7 Hamiltonian to be used
 *
 *
 *
 *                 CHARGE ON SYSTEM = +1
 *
 *
 *
 *  1SCF       - DO 1 SCF AND THEN STOP 
 *  T=         - A TIME OF 172800.0 SECONDS REQUESTED
 *  DUMP=N     - RESTART FILE WRITTEN EVERY 7200.0 SECONDS REQUESTED
 *  RELSCF     - DEFAULT SCF CRITERION MULTIPLIED BY 0.0001
 *              (DEFAULT SCF CRITERION = 0.00010)
 *  GRADIENTS  - ALL GRADIENTS TO BE PRINTED
 *  DISP       - PRINT DISPERSION AND HYDROGEN BOND ENERGIES
 *******************************************************************************
PM7 1SCF GRADIENTS DISP RELSCF=0.0001 CHARGE=1
 Title: ASE calculation

   ATOM   CHEMICAL          X               Y               Z
  NUMBER   SYMBOL      (ANGSTROMS)     (ANGSTROMS)     (ANGSTROMS)

     1       C         -1.98048068  *   0.32609297  *   0.82598564  *
     2       C         -1.04666627  *  -0.19378215  *  -0.27529670  *
     3       C         -0.55476898  *  -1.62245899  *   0.05887026  *
     4       C          0.85764332  *  -1.85198943  *   0.13278154  *
     5       C          1.86813923  *  -0.82834838  *   0.09289834  *
     6       C          1.34638949  *   0.62021261  *   0.21100167  *
     7       C          2.33710916  *   1.53191959  *  -0.33451792  *
     8       N          3.11872361  *   2.26078691  *  -0.77087133  *
     9       C          0.04197011  *   0.77902751  *  -0.46347445  *
    10       H         -2.84507789  *  -0.33262121  *   0.98070083  *
    11       H         -2.39757857  *   1.31271188  *   0.56058758  *
    12       H         -1.47014808  *   0.45381312  *   1.78735115  *
    13       H         -1.64523958  *  -0.25645319  *  -1.23287594  *
    14       H         -1.05649699  *  -2.36152777  *  -0.64029444  *
    15       H         -1.05143799  *  -1.97616762  *   1.02416848  *
    16       H          1.20578676  *  -2.90626487  *   0.22108432  *
    17       H          2.47141555  *  -0.93696936  *  -0.87325179  *
    18       H          2.70254678  *  -1.00269371  *   0.83663980  *
    19       H          1.19612804  *   0.86748550  *   1.31515002  *
    20       H         -0.15547274  *   1.67675521  *  -1.03327378  *



          CARTESIAN COORDINATES 

    NO.       ATOM           X           Y           Z

     1         C         -1.9805      0.3261      0.8260
     2         C         -1.0467     -0.1938     -0.2753
     3         C         -0.5548     -1.6225      0.0589
     4         C          0.8576     -1.8520      0.1328
     5         C          1.8681     -0.8283      0.0929
     6         C          1.3464      0.6202      0.2110
     7         C          2.3371      1.5319     -0.3345
     8         N          3.1187      2.2608     -0.7709
     9         C          0.0420      0.7790     -0.4635
    10         H         -2.8451     -0.3326      0.9807
    11         H         -2.3976      1.3127      0.5606
    12         H         -1.4701      0.4538      1.7874
    13         H         -1.6452     -0.2565     -1.2329
    14         H         -1.0565     -2.3615     -0.6403
    15         H         -1.0514     -1.9762      1.0242
    16         H          1.2058     -2.9063      0.2211
    17         H          2.4714     -0.9370     -0.8733
    18         H          2.7025     -1.0027      0.8366
    19         H          1.1961      0.8675      1.3152
    20         H         -0.1555      1.6768     -1.0333

 General Reference for PM7:
 "Optimization of Parameters for Semiempirical Methods VI: More Modifications to the 
 NDDO Approximations and Re-optimization of Parameters", J. J. P. Stewart, J. Mol. Mod., 1:32, 19 (2013)
 https://link.springer.com/article/10.1007/s00894-012-1667-x

           Empirical Formula: C8 H11 N  =    20 atoms



      MOLECULAR POINT GROUP   :   C1  


          UHF CALCULATION, NO. OF ALPHA ELECTRONS =   24
                           NO. OF BETA  ELECTRONS =   23
  SCF CRITERION =    0.1000E-07

 -------------------------------------------------------------------------------
 PM7 1SCF GRADIENTS DISP RELSCF=0.0001 CHARGE=1
 Title: ASE calculation



     1SCF WAS SPECIFIED, SO BFGS WAS NOT USED                 
     SCF FIELD WAS ACHIEVED                                   


                              PM7 CALCULATION
                                                       MOPAC v23.2 Linux
                                                       Fri Sep 19 21:34:11 2025




          FINAL HEAT OF FORMATION =        243.42985 KCAL/MOL =    1018.51049 KJ/MOL

          TOTAL ENERGY            =     -30148.61560 KCAL/MOL = ELECTRONIC ENERGY + CORE-CORE REPULSION
          ENERGY OF ATOMS         =      30394.11925 KCAL/MOL
                              SUM =        245.50365 KCAL/MOL
          DISPERSION ENERGY       =         -2.07380 KCAL/MOL
                              SUM =        243.42985 KCAL/MOL = FINAL HEAT OF FORMATION



          TOTAL ENERGY            =      -1307.36771 EV
          ELECTRONIC ENERGY       =      -6676.31969 EV 
          CORE-CORE REPULSION     =       5368.95198 EV
          COSMO AREA              =        170.49 SQUARE ANGSTROMS
          COSMO VOLUME            =        170.21 CUBIC ANGSTROMS

          GRADIENT NORM           =          0.89452          =       0.20002 PER ATOM
          IONIZATION POTENTIAL    =         13.531723 EV
          ALPHA SOMO LUMO (EV)    =        -13.532 -7.133
          BETA  SOMO LUMO (EV)    =        -15.997 -7.117
          NO. OF ALPHA ELECTRONS  =         24
          NO. OF BETA  ELECTRONS  =         23
          MOLECULAR WEIGHT        =        121.1816         POINT GROUP:  C1  

          MOLECULAR DIMENSIONS (Angstroms)

            Atom       Atom       Distance
            H    10    N     8     6.73504
            H    16    H    11     5.30679
            H    13    H    19     3.25224


          SCF CALCULATIONS        =          1

          WALL-CLOCK TIME         =      1.055 SECONDS
          COMPUTATION TIME        =      0.880 SECONDS

          LARGEST ATOMIC GRADIENTS

          Atom     Label                     Cartesian Gradients           Cartesian Coordinates       |Gradient|
                                           X          Y          Z        X          Y          Z

            14       H                   0.305      0.111     -0.032   -1.05650   -2.36153   -0.64029      0.326
             3       C                  -0.228     -0.023      0.199   -0.55477   -1.62246    0.05887      0.303
            15       H                   0.014      0.067     -0.286   -1.05144   -1.97617    1.02417      0.294
            13       H                  -0.186      0.126      0.122   -1.64524   -0.25645   -1.23288      0.255
            18       H                  -0.024      0.192      0.131    2.70255   -1.00269    0.83664      0.233
            20       H                   0.015      0.007      0.229   -0.15547    1.67676   -1.03327      0.229
            12       H                   0.204      0.051     -0.078   -1.47015    0.45381    1.78735      0.224
             4       C                  -0.154      0.158     -0.021    0.85764   -1.85199    0.13278      0.222
            11       H                  -0.127     -0.171     -0.022   -2.39758    1.31271    0.56059      0.214
            17       H                   0.043     -0.042      0.205    2.47142   -0.93697   -0.87325      0.213



       FINAL  POINT  AND  DERIVATIVES

   PARAMETER     ATOM    TYPE            VALUE        GRADIENT
      1          1  C    CARTESIAN X    -1.980481      0.070510  KCAL/ANGSTROM
      2          1  C    CARTESIAN Y     0.326093     -0.042456  KCAL/ANGSTROM
      3          1  C    CARTESIAN Z     0.825986     -0.012975  KCAL/ANGSTROM
      4          2  C    CARTESIAN X    -1.046666      0.017841  KCAL/ANGSTROM
      5          2  C    CARTESIAN Y    -0.193782      0.015517  KCAL/ANGSTROM
      6          2  C    CARTESIAN Z    -0.275297     -0.002726  KCAL/ANGSTROM
      7          3  C    CARTESIAN X    -0.554769     -0.227769  KCAL/ANGSTROM
      8          3  C    CARTESIAN Y    -1.622459     -0.023211  KCAL/ANGSTROM
      9          3  C    CARTESIAN Z     0.058870      0.198807  KCAL/ANGSTROM
     10          4  C    CARTESIAN X     0.857643     -0.154210  KCAL/ANGSTROM
     11          4  C    CARTESIAN Y    -1.851989      0.157603  KCAL/ANGSTROM
     12          4  C    CARTESIAN Z     0.132782     -0.021366  KCAL/ANGSTROM
     13          5  C    CARTESIAN X     1.868139      0.007355  KCAL/ANGSTROM
     14          5  C    CARTESIAN Y    -0.828348     -0.023955  KCAL/ANGSTROM
     15          5  C    CARTESIAN Z     0.092898      0.002682  KCAL/ANGSTROM
     16          6  C    CARTESIAN X     1.346389      0.003974  KCAL/ANGSTROM
     17          6  C    CARTESIAN Y     0.620213     -0.080731  KCAL/ANGSTROM
     18          6  C    CARTESIAN Z     0.211002     -0.025518  KCAL/ANGSTROM
     19          7  C    CARTESIAN X     2.337109     -0.023381  KCAL/ANGSTROM
     20          7  C    CARTESIAN Y     1.531920     -0.163495  KCAL/ANGSTROM
     21          7  C    CARTESIAN Z    -0.334518      0.003338  KCAL/ANGSTROM
     22          8  N    CARTESIAN X     3.118724      0.018842  KCAL/ANGSTROM
     23          8  N    CARTESIAN Y     2.260787     -0.084684  KCAL/ANGSTROM
     24          8  N    CARTESIAN Z    -0.770871     -0.192996  KCAL/ANGSTROM
     25          9  C    CARTESIAN X     0.041970      0.086655  KCAL/ANGSTROM
     26          9  C    CARTESIAN Y     0.779028     -0.044044  KCAL/ANGSTROM
     27          9  C    CARTESIAN Z    -0.463474     -0.098420  KCAL/ANGSTROM
     28         10  H    CARTESIAN X    -2.845078      0.028628  KCAL/ANGSTROM
     29         10  H    CARTESIAN Y    -0.332621     -0.015523  KCAL/ANGSTROM
     30         10  H    CARTESIAN Z     0.980701      0.009948  KCAL/ANGSTROM
     31         11  H    CARTESIAN X    -2.397579     -0.126611  KCAL/ANGSTROM
     32         11  H    CARTESIAN Y     1.312712     -0.171400  KCAL/ANGSTROM
     33         11  H    CARTESIAN Z     0.560588     -0.022043  KCAL/ANGSTROM
     34         12  H    CARTESIAN X    -1.470148      0.203969  KCAL/ANGSTROM
     35         12  H    CARTESIAN Y     0.453813      0.050926  KCAL/ANGSTROM
     36         12  H    CARTESIAN Z     1.787351     -0.077899  KCAL/ANGSTROM
     37         13  H    CARTESIAN X    -1.645240     -0.186053  KCAL/ANGSTROM
     38         13  H    CARTESIAN Y    -0.256453      0.125513  KCAL/ANGSTROM
     39         13  H    CARTESIAN Z    -1.232876      0.121577  KCAL/ANGSTROM
     40         14  H    CARTESIAN X    -1.056497      0.304638  KCAL/ANGSTROM
     41         14  H    CARTESIAN Y    -2.361528      0.110998  KCAL/ANGSTROM
     42         14  H    CARTESIAN Z    -0.640294     -0.032399  KCAL/ANGSTROM
     43         15  H    CARTESIAN X    -1.051438      0.014116  KCAL/ANGSTROM
     44         15  H    CARTESIAN Y    -1.976168      0.067109  KCAL/ANGSTROM
     45         15  H    CARTESIAN Z     1.024168     -0.286200  KCAL/ANGSTROM
     46         16  H    CARTESIAN X     1.205787      0.039246  KCAL/ANGSTROM
     47         16  H    CARTESIAN Y    -2.906265      0.082714  KCAL/ANGSTROM
     48         16  H    CARTESIAN Z     0.221084     -0.094406  KCAL/ANGSTROM
     49         17  H    CARTESIAN X     2.471416      0.042692  KCAL/ANGSTROM
     50         17  H    CARTESIAN Y    -0.936969     -0.041944  KCAL/ANGSTROM
     51         17  H    CARTESIAN Z    -0.873252      0.204664  KCAL/ANGSTROM
     52         18  H    CARTESIAN X     2.702547     -0.023981  KCAL/ANGSTROM
     53         18  H    CARTESIAN Y    -1.002694      0.191716  KCAL/ANGSTROM
     54         18  H    CARTESIAN Z     0.836640      0.130892  KCAL/ANGSTROM
     55         19  H    CARTESIAN X     1.196128     -0.111532  KCAL/ANGSTROM
     56         19  H    CARTESIAN Y     0.867485     -0.117990  KCAL/ANGSTROM
     57         19  H    CARTESIAN Z     1.315150     -0.033763  KCAL/ANGSTROM
     58         20  H    CARTESIAN X    -0.155473      0.015068  KCAL/ANGSTROM
     59         20  H    CARTESIAN Y     1.676755      0.007331  KCAL/ANGSTROM
     60         20  H    CARTESIAN Z    -1.033274      0.228798  KCAL/ANGSTROM




   ATOM   CHEMICAL          X               Y               Z
  NUMBER   SYMBOL      (ANGSTROMS)     (ANGSTROMS)     (ANGSTROMS)

     1       C         -1.98048068  *   0.32609297  *   0.82598564  *
     2       C         -1.04666627  *  -0.19378215  *  -0.27529670  *
     3       C         -0.55476898  *  -1.62245899  *   0.05887026  *
     4       C          0.85764332  *  -1.85198943  *   0.13278154  *
     5       C          1.86813923  *  -0.82834838  *   0.09289834  *
     6       C          1.34638949  *   0.62021261  *   0.21100167  *
     7       C          2.33710916  *   1.53191959  *  -0.33451792  *
     8       N          3.11872361  *   2.26078691  *  -0.77087133  *
     9       C          0.04197011  *   0.77902751  *  -0.46347445  *
    10       H         -2.84507789  *  -0.33262121  *   0.98070083  *
    11       H         -2.39757857  *   1.31271188  *   0.56058758  *
    12       H         -1.47014808  *   0.45381312  *   1.78735115  *
    13       H         -1.64523958  *  -0.25645319  *  -1.23287594  *
    14       H         -1.05649699  *  -2.36152777  *  -0.64029444  *
    15       H         -1.05143799  *  -1.97616762  *   1.02416848  *
    16       H          1.20578676  *  -2.90626487  *   0.22108432  *
    17       H          2.47141555  *  -0.93696936  *  -0.87325179  *
    18       H          2.70254678  *  -1.00269371  *   0.83663980  *
    19       H          1.19612804  *   0.86748550  *   1.31515002  *
    20       H         -0.15547274  *   1.67675521  *  -1.03327378  *

                             CARTESIAN COORDINATES

   1    C       -1.980480684     0.326092969     0.825985641
   2    C       -1.046666270    -0.193782152    -0.275296695
   3    C       -0.554768981    -1.622458992     0.058870257
   4    C        0.857643324    -1.851989428     0.132781535
   5    C        1.868139230    -0.828348384     0.092898341
   6    C        1.346389492     0.620212613     0.211001669
   7    C        2.337109160     1.531919592    -0.334517915
   8    N        3.118723610     2.260786915    -0.770871326
   9    C        0.041970107     0.779027509    -0.463474449
  10    H       -2.845077895    -0.332621211     0.980700829
  11    H       -2.397578574     1.312711883     0.560587583
  12    H       -1.470148082     0.453813123     1.787351152
  13    H       -1.645239580    -0.256453194    -1.232875945
  14    H       -1.056496989    -2.361527774    -0.640294445
  15    H       -1.051437986    -1.976167617     1.024168479
  16    H        1.205786761    -2.906264866     0.221084321
  17    H        2.471415550    -0.936969356    -0.873251793
  18    H        2.702546779    -1.002693714     0.836639796
  19    H        1.196128041     0.867485495     1.315150024
  20    H       -0.155472741     1.676755215    -1.033273780


           Empirical Formula: C8 H11 N  =    20 atoms



      MOLECULAR POINT GROUP   :   C1  


          ALPHA EIGENVALUES  
 -38.31953 -36.25767 -32.74236 -32.18812 -28.74919 -26.92988 -25.91103 -23.54663
 -22.30412 -21.87747 -20.93063 -20.53151 -19.96544 -19.45309 -18.66754 -18.41422
 -17.78865 -17.36797 -16.97442 -16.80171 -16.49545 -16.36455 -16.07099 -13.53172
  -7.13283  -2.74711  -2.43913  -2.36119  -2.18069  -1.74541  -1.50013  -1.04653
  -1.01007  -0.85126  -0.81345  -0.34148  -0.19252   0.15509   0.20857   0.37402
   0.65669   1.33446   1.80286   1.83250   1.98503   2.22792   2.98812


           BETA EIGENVALUES 
 -38.32987 -36.21187 -32.70780 -32.09166 -28.70983 -26.75897 -25.85391 -23.50121
 -22.17293 -21.79295 -20.88782 -20.49772 -19.88896 -19.36995 -18.54076 -18.36302
 -17.69124 -17.22465 -16.92469 -16.77020 -16.42976 -16.30314 -15.99701  -7.11717
  -4.03080  -2.68375  -2.40341  -2.34266  -2.16377  -1.72577  -1.49160  -1.01893
  -0.99089  -0.79704  -0.77466  -0.21379   0.02155   0.19770   0.33345   0.43752
   0.73973   1.38041   1.81674   1.84372   2.17702   2.23397   2.99422


              NET ATOMIC CHARGES AND DIPOLE CONTRIBUTIONS

  ATOM NO.   TYPE          CHARGE      No. of ELECS.   s-Pop       p-Pop       
    1          C          -0.450435        4.4504     1.05698     3.39345
    2          C          -0.071143        4.0711     1.05342     3.01773
    3          C          -0.419132        4.4191     1.07228     3.34685
    4          C           0.390310        3.6097     1.18784     2.42185
    5          C          -0.403736        4.4037     1.06919     3.33455
    6          C          -0.062973        4.0630     1.03864     3.02434
    7          C           0.025875        3.9741     1.10891     2.86522
    8          N          -0.118389        5.1184     1.82763     3.29076
    9          C          -0.195016        4.1950     1.11799     3.07702
   10          H           0.166811        0.8332     0.83319
   11          H           0.185947        0.8141     0.81405
   12          H           0.157728        0.8423     0.84227
   13          H           0.184239        0.8158     0.81576
   14          H           0.247597        0.7524     0.75240
   15          H           0.267625        0.7324     0.73237
   16          H           0.178157        0.8218     0.82184
   17          H           0.271576        0.7284     0.72842
   18          H           0.247452        0.7525     0.75255
   19          H           0.208961        0.7910     0.79104
   20          H           0.188544        0.8115     0.81146
 DIPOLE           X         Y         Z       TOTAL
 POINT-CHG.    -2.232    -8.536     1.750     8.995
 HYBRID        -0.059    -0.746     0.317     0.812
 SUM           -2.291    -9.281     2.067     9.781


          ATOMIC ORBITAL ELECTRON POPULATIONS

     Atom    s        px        py        pz   
    1  C   1.05698   1.11234   1.19447   1.08665
    2  C   1.05342   1.02579   0.89364   1.09830
    3  C   1.07228   1.00552   1.15190   1.18943
    4  C   1.18784   0.99689   1.06466   0.36030
    5  C   1.06919   1.08622   1.03966   1.20866
    6  C   1.03864   0.98437   0.90907   1.13090
    7  C   1.10891   0.94687   0.95562   0.96272
    8  N   1.82763   1.12140   1.09728   1.07208
    9  C   1.11799   0.94989   1.08663   1.04050
   10  H   0.83319
   11  H   0.81405
   12  H   0.84227
   13  H   0.81576
   14  H   0.75240
   15  H   0.73237
   16  H   0.82184
   17  H   0.72842
   18  H   0.75255
   19  H   0.79104
   20  H   0.81146


                    (SZ)    =    0.500000
                    (S**2)  =    0.753947


          ATOMIC ORBITAL SPIN POPULATIONS

    Atom   Total    s     px     py     pz   
         Atomic
    1  C  0.0434  0.008  0.016  0.002  0.018
    2  C -0.0486 -0.006 -0.023 -0.014 -0.006
    3  C  0.0071  0.001  0.001  0.005  0.001
    4  C  0.0039 -0.000 -0.001 -0.001  0.005
    5  C  0.0245  0.004  0.003  0.016  0.001
    6  C -0.0480 -0.006 -0.021 -0.009 -0.013
    7  C  0.0097  0.002  0.003  0.002  0.003
    8  N -0.0069 -0.000 -0.002 -0.001 -0.004
    9  C  1.0039  0.027  0.127  0.226  0.623
   10  H  0.0009  0.001
   11  H -0.0010 -0.001
   12  H -0.0014 -0.001
   13  H  0.0126  0.013
   14  H -0.0010 -0.001
   15  H -0.0006 -0.001
   16  H  0.0004  0.000
   17  H -0.0013 -0.001
   18  H -0.0002 -0.000
   19  H  0.0305  0.030
   20  H -0.0280 -0.028

 **********************
 *                    *
 * JOB ENDED NORMALLY *
 *                    *
 **********************



 TOTAL JOB TIME:             1.48 SECONDS

 == MOPAC DONE ==
