 *******************************************************************************
 **                                                                           **
 **                              MOPAC v23.2                                  **
 **                                                                           **
 *******************************************************************************
 **          Digital Object Identifier (DOI): 10.5281/zenodo.6511958          **
 **    Visit the DOI location for information on how to cite this program.    **
 *******************************************************************************

                              PM7 CALCULATION RESULTS

 *******************************************************************************
 *  CALCULATION DONE: (MAX THREADS = 40)             Fri Sep 19 21:44:41 2025  *
 *  PM7        - The PM7 Hamiltonian to be used
 *  EPS=37.5   - USE ANDREAS KLAMT'S COSMO IMPLICIT SOLVATION MODEL
 *  1SCF       - DO 1 SCF AND THEN STOP 
 *  T=         - A TIME OF 172800.0 SECONDS REQUESTED
 *  DUMP=N     - RESTART FILE WRITTEN EVERY 7200.0 SECONDS REQUESTED
 *  RELSCF     - DEFAULT SCF CRITERION MULTIPLIED BY 0.0001
 *              (DEFAULT SCF CRITERION = 0.00010)
 *  GRADIENTS  - ALL GRADIENTS TO BE PRINTED
 *  DISP       - PRINT DISPERSION AND HYDROGEN BOND ENERGIES
 *******************************************************************************
PM7 1SCF GRADIENTS EPS=37.5 DISP RELSCF=0.0001
 Title: ASE calculation

   ATOM   CHEMICAL          X               Y               Z
  NUMBER   SYMBOL      (ANGSTROMS)     (ANGSTROMS)     (ANGSTROMS)

     1       C         -2.44440065  *  -0.53085277  *   0.95221335  *
     2       O         -1.20711943  *   0.12491764  *   1.14693648  *
     3       C         -0.29500186  *   0.09269233  *   0.06697691  *
     4       C         -0.89760901  *   0.79202220  *  -1.16040535  *
     5       O         -1.30075912  *   2.10632033  *  -0.83741917  *
     6       C          0.20153541  *  -1.34077152  *  -0.26191242  *
     7       C          1.68898504  *  -1.27353426  *  -0.06020043  *
     8       C          2.08591333  *  -0.08948725  *   0.42332587  *
     9       C          0.94046559  *   0.85610760  *   0.62721402  *
    10       H         -2.86641770  *  -0.55791052  *   1.96599976  *
    11       H         -3.08672355  *   0.05398322  *   0.28646435  *
    12       H         -2.31714197  *  -1.54786503  *   0.57226702  *
    13       H         -1.77439080  *   0.25577718  *  -1.56342708  *
    14       H         -0.15217571  *   0.92904675  *  -1.96599976  *
    15       H         -1.66444698  *   2.12566259  *   0.07619188  *
    16       H         -0.24874004  *  -2.07714229  *   0.43092742  *
    17       H         -0.06670627  *  -1.65857330  *  -1.28135188  *
    18       H          2.29936513  *  -2.12566259  *  -0.29262698  *
    19       H          3.08672355  *   0.21803302  *   0.66744862  *
    20       H          1.08633397  *   1.82452085  *   0.11730512  *
    21       H          0.79530702  *   1.09297853  *   1.70061624  *



          CARTESIAN COORDINATES 

    NO.       ATOM           X           Y           Z

     1         C         -2.4444     -0.5309      0.9522
     2         O         -1.2071      0.1249      1.1469
     3         C         -0.2950      0.0927      0.0670
     4         C         -0.8976      0.7920     -1.1604
     5         O         -1.3008      2.1063     -0.8374
     6         C          0.2015     -1.3408     -0.2619
     7         C          1.6890     -1.2735     -0.0602
     8         C          2.0859     -0.0895      0.4233
     9         C          0.9405      0.8561      0.6272
    10         H         -2.8664     -0.5579      1.9660
    11         H         -3.0867      0.0540      0.2865
    12         H         -2.3171     -1.5479      0.5723
    13         H         -1.7744      0.2558     -1.5634
    14         H         -0.1522      0.9290     -1.9660
    15         H         -1.6644      2.1257      0.0762
    16         H         -0.2487     -2.0771      0.4309
    17         H         -0.0667     -1.6586     -1.2814
    18         H          2.2994     -2.1257     -0.2926
    19         H          3.0867      0.2180      0.6674
    20         H          1.0863      1.8245      0.1173
    21         H          0.7953      1.0930      1.7006

 General Reference for PM7:
 "Optimization of Parameters for Semiempirical Methods VI: More Modifications to the 
 NDDO Approximations and Re-optimization of Parameters", J. J. P. Stewart, J. Mol. Mod., 1:32, 19 (2013)
 https://link.springer.com/article/10.1007/s00894-012-1667-x

           Empirical Formula: C7 H12 O2  =    21 atoms



      MOLECULAR POINT GROUP   :   C1  


      RHF CALCULATION, NO. OF DOUBLY OCCUPIED LEVELS = 26

  SCF CRITERION =    0.1000E-07

 -------------------------------------------------------------------------------
 PM7 1SCF GRADIENTS EPS=37.5 DISP RELSCF=0.0001
 Title: ASE calculation



     1SCF WAS SPECIFIED, SO BFGS WAS NOT USED                 
     SCF FIELD WAS ACHIEVED                                   


                              PM7 CALCULATION
                                                       MOPAC v23.2 Linux
                                                       Fri Sep 19 21:44:42 2025




          FINAL HEAT OF FORMATION =        -86.95931 KCAL/MOL =    -363.83774 KJ/MOL

          TOTAL ENERGY            =     -37181.74740 KCAL/MOL = ELECTRONIC ENERGY + CORE-CORE REPULSION + SOLVATION ENERGY
          ENERGY OF ATOMS         =      37097.27293 KCAL/MOL
                              SUM =        -84.47447 KCAL/MOL
          DISPERSION ENERGY       =         -2.24486 KCAL/MOL
          H-BOND ENERGY           =         -0.23998 KCAL/MOL
                              SUM =        -86.95931 KCAL/MOL = FINAL HEAT OF FORMATION

          VAN DER WAALS AREA      =        163.38 SQUARE ANGSTROMS


          TOTAL ENERGY            =      -1612.35317 EV
          ELECTRONIC ENERGY       =      -2574.15881 EV 
          CORE-CORE REPULSION     =        961.80564 EV

          DIELECTRIC ENERGY       =         -0.35683 EV
          COSMO AREA              =        163.38 SQUARE ANGSTROMS
          COSMO VOLUME            =        167.26 CUBIC ANGSTROMS

          GRADIENT NORM           =          7.56302          =       1.65039 PER ATOM
          IONIZATION POTENTIAL    =          9.841206 EV
          HOMO LUMO ENERGIES (EV) =         -9.841  0.906
          NO. OF FILLED LEVELS    =         26
          MOLECULAR WEIGHT        =        128.1706         POINT GROUP:  C1  

          MOLECULAR DIMENSIONS (Angstroms)

            Atom       Atom       Distance
            H    19    H    11     6.18737
            H    15    H    18     4.39696
            H    14    H    10     4.24973


          SCF CALCULATIONS        =          2

          WALL-CLOCK TIME         =      1.016 SECONDS
          COMPUTATION TIME        =      0.612 SECONDS

          LARGEST ATOMIC GRADIENTS

          Atom     Label                     Cartesian Gradients           Cartesian Coordinates       |Gradient|
                                           X          Y          Z        X          Y          Z

             6       C                  -1.574     -2.471     -1.782    0.20154   -1.34077   -0.26191      3.429
             4       C                  -1.915      2.163      0.945   -0.89761    0.79202   -1.16041      3.040
            15       H                   1.149     -1.097     -2.271   -1.66445    2.12566    0.07619      2.771
             2       O                  -1.411      0.373      1.395   -1.20712    0.12492    1.14694      2.019
            16       H                   1.105      1.292      0.841   -0.24874   -2.07714    0.43093      1.897
             1       C                   0.844     -0.150     -1.637   -2.44440   -0.53085    0.95221      1.848
             5       O                   0.632     -1.494      0.447   -1.30076    2.10632   -0.83742      1.683
            18       H                  -0.820      1.150      0.370    2.29937   -2.12566   -0.29263      1.460
             7       C                   0.996     -1.027     -0.212    1.68899   -1.27353   -0.06020      1.446
             3       C                  -0.872     -0.735      0.835   -0.29500    0.09269    0.06698      1.413



       FINAL  POINT  AND  DERIVATIVES

   PARAMETER     ATOM    TYPE            VALUE        GRADIENT
      1          1  C    CARTESIAN X    -2.444401      0.844204  KCAL/ANGSTROM
      2          1  C    CARTESIAN Y    -0.530853     -0.149958  KCAL/ANGSTROM
      3          1  C    CARTESIAN Z     0.952213     -1.636700  KCAL/ANGSTROM
      4          2  O    CARTESIAN X    -1.207119     -1.410825  KCAL/ANGSTROM
      5          2  O    CARTESIAN Y     0.124918      0.372960  KCAL/ANGSTROM
      6          2  O    CARTESIAN Z     1.146936      1.394737  KCAL/ANGSTROM
      7          3  C    CARTESIAN X    -0.295002     -0.871677  KCAL/ANGSTROM
      8          3  C    CARTESIAN Y     0.092692     -0.734691  KCAL/ANGSTROM
      9          3  C    CARTESIAN Z     0.066977      0.834895  KCAL/ANGSTROM
     10          4  C    CARTESIAN X    -0.897609     -1.915069  KCAL/ANGSTROM
     11          4  C    CARTESIAN Y     0.792022      2.163070  KCAL/ANGSTROM
     12          4  C    CARTESIAN Z    -1.160405      0.944712  KCAL/ANGSTROM
     13          5  O    CARTESIAN X    -1.300759      0.631757  KCAL/ANGSTROM
     14          5  O    CARTESIAN Y     2.106320     -1.493940  KCAL/ANGSTROM
     15          5  O    CARTESIAN Z    -0.837419      0.447047  KCAL/ANGSTROM
     16          6  C    CARTESIAN X     0.201535     -1.574146  KCAL/ANGSTROM
     17          6  C    CARTESIAN Y    -1.340772     -2.470837  KCAL/ANGSTROM
     18          6  C    CARTESIAN Z    -0.261912     -1.781584  KCAL/ANGSTROM
     19          7  C    CARTESIAN X     1.688985      0.996186  KCAL/ANGSTROM
     20          7  C    CARTESIAN Y    -1.273534     -1.027101  KCAL/ANGSTROM
     21          7  C    CARTESIAN Z    -0.060200     -0.211873  KCAL/ANGSTROM
     22          8  C    CARTESIAN X     2.085913      0.792118  KCAL/ANGSTROM
     23          8  C    CARTESIAN Y    -0.089487      0.041028  KCAL/ANGSTROM
     24          8  C    CARTESIAN Z     0.423326     -0.102850  KCAL/ANGSTROM
     25          9  C    CARTESIAN X     0.940466      0.193206  KCAL/ANGSTROM
     26          9  C    CARTESIAN Y     0.856108      0.076650  KCAL/ANGSTROM
     27          9  C    CARTESIAN Z     0.627214     -0.149332  KCAL/ANGSTROM
     28         10  H    CARTESIAN X    -2.866418      1.054430  KCAL/ANGSTROM
     29         10  H    CARTESIAN Y    -0.557911      0.283871  KCAL/ANGSTROM
     30         10  H    CARTESIAN Z     1.966000     -0.080278  KCAL/ANGSTROM
     31         11  H    CARTESIAN X    -3.086724      0.341616  KCAL/ANGSTROM
     32         11  H    CARTESIAN Y     0.053983     -0.061161  KCAL/ANGSTROM
     33         11  H    CARTESIAN Z     0.286464      0.208571  KCAL/ANGSTROM
     34         12  H    CARTESIAN X    -2.317142      0.268433  KCAL/ANGSTROM
     35         12  H    CARTESIAN Y    -1.547865      0.638936  KCAL/ANGSTROM
     36         12  H    CARTESIAN Z     0.572267      0.419006  KCAL/ANGSTROM
     37         13  H    CARTESIAN X    -1.774391      0.840976  KCAL/ANGSTROM
     38         13  H    CARTESIAN Y     0.255777      0.440867  KCAL/ANGSTROM
     39         13  H    CARTESIAN Z    -1.563427      0.204563  KCAL/ANGSTROM
     40         14  H    CARTESIAN X    -0.152176     -0.469974  KCAL/ANGSTROM
     41         14  H    CARTESIAN Y     0.929047      0.670823  KCAL/ANGSTROM
     42         14  H    CARTESIAN Z    -1.966000      0.241985  KCAL/ANGSTROM
     43         15  H    CARTESIAN X    -1.664447      1.148862  KCAL/ANGSTROM
     44         15  H    CARTESIAN Y     2.125663     -1.096663  KCAL/ANGSTROM
     45         15  H    CARTESIAN Z     0.076192     -2.271011  KCAL/ANGSTROM
     46         16  H    CARTESIAN X    -0.248740      1.104968  KCAL/ANGSTROM
     47         16  H    CARTESIAN Y    -2.077142      1.291655  KCAL/ANGSTROM
     48         16  H    CARTESIAN Z     0.430927      0.841228  KCAL/ANGSTROM
     49         17  H    CARTESIAN X    -0.066706      0.692476  KCAL/ANGSTROM
     50         17  H    CARTESIAN Y    -1.658573      0.966948  KCAL/ANGSTROM
     51         17  H    CARTESIAN Z    -1.281352      0.651158  KCAL/ANGSTROM
     52         18  H    CARTESIAN X     2.299365     -0.819855  KCAL/ANGSTROM
     53         18  H    CARTESIAN Y    -2.125663      1.149850  KCAL/ANGSTROM
     54         18  H    CARTESIAN Z    -0.292627      0.369607  KCAL/ANGSTROM
     55         19  H    CARTESIAN X     3.086724     -0.824575  KCAL/ANGSTROM
     56         19  H    CARTESIAN Y     0.218033     -0.268050  KCAL/ANGSTROM
     57         19  H    CARTESIAN Z     0.667449     -0.006001  KCAL/ANGSTROM
     58         20  H    CARTESIAN X     1.086334     -0.485339  KCAL/ANGSTROM
     59         20  H    CARTESIAN Y     1.824521      0.040990  KCAL/ANGSTROM
     60         20  H    CARTESIAN Z     0.117305     -0.409181  KCAL/ANGSTROM
     61         21  H    CARTESIAN X     0.795307     -0.537774  KCAL/ANGSTROM
     62         21  H    CARTESIAN Y     1.092979     -0.835283  KCAL/ANGSTROM
     63         21  H    CARTESIAN Z     1.700616      0.091303  KCAL/ANGSTROM




   ATOM   CHEMICAL          X               Y               Z
  NUMBER   SYMBOL      (ANGSTROMS)     (ANGSTROMS)     (ANGSTROMS)

     1       C         -2.44440065  *  -0.53085277  *   0.95221335  *
     2       O         -1.20711943  *   0.12491764  *   1.14693648  *
     3       C         -0.29500186  *   0.09269233  *   0.06697691  *
     4       C         -0.89760901  *   0.79202220  *  -1.16040535  *
     5       O         -1.30075912  *   2.10632033  *  -0.83741917  *
     6       C          0.20153541  *  -1.34077152  *  -0.26191242  *
     7       C          1.68898504  *  -1.27353426  *  -0.06020043  *
     8       C          2.08591333  *  -0.08948725  *   0.42332587  *
     9       C          0.94046559  *   0.85610760  *   0.62721402  *
    10       H         -2.86641770  *  -0.55791052  *   1.96599976  *
    11       H         -3.08672355  *   0.05398322  *   0.28646435  *
    12       H         -2.31714197  *  -1.54786503  *   0.57226702  *
    13       H         -1.77439080  *   0.25577718  *  -1.56342708  *
    14       H         -0.15217571  *   0.92904675  *  -1.96599976  *
    15       H         -1.66444698  *   2.12566259  *   0.07619188  *
    16       H         -0.24874004  *  -2.07714229  *   0.43092742  *
    17       H         -0.06670627  *  -1.65857330  *  -1.28135188  *
    18       H          2.29936513  *  -2.12566259  *  -0.29262698  *
    19       H          3.08672355  *   0.21803302  *   0.66744862  *
    20       H          1.08633397  *   1.82452085  *   0.11730512  *
    21       H          0.79530702  *   1.09297853  *   1.70061624  *

                             CARTESIAN COORDINATES

   1    C       -2.444400648    -0.530852772     0.952213349
   2    O       -1.207119427     0.124917636     1.146936475
   3    C       -0.295001863     0.092692327     0.066976907
   4    C       -0.897609007     0.792022199    -1.160405352
   5    O       -1.300759121     2.106320328    -0.837419173
   6    C        0.201535407    -1.340771521    -0.261912423
   7    C        1.688985038    -1.273534259    -0.060200431
   8    C        2.085913332    -0.089487249     0.423325870
   9    C        0.940465588     0.856107600     0.627214016
  10    H       -2.866417695    -0.557910522     1.965999763
  11    H       -3.086723553     0.053983217     0.286464349
  12    H       -2.317141972    -1.547865030     0.572267017
  13    H       -1.774390798     0.255777176    -1.563427085
  14    H       -0.152175712     0.929046752    -1.965999763
  15    H       -1.664446981     2.125662585     0.076191879
  16    H       -0.248740038    -2.077142289     0.430927416
  17    H       -0.066706270    -1.658573296    -1.281351885
  18    H        2.299365131    -2.125662585    -0.292626978
  19    H        3.086723553     0.218033022     0.667448624
  20    H        1.086333969     1.824520855     0.117305123
  21    H        0.795307024     1.092978532     1.700616243


           Empirical Formula: C7 H12 O2  =    21 atoms



      MOLECULAR POINT GROUP   :   C1  


                  EIGENVALUES  
 -31.25707 -29.40286 -28.96387 -25.40592 -25.25155 -23.97916 -22.49206 -19.57020
 -18.74458 -17.67914 -17.60478 -16.12092 -15.40999 -15.16428 -14.72821 -14.15531
 -14.06939 -13.48291 -13.36074 -12.50512 -12.47103 -12.15767 -11.84066 -11.00483
 -10.30203  -9.84121   0.90641   1.95187   2.72174   3.22841   3.56803   3.74184
   4.37756   4.55128   4.59645   5.40313   5.49848   5.60718   5.63858   5.67391
   5.78724   5.94421   6.06276   6.13475   6.22050   6.33381   6.39465   6.52632


              NET ATOMIC CHARGES AND DIPOLE CONTRIBUTIONS

  ATOM NO.   TYPE          CHARGE      No. of ELECS.   s-Pop       p-Pop       
    1          C          -0.198800        4.1988     1.08370     3.11510
    2          O          -0.459920        6.4599     1.87246     4.58746
    3          C           0.235724        3.7643     1.09977     2.66451
    4          C          -0.056895        4.0569     1.09829     2.95861
    5          O          -0.610905        6.6109     1.84636     4.76455
    6          C          -0.345536        4.3455     1.07064     3.27490
    7          C          -0.165363        4.1654     1.09469     3.07067
    8          C          -0.169459        4.1695     1.09472     3.07474
    9          C          -0.315140        4.3151     1.06862     3.24652
   10          H           0.153618        0.8464     0.84638
   11          H           0.137881        0.8621     0.86212
   12          H           0.137231        0.8628     0.86277
   13          H           0.142483        0.8575     0.85752
   14          H           0.155714        0.8443     0.84429
   15          H           0.357729        0.6423     0.64227
   16          H           0.174713        0.8253     0.82529
   17          H           0.166162        0.8338     0.83384
   18          H           0.157231        0.8428     0.84277
   19          H           0.159738        0.8403     0.84026
   20          H           0.170157        0.8298     0.82984
   21          H           0.173639        0.8264     0.82636
 DIPOLE           X         Y         Z       TOTAL
 POINT-CHG.    -0.549    -3.023    -0.652     3.141
 HYBRID        -0.281     0.264     0.479     0.615
 SUM           -0.830    -2.759    -0.172     2.887


          ATOMIC ORBITAL ELECTRON POPULATIONS

     Atom    s        px        py        pz   
    1  C   1.08370   0.86906   1.08442   1.16162
    2  O   1.87246   1.34308   1.78782   1.45656
    3  C   1.09977   0.86058   0.94602   0.85791
    4  C   1.09829   1.10415   0.81975   1.03471
    5  O   1.84636   1.87864   1.38370   1.50221
    6  C   1.07064   1.03503   1.06704   1.17283
    7  C   1.09469   1.00316   1.04714   1.02038
    8  C   1.09472   1.05742   0.99868   1.01864
    9  C   1.06862   0.99398   1.08833   1.16421
   10  H   0.84638
   11  H   0.86212
   12  H   0.86277
   13  H   0.85752
   14  H   0.84429
   15  H   0.64227
   16  H   0.82529
   17  H   0.83384
   18  H   0.84277
   19  H   0.84026
   20  H   0.82984
   21  H   0.82636

 **********************
 *                    *
 * JOB ENDED NORMALLY *
 *                    *
 **********************



 TOTAL JOB TIME:             1.60 SECONDS

 == MOPAC DONE ==
