 *******************************************************************************
 **                                                                           **
 **                              MOPAC v23.2                                  **
 **                                                                           **
 *******************************************************************************
 **          Digital Object Identifier (DOI): 10.5281/zenodo.6511958          **
 **    Visit the DOI location for information on how to cite this program.    **
 *******************************************************************************

                              PM7 CALCULATION RESULTS

 *******************************************************************************
 *  CALCULATION DONE: (MAX THREADS = 40)             Fri Sep 19 22:03:04 2025  *
 *  PM7        - The PM7 Hamiltonian to be used
 *
 *
 *
 *                 CHARGE ON SYSTEM = +1
 *
 *
 *
 *  EPS=37.5   - USE ANDREAS KLAMT'S COSMO IMPLICIT SOLVATION MODEL
 *  1SCF       - DO 1 SCF AND THEN STOP 
 *  T=         - A TIME OF 172800.0 SECONDS REQUESTED
 *  DUMP=N     - RESTART FILE WRITTEN EVERY 7200.0 SECONDS REQUESTED
 *  RELSCF     - DEFAULT SCF CRITERION MULTIPLIED BY 0.0001
 *              (DEFAULT SCF CRITERION = 0.00010)
 *  GRADIENTS  - ALL GRADIENTS TO BE PRINTED
 *  DISP       - PRINT DISPERSION AND HYDROGEN BOND ENERGIES
 *******************************************************************************
PM7 1SCF GRADIENTS EPS=37.5 DISP RELSCF=0.0001 CHARGE=1
 Title: ASE calculation

   ATOM   CHEMICAL          X               Y               Z
  NUMBER   SYMBOL      (ANGSTROMS)     (ANGSTROMS)     (ANGSTROMS)

     1       O         -3.50231101  *  -0.73220198  *   0.39569977  *
     2       C         -2.39158349  *  -0.30046276  *   0.38415016  *
     3       C         -1.85579748  *   1.03025591  *   0.54399797  *
     4       C         -0.54249753  *   1.31102288  *   0.51070723  *
     5       C          0.46213373  *   0.27187750  *   0.29929936  *
     6       N          1.70752736  *   0.65272810  *   0.28495938  *
     7       O          2.59056878  *  -0.34861069  *   0.08450359  *
     8       C          0.02691518  *  -1.15960181  *   0.10775040  *
     9       N         -1.36848977  *  -1.38543224  *   0.15374992  *
    10       H         -2.61733725  *   1.81527450  *   0.70040282  *
    11       H         -0.16364805  *   2.34223137  *   0.64229247  *
    12       H          3.50231101  *   0.12746317  *   0.10271130  *
    13       H          0.46294263  *  -1.56570572  *  -0.87081464  *
    14       H          0.56054361  *  -1.82734810  *   0.87081464  *
    15       H         -1.72286933  *  -2.34223137  *   0.02660126  *



          CARTESIAN COORDINATES 

    NO.       ATOM           X           Y           Z

     1         O         -3.5023     -0.7322      0.3957
     2         C         -2.3916     -0.3005      0.3842
     3         C         -1.8558      1.0303      0.5440
     4         C         -0.5425      1.3110      0.5107
     5         C          0.4621      0.2719      0.2993
     6         N          1.7075      0.6527      0.2850
     7         O          2.5906     -0.3486      0.0845
     8         C          0.0269     -1.1596      0.1078
     9         N         -1.3685     -1.3854      0.1537
    10         H         -2.6173      1.8153      0.7004
    11         H         -0.1636      2.3422      0.6423
    12         H          3.5023      0.1275      0.1027
    13         H          0.4629     -1.5657     -0.8708
    14         H          0.5605     -1.8273      0.8708
    15         H         -1.7229     -2.3422      0.0266

 General Reference for PM7:
 "Optimization of Parameters for Semiempirical Methods VI: More Modifications to the 
 NDDO Approximations and Re-optimization of Parameters", J. J. P. Stewart, J. Mol. Mod., 1:32, 19 (2013)
 https://link.springer.com/article/10.1007/s00894-012-1667-x

           Empirical Formula: C5 H6 N2 O2  =    15 atoms



      MOLECULAR POINT GROUP   :   Cs  


          UHF CALCULATION, NO. OF ALPHA ELECTRONS =   24
                           NO. OF BETA  ELECTRONS =   23
  SCF CRITERION =    0.1000E-07

 -------------------------------------------------------------------------------
 PM7 1SCF GRADIENTS EPS=37.5 DISP RELSCF=0.0001 CHARGE=1
 Title: ASE calculation



     1SCF WAS SPECIFIED, SO BFGS WAS NOT USED                 
     SCF FIELD WAS ACHIEVED                                   


                              PM7 CALCULATION
                                                       MOPAC v23.2 Linux
                                                       Fri Sep 19 22:03:05 2025




          FINAL HEAT OF FORMATION =        118.34542 KCAL/MOL =     495.15722 KJ/MOL

          TOTAL ENERGY            =     -38060.77144 KCAL/MOL = ELECTRONIC ENERGY + CORE-CORE REPULSION + SOLVATION ENERGY
          ENERGY OF ATOMS         =      38180.68370 KCAL/MOL
                              SUM =        119.91226 KCAL/MOL
          DISPERSION ENERGY       =         -1.56771 KCAL/MOL
          MM CORR. FOR -CO-NH-    =          0.00086 KCAL/MOL
                              SUM =        118.34542 KCAL/MOL = FINAL HEAT OF FORMATION

          VAN DER WAALS AREA      =        150.89 SQUARE ANGSTROMS


          TOTAL ENERGY            =      -1650.47126 EV
          ELECTRONIC ENERGY       =      -2085.75588 EV 
          CORE-CORE REPULSION     =        435.28462 EV

          DIELECTRIC ENERGY       =         -2.86070 EV
          COSMO AREA              =        150.89 SQUARE ANGSTROMS
          COSMO VOLUME            =        142.75 CUBIC ANGSTROMS

          GRADIENT NORM           =         35.75148          =       9.23099 PER ATOM
          IONIZATION POTENTIAL    =         10.603887 EV
          ALPHA SOMO LUMO (EV)    =        -10.661 -1.987
          BETA  SOMO LUMO (EV)    =        -10.604 -3.228
          NO. OF ALPHA ELECTRONS  =         24
          NO. OF BETA  ELECTRONS  =         23
          MOLECULAR WEIGHT        =        126.1146         POINT GROUP:  Cs  

          MOLECULAR DIMENSIONS (Angstroms)

            Atom       Atom       Distance
            H    12    O     1     7.06326
            H    15    H    11     4.51471
            H    14    H    13     1.76386


          SCF CALCULATIONS        =          2

          WALL-CLOCK TIME         =      1.273 SECONDS
          COMPUTATION TIME        =      1.284 SECONDS

          LARGEST ATOMIC GRADIENTS

          Atom     Label                     Cartesian Gradients           Cartesian Coordinates       |Gradient|
                                           X          Y          Z        X          Y          Z

             2       C                 -24.256     12.033      3.627   -2.39158   -0.30046    0.38415     27.319
             8       C                   5.823    -10.377     -1.794    0.02692   -1.15960    0.10775     12.034
             1       O                  11.822     -0.510     -0.814   -3.50231   -0.73220    0.39570     11.861
             9       N                   1.762     -8.858     -1.647   -1.36849   -1.38543    0.15375      9.180
             6       N                   4.382     -5.872     -1.215    1.70753    0.65273    0.28496      7.427
             7       O                  -4.275      4.395      0.803    2.59057   -0.34861    0.08450      6.184
             3       C                   2.707     -3.506     -0.864   -1.85580    1.03026    0.54400      4.512
             5       C                  -0.391      3.766      0.799    0.46213    0.27188    0.29930      3.870
            14       H                   0.645      3.130      0.243    0.56054   -1.82735    0.87081      3.205
            13       H                   0.808      2.941      0.400    0.46294   -1.56571   -0.87081      3.076



       FINAL  POINT  AND  DERIVATIVES

   PARAMETER     ATOM    TYPE            VALUE        GRADIENT
      1          1  O    CARTESIAN X    -3.502311     11.822492  KCAL/ANGSTROM
      2          1  O    CARTESIAN Y    -0.732202     -0.509720  KCAL/ANGSTROM
      3          1  O    CARTESIAN Z     0.395700     -0.814394  KCAL/ANGSTROM
      4          2  C    CARTESIAN X    -2.391583    -24.256476  KCAL/ANGSTROM
      5          2  C    CARTESIAN Y    -0.300463     12.032970  KCAL/ANGSTROM
      6          2  C    CARTESIAN Z     0.384150      3.626575  KCAL/ANGSTROM
      7          3  C    CARTESIAN X    -1.855797      2.706816  KCAL/ANGSTROM
      8          3  C    CARTESIAN Y     1.030256     -3.505526  KCAL/ANGSTROM
      9          3  C    CARTESIAN Z     0.543998     -0.863813  KCAL/ANGSTROM
     10          4  C    CARTESIAN X    -0.542498      1.193900  KCAL/ANGSTROM
     11          4  C    CARTESIAN Y     1.311023     -1.112618  KCAL/ANGSTROM
     12          4  C    CARTESIAN Z     0.510707     -0.267911  KCAL/ANGSTROM
     13          5  C    CARTESIAN X     0.462134     -0.390616  KCAL/ANGSTROM
     14          5  C    CARTESIAN Y     0.271877      3.765997  KCAL/ANGSTROM
     15          5  C    CARTESIAN Z     0.299299      0.798735  KCAL/ANGSTROM
     16          6  N    CARTESIAN X     1.707527      4.382489  KCAL/ANGSTROM
     17          6  N    CARTESIAN Y     0.652728     -5.871743  KCAL/ANGSTROM
     18          6  N    CARTESIAN Z     0.284959     -1.214849  KCAL/ANGSTROM
     19          7  O    CARTESIAN X     2.590569     -4.274873  KCAL/ANGSTROM
     20          7  O    CARTESIAN Y    -0.348611      4.395368  KCAL/ANGSTROM
     21          7  O    CARTESIAN Z     0.084504      0.803369  KCAL/ANGSTROM
     22          8  C    CARTESIAN X     0.026915      5.822983  KCAL/ANGSTROM
     23          8  C    CARTESIAN Y    -1.159602    -10.376976  KCAL/ANGSTROM
     24          8  C    CARTESIAN Z     0.107750     -1.793690  KCAL/ANGSTROM
     25          9  N    CARTESIAN X    -1.368490      1.761798  KCAL/ANGSTROM
     26          9  N    CARTESIAN Y    -1.385432     -8.858056  KCAL/ANGSTROM
     27          9  N    CARTESIAN Z     0.153750     -1.646688  KCAL/ANGSTROM
     28         10  H    CARTESIAN X    -2.617337     -1.406809  KCAL/ANGSTROM
     29         10  H    CARTESIAN Y     1.815274      0.099883  KCAL/ANGSTROM
     30         10  H    CARTESIAN Z     0.700403      0.019167  KCAL/ANGSTROM
     31         11  H    CARTESIAN X    -0.163648      1.551973  KCAL/ANGSTROM
     32         11  H    CARTESIAN Y     2.342231      0.671262  KCAL/ANGSTROM
     33         11  H    CARTESIAN Z     0.642292      0.132623  KCAL/ANGSTROM
     34         12  H    CARTESIAN X     3.502311      0.220476  KCAL/ANGSTROM
     35         12  H    CARTESIAN Y     0.127463      1.201216  KCAL/ANGSTROM
     36         12  H    CARTESIAN Z     0.102711      0.239072  KCAL/ANGSTROM
     37         13  H    CARTESIAN X     0.462943      0.808296  KCAL/ANGSTROM
     38         13  H    CARTESIAN Y    -1.565706      2.940749  KCAL/ANGSTROM
     39         13  H    CARTESIAN Z    -0.870815      0.400078  KCAL/ANGSTROM
     40         14  H    CARTESIAN X     0.560544      0.645399  KCAL/ANGSTROM
     41         14  H    CARTESIAN Y    -1.827348      3.129661  KCAL/ANGSTROM
     42         14  H    CARTESIAN Z     0.870815      0.242615  KCAL/ANGSTROM
     43         15  H    CARTESIAN X    -1.722869     -0.587846  KCAL/ANGSTROM
     44         15  H    CARTESIAN Y    -2.342231      1.997529  KCAL/ANGSTROM
     45         15  H    CARTESIAN Z     0.026601      0.339109  KCAL/ANGSTROM




   ATOM   CHEMICAL          X               Y               Z
  NUMBER   SYMBOL      (ANGSTROMS)     (ANGSTROMS)     (ANGSTROMS)

     1       O         -3.50231101  *  -0.73220198  *   0.39569977  *
     2       C         -2.39158349  *  -0.30046276  *   0.38415016  *
     3       C         -1.85579748  *   1.03025591  *   0.54399797  *
     4       C         -0.54249753  *   1.31102288  *   0.51070723  *
     5       C          0.46213373  *   0.27187750  *   0.29929936  *
     6       N          1.70752736  *   0.65272810  *   0.28495938  *
     7       O          2.59056878  *  -0.34861069  *   0.08450359  *
     8       C          0.02691518  *  -1.15960181  *   0.10775040  *
     9       N         -1.36848977  *  -1.38543224  *   0.15374992  *
    10       H         -2.61733725  *   1.81527450  *   0.70040282  *
    11       H         -0.16364805  *   2.34223137  *   0.64229247  *
    12       H          3.50231101  *   0.12746317  *   0.10271130  *
    13       H          0.46294263  *  -1.56570572  *  -0.87081464  *
    14       H          0.56054361  *  -1.82734810  *   0.87081464  *
    15       H         -1.72286933  *  -2.34223137  *   0.02660126  *

                             CARTESIAN COORDINATES

   1    O       -3.502311005    -0.732201981     0.395699771
   2    C       -2.391583491    -0.300462764     0.384150159
   3    C       -1.855797475     1.030255914     0.543997973
   4    C       -0.542497534     1.311022877     0.510707234
   5    C        0.462133731     0.271877499     0.299299360
   6    N        1.707527355     0.652728100     0.284959380
   7    O        2.590568783    -0.348610688     0.084503594
   8    C        0.026915184    -1.159601808     0.107750397
   9    N       -1.368489766    -1.385432241     0.153749915
  10    H       -2.617337255     1.815274500     0.700402820
  11    H       -0.163648048     2.342231365     0.642292466
  12    H        3.502311005     0.127463171     0.102711301
  13    H        0.462942628    -1.565705721    -0.870814642
  14    H        0.560543614    -1.827348100     0.870814642
  15    H       -1.722869332    -2.342231365     0.026601258


           Empirical Formula: C5 H6 N2 O2  =    15 atoms



      MOLECULAR POINT GROUP   :   Cs  


          ALPHA EIGENVALUES  
 -38.35446 -35.86069 -33.04526 -30.35118 -28.94634 -26.33102 -24.21710 -22.54946
 -19.68246 -19.37554 -18.07442 -17.97105 -17.28641 -17.08451 -16.09055 -16.03412
 -15.24395 -15.22732 -14.06272 -12.96339 -12.52866 -12.40771 -11.95003 -10.66117
  -1.98685  -0.33950  -0.19228   0.74136   0.75038   1.94681   2.24824   2.29710
   2.98464   3.37166   3.69146   3.87069   4.22977   4.42232   4.64449   4.68163
   4.91821   5.14951


           BETA EIGENVALUES 
 -36.69023 -35.64362 -32.81459 -30.23904 -28.86100 -26.01508 -24.10624 -22.40041
 -19.51106 -19.12845 -17.95863 -17.08768 -17.06153 -16.98667 -16.05234 -15.77006
 -15.15155 -14.57305 -14.05522 -12.56930 -12.35774 -11.84521 -10.60389  -3.22838
  -1.51178  -0.14192   0.31389   0.80233   0.85332   2.10571   2.23064   2.49888
   3.03355   3.48779   3.88903   3.90002   4.25652   4.52700   4.68346   4.87439
   5.05620   5.14460


              NET ATOMIC CHARGES AND DIPOLE CONTRIBUTIONS

  ATOM NO.   TYPE          CHARGE      No. of ELECS.   s-Pop       p-Pop       
    1          O          -0.367840        6.3678     1.87585     4.49199
    2          C           0.590641        3.4094     1.11374     2.29562
    3          C          -0.303913        4.3039     1.08581     3.21810
    4          C           0.036603        3.9634     1.10521     2.85818
    5          C           0.022622        3.9774     1.07352     2.90386
    6          N          -0.126104        5.1261     1.78709     3.33901
    7          O          -0.295649        6.2956     1.90235     4.39330
    8          C          -0.199258        4.1993     1.07319     3.12607
    9          N          -0.114935        5.1149     1.58509     3.52984
   10          H           0.233714        0.7663     0.76629
   11          H           0.213946        0.7861     0.78605
   12          H           0.376656        0.6233     0.62334
   13          H           0.278785        0.7212     0.72122
   14          H           0.280861        0.7191     0.71914
   15          H           0.373871        0.6261     0.62613
 DIPOLE           X         Y         Z       TOTAL
 POINT-CHG.     1.937    -2.343    -0.501     3.081
 HYBRID        -0.157    -1.647    -0.236     1.672
 SUM            1.780    -3.990    -0.736     4.431


          ATOMIC ORBITAL ELECTRON POPULATIONS

     Atom    s        px        py        pz   
    1  O   1.87585   1.31455   1.74937   1.42807
    2  C   1.11374   0.77181   0.83443   0.68937
    3  C   1.08581   1.06194   1.02685   1.12931
    4  C   1.10521   0.96112   1.07455   0.82252
    5  C   1.07352   0.91742   0.95254   1.03390
    6  N   1.78709   1.05841   1.20906   1.07155
    7  O   1.90235   1.29252   1.24676   1.85402
    8  C   1.07319   0.84754   1.06447   1.21406
    9  N   1.58509   1.14736   1.25753   1.12495
   10  H   0.76629
   11  H   0.78605
   12  H   0.62334
   13  H   0.72122
   14  H   0.71914
   15  H   0.62613


                    (SZ)    =    0.500000
                    (S**2)  =    0.778525


          ATOMIC ORBITAL SPIN POPULATIONS

    Atom   Total    s     px     py     pz   
         Atomic
    1  O  0.0546  0.001 -0.007 -0.010  0.070
    2  C -0.0750 -0.003 -0.015 -0.018 -0.040
    3  C -0.0513 -0.002 -0.002 -0.007 -0.041
    4  C  0.0441  0.002  0.003  0.003  0.036
    5  C -0.1043 -0.004 -0.006 -0.005 -0.090
    6  N  0.1118  0.002  0.005  0.005  0.100
    7  O  0.0232  0.001 -0.000 -0.003  0.025
    8  C -0.0130 -0.008 -0.039 -0.003  0.036
    9  N  0.9378  0.041  0.047  0.066  0.783
   10  H -0.0001 -0.000
   11  H -0.0013 -0.001
   12  H -0.0009 -0.001
   13  H  0.0542  0.054
   14  H  0.0549  0.055
   15  H -0.0348 -0.035

 **********************
 *                    *
 * JOB ENDED NORMALLY *
 *                    *
 **********************



 TOTAL JOB TIME:             1.57 SECONDS

 == MOPAC DONE ==
