 *******************************************************************************
 **                                                                           **
 **                              MOPAC v23.2                                  **
 **                                                                           **
 *******************************************************************************
 **          Digital Object Identifier (DOI): 10.5281/zenodo.6511958          **
 **    Visit the DOI location for information on how to cite this program.    **
 *******************************************************************************

                              PM7 CALCULATION RESULTS

 *******************************************************************************
 *  CALCULATION DONE: (MAX THREADS = 40)             Fri Sep 19 22:04:36 2025  *
 *  PM7        - The PM7 Hamiltonian to be used
 *
 *
 *
 *                 CHARGE ON SYSTEM = +1
 *
 *
 *
 *  EPS=37.5   - USE ANDREAS KLAMT'S COSMO IMPLICIT SOLVATION MODEL
 *  1SCF       - DO 1 SCF AND THEN STOP 
 *  T=         - A TIME OF 172800.0 SECONDS REQUESTED
 *  DUMP=N     - RESTART FILE WRITTEN EVERY 7200.0 SECONDS REQUESTED
 *  RELSCF     - DEFAULT SCF CRITERION MULTIPLIED BY 0.0001
 *              (DEFAULT SCF CRITERION = 0.00010)
 *  GRADIENTS  - ALL GRADIENTS TO BE PRINTED
 *  DISP       - PRINT DISPERSION AND HYDROGEN BOND ENERGIES
 *******************************************************************************
PM7 1SCF GRADIENTS EPS=37.5 DISP RELSCF=0.0001 CHARGE=1
 Title: ASE calculation

   ATOM   CHEMICAL          X               Y               Z
  NUMBER   SYMBOL      (ANGSTROMS)     (ANGSTROMS)     (ANGSTROMS)

     1       O         -1.02670650  *   2.12147742  *   1.84127837  *
     2       C         -0.85089749  *   1.30701166  *   1.01651453  *
     3       C         -0.48501099  *   1.15266137  *  -0.49372693  *
     4       C         -1.65168229  *   0.09078759  *  -0.52680369  *
     5       C         -0.89315421  *  -0.24056043  *   0.81108105  *
     6       C          0.51633505  *  -0.05090489  *  -0.03986457  *
     7       C          0.78967780  *  -1.09077880  *  -1.02234393  *
     8       C          1.71308515  *   0.29647835  *   0.70009252  *
     9       O          1.61140059  *   1.27117942  *   1.53365055  *
    10       H         -0.23735683  *   1.88174224  *  -1.23071188  *
    11       H         -2.67862201  *   0.46446881  *  -0.44515472  *
    12       H         -1.63753720  *  -0.65774336  *  -1.32189428  *
    13       H         -1.06149038  *  -1.04238400  *   1.49114630  *
    14       H          0.86245144  *  -0.86697781  *  -2.06931742  *
    15       H          0.87560723  *  -2.12147742  *  -0.73930967  *
    16       H          2.67862201  *  -0.22698991  *   0.57001214  *
    17       H          2.45146789  *   1.53027514  *   2.06931742  *



          CARTESIAN COORDINATES 

    NO.       ATOM           X           Y           Z

     1         O         -1.0267      2.1215      1.8413
     2         C         -0.8509      1.3070      1.0165
     3         C         -0.4850      1.1527     -0.4937
     4         C         -1.6517      0.0908     -0.5268
     5         C         -0.8932     -0.2406      0.8111
     6         C          0.5163     -0.0509     -0.0399
     7         C          0.7897     -1.0908     -1.0223
     8         C          1.7131      0.2965      0.7001
     9         O          1.6114      1.2712      1.5337
    10         H         -0.2374      1.8817     -1.2307
    11         H         -2.6786      0.4645     -0.4452
    12         H         -1.6375     -0.6577     -1.3219
    13         H         -1.0615     -1.0424      1.4911
    14         H          0.8625     -0.8670     -2.0693
    15         H          0.8756     -2.1215     -0.7393
    16         H          2.6786     -0.2270      0.5700
    17         H          2.4515      1.5303      2.0693

 General Reference for PM7:
 "Optimization of Parameters for Semiempirical Methods VI: More Modifications to the 
 NDDO Approximations and Re-optimization of Parameters", J. J. P. Stewart, J. Mol. Mod., 1:32, 19 (2013)
 https://link.springer.com/article/10.1007/s00894-012-1667-x

           Empirical Formula: C7 H8 O2  =    17 atoms



      MOLECULAR POINT GROUP   :   C1  


          UHF CALCULATION, NO. OF ALPHA ELECTRONS =   24
                           NO. OF BETA  ELECTRONS =   23
  SCF CRITERION =    0.1000E-07

 -------------------------------------------------------------------------------
 PM7 1SCF GRADIENTS EPS=37.5 DISP RELSCF=0.0001 CHARGE=1
 Title: ASE calculation



     1SCF WAS SPECIFIED, SO BFGS WAS NOT USED                 
     SCF FIELD WAS ACHIEVED                                   


                              PM7 CALCULATION
                                                       MOPAC v23.2 Linux
                                                       Fri Sep 19 22:04:36 2025




          FINAL HEAT OF FORMATION =        167.65948 KCAL/MOL =     701.48728 KJ/MOL

          TOTAL ENERGY            =     -35698.57730 KCAL/MOL = ELECTRONIC ENERGY + CORE-CORE REPULSION + SOLVATION ENERGY
          ENERGY OF ATOMS         =      35867.73354 KCAL/MOL
                              SUM =        169.15624 KCAL/MOL
          DISPERSION ENERGY       =         -1.49676 KCAL/MOL
                              SUM =        167.65948 KCAL/MOL = FINAL HEAT OF FORMATION

          VAN DER WAALS AREA      =        152.82 SQUARE ANGSTROMS


          TOTAL ENERGY            =      -1548.03683 EV
          ELECTRONIC ENERGY       =      -2275.26113 EV 
          CORE-CORE REPULSION     =        727.22431 EV

          DIELECTRIC ENERGY       =         -2.99555 EV
          COSMO AREA              =        152.82 SQUARE ANGSTROMS
          COSMO VOLUME            =        151.12 CUBIC ANGSTROMS

          GRADIENT NORM           =         48.58823          =       11.78438 PER ATOM
          IONIZATION POTENTIAL    =         10.352550 EV
          ALPHA SOMO LUMO (EV)    =        -10.353 -1.972
          BETA  SOMO LUMO (EV)    =        -10.978 -1.944
          NO. OF ALPHA ELECTRONS  =         24
          NO. OF BETA  ELECTRONS  =         23
          MOLECULAR WEIGHT        =        124.1390         POINT GROUP:  C1  

          MOLECULAR DIMENSIONS (Angstroms)

            Atom       Atom       Distance
            H    17    H    11     5.81174
            O     1    H    15     5.31361
            H    10    H    13     4.01501


          SCF CALCULATIONS        =          2

          WALL-CLOCK TIME         =      0.531 SECONDS
          COMPUTATION TIME        =      1.360 SECONDS

          LARGEST ATOMIC GRADIENTS

          Atom     Label                     Cartesian Gradients           Cartesian Coordinates       |Gradient|
                                           X          Y          Z        X          Y          Z

             2       C                  -6.304     17.755     16.390   -0.85090    1.30701    1.01651     24.973
             8       C                 -11.185    -12.101    -15.159    1.71309    0.29648    0.70009     22.391
             6       C                  21.905     -1.488      3.215    0.51634   -0.05090   -0.03986     22.189
             9       O                   8.548     11.383     12.665    1.61140    1.27118    1.53365     19.054
             1       O                   4.138    -11.330    -10.586   -1.02671    2.12148    1.84128     16.048
            17       H                  -6.720      0.145     -1.904    2.45147    1.53028    2.06932      6.986
             5       C                  -5.326     -0.135     -0.203   -0.89315   -0.24056    0.81108      5.332
             7       C                   2.700      0.400      2.248    0.78968   -1.09078   -1.02234      3.536
             3       C                  -3.360      0.009     -0.288   -0.48501    1.15266   -0.49373      3.372
            16       H                  -1.881     -0.332     -1.192    2.67862   -0.22699    0.57001      2.251



       FINAL  POINT  AND  DERIVATIVES

   PARAMETER     ATOM    TYPE            VALUE        GRADIENT
      1          1  O    CARTESIAN X    -1.026707      4.138020  KCAL/ANGSTROM
      2          1  O    CARTESIAN Y     2.121477    -11.329515  KCAL/ANGSTROM
      3          1  O    CARTESIAN Z     1.841278    -10.585872  KCAL/ANGSTROM
      4          2  C    CARTESIAN X    -0.850897     -6.304052  KCAL/ANGSTROM
      5          2  C    CARTESIAN Y     1.307012     17.755055  KCAL/ANGSTROM
      6          2  C    CARTESIAN Z     1.016515     16.390418  KCAL/ANGSTROM
      7          3  C    CARTESIAN X    -0.485011     -3.359617  KCAL/ANGSTROM
      8          3  C    CARTESIAN Y     1.152661      0.009299  KCAL/ANGSTROM
      9          3  C    CARTESIAN Z    -0.493727     -0.287673  KCAL/ANGSTROM
     10          4  C    CARTESIAN X    -1.651682      1.542922  KCAL/ANGSTROM
     11          4  C    CARTESIAN Y     0.090788     -1.106325  KCAL/ANGSTROM
     12          4  C    CARTESIAN Z    -0.526804     -0.851509  KCAL/ANGSTROM
     13          5  C    CARTESIAN X    -0.893154     -5.326334  KCAL/ANGSTROM
     14          5  C    CARTESIAN Y    -0.240560     -0.134614  KCAL/ANGSTROM
     15          5  C    CARTESIAN Z     0.811081     -0.203115  KCAL/ANGSTROM
     16          6  C    CARTESIAN X     0.516335     21.904739  KCAL/ANGSTROM
     17          6  C    CARTESIAN Y    -0.050905     -1.488156  KCAL/ANGSTROM
     18          6  C    CARTESIAN Z    -0.039865      3.214659  KCAL/ANGSTROM
     19          7  C    CARTESIAN X     0.789678      2.700015  KCAL/ANGSTROM
     20          7  C    CARTESIAN Y    -1.090779      0.400127  KCAL/ANGSTROM
     21          7  C    CARTESIAN Z    -1.022344      2.248305  KCAL/ANGSTROM
     22          8  C    CARTESIAN X     1.713085    -11.185493  KCAL/ANGSTROM
     23          8  C    CARTESIAN Y     0.296478    -12.101483  KCAL/ANGSTROM
     24          8  C    CARTESIAN Z     0.700093    -15.158936  KCAL/ANGSTROM
     25          9  O    CARTESIAN X     1.611401      8.547588  KCAL/ANGSTROM
     26          9  O    CARTESIAN Y     1.271179     11.383349  KCAL/ANGSTROM
     27          9  O    CARTESIAN Z     1.533651     12.665409  KCAL/ANGSTROM
     28         10  H    CARTESIAN X    -0.237357      0.094894  KCAL/ANGSTROM
     29         10  H    CARTESIAN Y     1.881742     -0.578659  KCAL/ANGSTROM
     30         10  H    CARTESIAN Z    -1.230712     -0.447002  KCAL/ANGSTROM
     31         11  H    CARTESIAN X    -2.678622     -1.385796  KCAL/ANGSTROM
     32         11  H    CARTESIAN Y     0.464469      0.188328  KCAL/ANGSTROM
     33         11  H    CARTESIAN Z    -0.445155      0.025074  KCAL/ANGSTROM
     34         12  H    CARTESIAN X    -1.637537     -1.174037  KCAL/ANGSTROM
     35         12  H    CARTESIAN Y    -0.657743     -0.170968  KCAL/ANGSTROM
     36         12  H    CARTESIAN Z    -1.321894     -0.549795  KCAL/ANGSTROM
     37         13  H    CARTESIAN X    -1.061490      0.053471  KCAL/ANGSTROM
     38         13  H    CARTESIAN Y    -1.042384     -0.576218  KCAL/ANGSTROM
     39         13  H    CARTESIAN Z     1.491146     -0.686870  KCAL/ANGSTROM
     40         14  H    CARTESIAN X     0.862451     -0.579049  KCAL/ANGSTROM
     41         14  H    CARTESIAN Y    -0.866978     -0.750958  KCAL/ANGSTROM
     42         14  H    CARTESIAN Z    -2.069317     -1.384832  KCAL/ANGSTROM
     43         15  H    CARTESIAN X     0.875607     -1.066532  KCAL/ANGSTROM
     44         15  H    CARTESIAN Y    -2.121477     -1.312668  KCAL/ANGSTROM
     45         15  H    CARTESIAN Z    -0.739310     -1.292193  KCAL/ANGSTROM
     46         16  H    CARTESIAN X     2.678622     -1.880820  KCAL/ANGSTROM
     47         16  H    CARTESIAN Y    -0.226990     -0.331686  KCAL/ANGSTROM
     48         16  H    CARTESIAN Z     0.570012     -1.191697  KCAL/ANGSTROM
     49         17  H    CARTESIAN X     2.451468     -6.719924  KCAL/ANGSTROM
     50         17  H    CARTESIAN Y     1.530275      0.145086  KCAL/ANGSTROM
     51         17  H    CARTESIAN Z     2.069317     -1.904378  KCAL/ANGSTROM




   ATOM   CHEMICAL          X               Y               Z
  NUMBER   SYMBOL      (ANGSTROMS)     (ANGSTROMS)     (ANGSTROMS)

     1       O         -1.02670650  *   2.12147742  *   1.84127837  *
     2       C         -0.85089749  *   1.30701166  *   1.01651453  *
     3       C         -0.48501099  *   1.15266137  *  -0.49372693  *
     4       C         -1.65168229  *   0.09078759  *  -0.52680369  *
     5       C         -0.89315421  *  -0.24056043  *   0.81108105  *
     6       C          0.51633505  *  -0.05090489  *  -0.03986457  *
     7       C          0.78967780  *  -1.09077880  *  -1.02234393  *
     8       C          1.71308515  *   0.29647835  *   0.70009252  *
     9       O          1.61140059  *   1.27117942  *   1.53365055  *
    10       H         -0.23735683  *   1.88174224  *  -1.23071188  *
    11       H         -2.67862201  *   0.46446881  *  -0.44515472  *
    12       H         -1.63753720  *  -0.65774336  *  -1.32189428  *
    13       H         -1.06149038  *  -1.04238400  *   1.49114630  *
    14       H          0.86245144  *  -0.86697781  *  -2.06931742  *
    15       H          0.87560723  *  -2.12147742  *  -0.73930967  *
    16       H          2.67862201  *  -0.22698991  *   0.57001214  *
    17       H          2.45146789  *   1.53027514  *   2.06931742  *

                             CARTESIAN COORDINATES

   1    O       -1.026706503     2.121477419     1.841278366
   2    C       -0.850897495     1.307011658     1.016514528
   3    C       -0.485010989     1.152661366    -0.493726931
   4    C       -1.651682287     0.090787585    -0.526803686
   5    C       -0.893154207    -0.240560427     0.811081046
   6    C        0.516335050    -0.050904895    -0.039864569
   7    C        0.789677801    -1.090778802    -1.022343931
   8    C        1.713085151     0.296478351     0.700092520
   9    O        1.611400594     1.271179424     1.533650546
  10    H       -0.237356832     1.881742242    -1.230711878
  11    H       -2.678622010     0.464468811    -0.445154717
  12    H       -1.637537197    -0.657743361    -1.321894275
  13    H       -1.061490378    -1.042383998     1.491146302
  14    H        0.862451436    -0.866977813    -2.069317418
  15    H        0.875607230    -2.121477419    -0.739309673
  16    H        2.678622010    -0.226989913     0.570012144
  17    H        2.451467894     1.530275143     2.069317418


           Empirical Formula: C7 H8 O2  =    17 atoms



      MOLECULAR POINT GROUP   :   C1  


          ALPHA EIGENVALUES  
 -34.22925 -33.15425 -32.44562 -27.91145 -24.76952 -22.77162 -22.60662 -20.66941
 -20.05805 -18.70172 -17.68614 -16.77106 -16.61286 -16.08621 -15.98578 -15.19480
 -14.85461 -14.49278 -13.28716 -13.17514 -12.76762 -12.29766 -10.98907 -10.35255
  -1.97245  -0.10317   0.60428   1.13477   1.32943   1.85843   1.89948   2.07047
   2.28637   3.16913   3.51918   3.56789   4.32997   4.42702   5.06459   5.31759
   5.41462   5.54341   5.74414   5.76950


           BETA EIGENVALUES 
 -34.20847 -33.14786 -32.43410 -27.79826 -24.54899 -22.76183 -22.58198 -20.59553
 -19.95129 -18.66296 -17.66063 -16.70587 -16.55769 -16.06381 -15.92400 -15.03146
 -14.85144 -14.38879 -13.24414 -13.14853 -12.71157 -12.23541 -10.97786  -1.94353
  -0.65462  -0.06022   0.82216   1.18473   1.36178   1.87525   1.94133   2.18321
   2.29038   3.18718   3.52504   3.82865   4.34641   4.43463   5.06529   5.32262
   5.41749   5.71480   5.75791   6.01696


              NET ATOMIC CHARGES AND DIPOLE CONTRIBUTIONS

  ATOM NO.   TYPE          CHARGE      No. of ELECS.   s-Pop       p-Pop       
    1          O          -0.406227        6.4062     1.86196     4.54427
    2          C           0.466090        3.5339     1.15212     2.38179
    3          C          -0.141760        4.1418     1.13365     3.00811
    4          C          -0.290238        4.2902     1.08457     3.20567
    5          C          -0.126023        4.1260     1.14089     2.98513
    6          C          -0.181290        4.1813     1.07991     3.10138
    7          C          -0.272222        4.2722     1.12652     3.14570
    8          C           0.495434        3.5046     1.20407     2.30050
    9          O          -0.338122        6.3381     1.82063     4.51749
   10          H           0.194771        0.8052     0.80523
   11          H           0.184543        0.8155     0.81546
   12          H           0.189537        0.8105     0.81046
   13          H           0.194473        0.8055     0.80553
   14          H           0.171892        0.8281     0.82811
   15          H           0.170755        0.8292     0.82925
   16          H           0.226638        0.7734     0.77336
   17          H           0.461748        0.5383     0.53825
 DIPOLE           X         Y         Z       TOTAL
 POINT-CHG.     7.943    -3.317    -0.883     8.653
 HYBRID         0.462     0.465     0.576     0.873
 SUM            8.405    -2.852    -0.306     8.881


          ATOMIC ORBITAL ELECTRON POPULATIONS

     Atom    s        px        py        pz   
    1  O   1.86196   1.44721   1.56590   1.53115
    2  C   1.15212   0.65096   0.87513   0.85571
    3  C   1.13365   0.94911   0.99196   1.06704
    4  C   1.08457   1.07382   1.08235   1.04949
    5  C   1.14089   0.89179   1.07501   1.01832
    6  C   1.07991   0.96308   1.07664   1.06166
    7  C   1.12652   0.99906   1.06504   1.08161
    8  C   1.20407   1.02262   0.66326   0.61462
    9  O   1.82063   1.58157   1.45896   1.47696
   10  H   0.80523
   11  H   0.81546
   12  H   0.81046
   13  H   0.80553
   14  H   0.82811
   15  H   0.82925
   16  H   0.77336
   17  H   0.53825


                    (SZ)    =    0.500000
                    (S**2)  =    0.753569


          ATOMIC ORBITAL SPIN POPULATIONS

    Atom   Total    s     px     py     pz   
         Atomic
    1  O  0.0025  0.000  0.002  0.000  0.000
    2  C -0.0019 -0.000 -0.001 -0.001 -0.000
    3  C  0.0084  0.001  0.004  0.003  0.000
    4  C  0.0002  0.000 -0.001  0.001 -0.000
    5  C  0.0386  0.004  0.025  0.002  0.007
    6  C -0.0627 -0.009 -0.020 -0.016 -0.018
    7  C  1.0432  0.026  0.925  0.049  0.044
    8  C  0.0303  0.015  0.011  0.000  0.004
    9  O -0.0008  0.000 -0.001 -0.000  0.000
   10  H -0.0001 -0.000
   11  H  0.0002  0.000
   12  H -0.0007 -0.001
   13  H -0.0006 -0.001
   14  H -0.0292 -0.029
   15  H -0.0292 -0.029
   16  H  0.0002  0.000
   17  H  0.0017  0.002

 **********************
 *                    *
 * JOB ENDED NORMALLY *
 *                    *
 **********************



 TOTAL JOB TIME:             0.86 SECONDS

 == MOPAC DONE ==
