 *******************************************************************************
 **                                                                           **
 **                              MOPAC v23.2                                  **
 **                                                                           **
 *******************************************************************************
 **          Digital Object Identifier (DOI): 10.5281/zenodo.6511958          **
 **    Visit the DOI location for information on how to cite this program.    **
 *******************************************************************************

                              PM7 CALCULATION RESULTS

 *******************************************************************************
 *  CALCULATION DONE: (MAX THREADS = 40)             Fri Sep 19 21:46:03 2025  *
 *  PM7        - The PM7 Hamiltonian to be used
 *  1SCF       - DO 1 SCF AND THEN STOP 
 *  T=         - A TIME OF 172800.0 SECONDS REQUESTED
 *  DUMP=N     - RESTART FILE WRITTEN EVERY 7200.0 SECONDS REQUESTED
 *  RELSCF     - DEFAULT SCF CRITERION MULTIPLIED BY 0.0001
 *              (DEFAULT SCF CRITERION = 0.00010)
 *  GRADIENTS  - ALL GRADIENTS TO BE PRINTED
 *  DISP       - PRINT DISPERSION AND HYDROGEN BOND ENERGIES
 *******************************************************************************
PM7 1SCF GRADIENTS DISP RELSCF=0.0001
 Title: ASE calculation

   ATOM   CHEMICAL          X               Y               Z
  NUMBER   SYMBOL      (ANGSTROMS)     (ANGSTROMS)     (ANGSTROMS)

     1       C         -2.25173099  *  -1.51592594  *  -1.33410970  *
     2       C         -1.60602052  *  -0.68190773  *  -0.74053077  *
     3       C         -0.83776612  *   0.29399569  *  -0.03486552  *
     4       C         -1.70784175  *   1.38189565  *   0.56236459  *
     5       C          0.41223786  *   0.82379598  *  -0.84258167  *
     6       N          1.31799631  *   0.21589400  *   0.17299912  *
     7       C          2.47746248  *  -0.46949471  *  -0.16733364  *
     8       O          3.01392128  *  -0.26584517  *  -1.23448254  *
     9       C          0.19677178  *  -0.34451137  *   0.97725332  *
    10       H         -2.79967894  *  -2.22464822  *  -1.83993337  *
    11       H         -1.11173217  *   2.12776255  *   1.10428861  *
    12       H         -2.44044763  *   0.96684615  *   1.26677132  *
    13       H         -2.27110410  *   1.91309018  *  -0.21669220  *
    14       H          0.52346867  *   0.41876071  *  -1.85965562  *
    15       H          0.51494178  *   1.91825620  *  -0.87523714  *
    16       H          2.90787285  *  -1.10587331  *   0.61750173  *
    17       H          0.17021842  *   0.08453724  *   1.99023224  *
    18       H          0.16127501  *  -1.43959123  *   1.03894522  *



          CARTESIAN COORDINATES 

    NO.       ATOM           X           Y           Z

     1         C         -2.2517     -1.5159     -1.3341
     2         C         -1.6060     -0.6819     -0.7405
     3         C         -0.8378      0.2940     -0.0349
     4         C         -1.7078      1.3819      0.5624
     5         C          0.4122      0.8238     -0.8426
     6         N          1.3180      0.2159      0.1730
     7         C          2.4775     -0.4695     -0.1673
     8         O          3.0139     -0.2658     -1.2345
     9         C          0.1968     -0.3445      0.9773
    10         H         -2.7997     -2.2246     -1.8399
    11         H         -1.1117      2.1278      1.1043
    12         H         -2.4404      0.9668      1.2668
    13         H         -2.2711      1.9131     -0.2167
    14         H          0.5235      0.4188     -1.8597
    15         H          0.5149      1.9183     -0.8752
    16         H          2.9079     -1.1059      0.6175
    17         H          0.1702      0.0845      1.9902
    18         H          0.1613     -1.4396      1.0389

 General Reference for PM7:
 "Optimization of Parameters for Semiempirical Methods VI: More Modifications to the 
 NDDO Approximations and Re-optimization of Parameters", J. J. P. Stewart, J. Mol. Mod., 1:32, 19 (2013)
 https://link.springer.com/article/10.1007/s00894-012-1667-x

           Empirical Formula: C7 H9 N O  =    18 atoms



      MOLECULAR POINT GROUP   :   C1  


      RHF CALCULATION, NO. OF DOUBLY OCCUPIED LEVELS = 24

  SCF CRITERION =    0.1000E-07

 -------------------------------------------------------------------------------
 PM7 1SCF GRADIENTS DISP RELSCF=0.0001
 Title: ASE calculation



     1SCF WAS SPECIFIED, SO BFGS WAS NOT USED                 
     SCF FIELD WAS ACHIEVED                                   


                              PM7 CALCULATION
                                                       MOPAC v23.2 Linux
                                                       Fri Sep 19 21:46:04 2025




          FINAL HEAT OF FORMATION =         30.79783 KCAL/MOL =     128.85812 KJ/MOL

          TOTAL ENERGY            =     -33688.51000 KCAL/MOL = ELECTRONIC ENERGY + CORE-CORE REPULSION
          ENERGY OF ATOMS         =      33709.16394 KCAL/MOL
                              SUM =         20.65394 KCAL/MOL
          DISPERSION ENERGY       =         -1.85611 KCAL/MOL
                              SUM =         18.79783 KCAL/MOL = FINAL HEAT OF FORMATION

     *    WARNING - An energy term is incorrect or missing!

     *    FINAL HEAT OF FORMATION     =     30.79783 KCAL/MOL
     *    SUM OF CONTRIBUTIONS TO HoF =     18.79783 KCAL/MOL
     *                     DIFFERENCE =     12.00000 KCAL/MOL



          TOTAL ENERGY            =      -1460.87206 EV
          ELECTRONIC ENERGY       =      -6839.87806 EV 
          CORE-CORE REPULSION     =       5379.00600 EV
          COSMO AREA              =        169.03 SQUARE ANGSTROMS
          COSMO VOLUME            =        167.17 CUBIC ANGSTROMS

          GRADIENT NORM           =          0.91583          =       0.21586 PER ATOM
          IONIZATION POTENTIAL    =          9.669767 EV
          HOMO LUMO ENERGIES (EV) =         -9.670  0.898
          NO. OF FILLED LEVELS    =         24
          MOLECULAR WEIGHT        =        123.1542         POINT GROUP:  C1  

          MOLECULAR DIMENSIONS (Angstroms)

            Atom       Atom       Distance
            H    16    H    10     6.31402
            H    12    O     8     4.85274
            H    15    H    18     3.85683


          SCF CALCULATIONS        =          1

          WALL-CLOCK TIME         =      1.117 SECONDS
          COMPUTATION TIME        =      0.490 SECONDS

          LARGEST ATOMIC GRADIENTS

          Atom     Label                     Cartesian Gradients           Cartesian Coordinates       |Gradient|
                                           X          Y          Z        X          Y          Z

             1       C                   0.217      0.190      0.355   -2.25173   -1.51593   -1.33411      0.457
             3       C                   0.030      0.260     -0.229   -0.83777    0.29400   -0.03487      0.347
             9       C                  -0.316      0.070     -0.065    0.19677   -0.34451    0.97725      0.330
             8       O                  -0.152      0.154      0.141    3.01392   -0.26585   -1.23448      0.258
            13       H                   0.141     -0.183      0.033   -2.27110    1.91309   -0.21669      0.234
             2       C                  -0.153      0.093     -0.133   -1.60602   -0.68191   -0.74053      0.223
            10       H                   0.154     -0.057      0.144   -2.79968   -2.22465   -1.83993      0.219
            12       H                   0.102     -0.177     -0.064   -2.44045    0.96685    1.26677      0.214
             6       N                  -0.162     -0.029      0.071    1.31800    0.21589    0.17300      0.179
             7       C                   0.121     -0.036     -0.076    2.47746   -0.46949   -0.16733      0.147



       FINAL  POINT  AND  DERIVATIVES

   PARAMETER     ATOM    TYPE            VALUE        GRADIENT
      1          1  C    CARTESIAN X    -2.251731      0.217233  KCAL/ANGSTROM
      2          1  C    CARTESIAN Y    -1.515926      0.190444  KCAL/ANGSTROM
      3          1  C    CARTESIAN Z    -1.334110      0.354647  KCAL/ANGSTROM
      4          2  C    CARTESIAN X    -1.606021     -0.152716  KCAL/ANGSTROM
      5          2  C    CARTESIAN Y    -0.681908      0.093190  KCAL/ANGSTROM
      6          2  C    CARTESIAN Z    -0.740531     -0.133494  KCAL/ANGSTROM
      7          3  C    CARTESIAN X    -0.837766      0.029676  KCAL/ANGSTROM
      8          3  C    CARTESIAN Y     0.293996      0.259586  KCAL/ANGSTROM
      9          3  C    CARTESIAN Z    -0.034866     -0.228796  KCAL/ANGSTROM
     10          4  C    CARTESIAN X    -1.707842     -0.005002  KCAL/ANGSTROM
     11          4  C    CARTESIAN Y     1.381896      0.005029  KCAL/ANGSTROM
     12          4  C    CARTESIAN Z     0.562365      0.017736  KCAL/ANGSTROM
     13          5  C    CARTESIAN X     0.412238      0.067341  KCAL/ANGSTROM
     14          5  C    CARTESIAN Y     0.823796      0.052126  KCAL/ANGSTROM
     15          5  C    CARTESIAN Z    -0.842582     -0.070854  KCAL/ANGSTROM
     16          6  N    CARTESIAN X     1.317996     -0.162355  KCAL/ANGSTROM
     17          6  N    CARTESIAN Y     0.215894     -0.028896  KCAL/ANGSTROM
     18          6  N    CARTESIAN Z     0.172999      0.070627  KCAL/ANGSTROM
     19          7  C    CARTESIAN X     2.477462      0.120611  KCAL/ANGSTROM
     20          7  C    CARTESIAN Y    -0.469495     -0.036449  KCAL/ANGSTROM
     21          7  C    CARTESIAN Z    -0.167334     -0.076415  KCAL/ANGSTROM
     22          8  O    CARTESIAN X     3.013921     -0.152409  KCAL/ANGSTROM
     23          8  O    CARTESIAN Y    -0.265845      0.154320  KCAL/ANGSTROM
     24          8  O    CARTESIAN Z    -1.234483      0.140555  KCAL/ANGSTROM
     25          9  C    CARTESIAN X     0.196772     -0.315861  KCAL/ANGSTROM
     26          9  C    CARTESIAN Y    -0.344511      0.069718  KCAL/ANGSTROM
     27          9  C    CARTESIAN Z     0.977253     -0.064747  KCAL/ANGSTROM
     28         10  H    CARTESIAN X    -2.799679      0.153867  KCAL/ANGSTROM
     29         10  H    CARTESIAN Y    -2.224648     -0.057403  KCAL/ANGSTROM
     30         10  H    CARTESIAN Z    -1.839933      0.144250  KCAL/ANGSTROM
     31         11  H    CARTESIAN X    -1.111732      0.005531  KCAL/ANGSTROM
     32         11  H    CARTESIAN Y     2.127763     -0.078768  KCAL/ANGSTROM
     33         11  H    CARTESIAN Z     1.104289     -0.047768  KCAL/ANGSTROM
     34         12  H    CARTESIAN X    -2.440448      0.102270  KCAL/ANGSTROM
     35         12  H    CARTESIAN Y     0.966846     -0.176709  KCAL/ANGSTROM
     36         12  H    CARTESIAN Z     1.266771     -0.064142  KCAL/ANGSTROM
     37         13  H    CARTESIAN X    -2.271104      0.141111  KCAL/ANGSTROM
     38         13  H    CARTESIAN Y     1.913090     -0.183253  KCAL/ANGSTROM
     39         13  H    CARTESIAN Z    -0.216692      0.033409  KCAL/ANGSTROM
     40         14  H    CARTESIAN X     0.523469     -0.059064  KCAL/ANGSTROM
     41         14  H    CARTESIAN Y     0.418761      0.036536  KCAL/ANGSTROM
     42         14  H    CARTESIAN Z    -1.859656     -0.054046  KCAL/ANGSTROM
     43         15  H    CARTESIAN X     0.514942      0.065584  KCAL/ANGSTROM
     44         15  H    CARTESIAN Y     1.918256     -0.078053  KCAL/ANGSTROM
     45         15  H    CARTESIAN Z    -0.875237     -0.038520  KCAL/ANGSTROM
     46         16  H    CARTESIAN X     2.907873     -0.033784  KCAL/ANGSTROM
     47         16  H    CARTESIAN Y    -1.105873     -0.132244  KCAL/ANGSTROM
     48         16  H    CARTESIAN Z     0.617502     -0.011640  KCAL/ANGSTROM
     49         17  H    CARTESIAN X     0.170218      0.063090  KCAL/ANGSTROM
     50         17  H    CARTESIAN Y     0.084537     -0.072303  KCAL/ANGSTROM
     51         17  H    CARTESIAN Z     1.990232      0.062883  KCAL/ANGSTROM
     52         18  H    CARTESIAN X     0.161275     -0.085125  KCAL/ANGSTROM
     53         18  H    CARTESIAN Y    -1.439591     -0.016874  KCAL/ANGSTROM
     54         18  H    CARTESIAN Z     1.038945     -0.033688  KCAL/ANGSTROM




   ATOM   CHEMICAL          X               Y               Z
  NUMBER   SYMBOL      (ANGSTROMS)     (ANGSTROMS)     (ANGSTROMS)

     1       C         -2.25173099  *  -1.51592594  *  -1.33410970  *
     2       C         -1.60602052  *  -0.68190773  *  -0.74053077  *
     3       C         -0.83776612  *   0.29399569  *  -0.03486552  *
     4       C         -1.70784175  *   1.38189565  *   0.56236459  *
     5       C          0.41223786  *   0.82379598  *  -0.84258167  *
     6       N          1.31799631  *   0.21589400  *   0.17299912  *
     7       C          2.47746248  *  -0.46949471  *  -0.16733364  *
     8       O          3.01392128  *  -0.26584517  *  -1.23448254  *
     9       C          0.19677178  *  -0.34451137  *   0.97725332  *
    10       H         -2.79967894  *  -2.22464822  *  -1.83993337  *
    11       H         -1.11173217  *   2.12776255  *   1.10428861  *
    12       H         -2.44044763  *   0.96684615  *   1.26677132  *
    13       H         -2.27110410  *   1.91309018  *  -0.21669220  *
    14       H          0.52346867  *   0.41876071  *  -1.85965562  *
    15       H          0.51494178  *   1.91825620  *  -0.87523714  *
    16       H          2.90787285  *  -1.10587331  *   0.61750173  *
    17       H          0.17021842  *   0.08453724  *   1.99023224  *
    18       H          0.16127501  *  -1.43959123  *   1.03894522  *

                             CARTESIAN COORDINATES

   1    C       -2.251730994    -1.515925943    -1.334109700
   2    C       -1.606020525    -0.681907730    -0.740530771
   3    C       -0.837766116     0.293995690    -0.034865521
   4    C       -1.707841754     1.381895647     0.562364588
   5    C        0.412237858     0.823795980    -0.842581670
   6    N        1.317996311     0.215893996     0.172999122
   7    C        2.477462479    -0.469494713    -0.167333636
   8    O        3.013921280    -0.265845168    -1.234482541
   9    C        0.196771784    -0.344511374     0.977253318
  10    H       -2.799678939    -2.224648218    -1.839933372
  11    H       -1.111732174     2.127762546     1.104288612
  12    H       -2.440447630     0.966846154     1.266771321
  13    H       -2.271104099     1.913090184    -0.216692202
  14    H        0.523468666     0.418760710    -1.859655616
  15    H        0.514941780     1.918256196    -0.875237143
  16    H        2.907872853    -1.105873306     0.617501730
  17    H        0.170218422     0.084537239     1.990232245
  18    H        0.161275013    -1.439591230     1.038945220


           Empirical Formula: C7 H9 N O  =    18 atoms



      MOLECULAR POINT GROUP   :   C1  


                  EIGENVALUES  
 -36.86974 -30.54312 -28.92966 -26.23763 -24.65490 -24.23401 -21.86344 -20.13684
 -18.20027 -17.37761 -16.74184 -16.35817 -15.19540 -14.68751 -14.32192 -14.17178
 -13.34110 -13.22740 -12.80925 -12.55067 -11.35617 -11.00407 -10.48419  -9.66977
   0.89803   1.01633   1.15974   1.82921   2.83239   3.35130   3.50417   3.57436
   4.12424   4.64195   4.97851   5.24439   5.30453   5.36298   5.38335   5.56090
   5.67418   5.87445   5.88850   6.48110   6.66425


              NET ATOMIC CHARGES AND DIPOLE CONTRIBUTIONS

  ATOM NO.   TYPE          CHARGE      No. of ELECS.   s-Pop       p-Pop       
    1          C          -0.183200        4.1832     1.13831     3.04489
    2          C          -0.106157        4.1062     1.10713     2.99903
    3          C           0.050899        3.9491     1.05035     2.89875
    4          C          -0.447926        4.4479     1.05383     3.39409
    5          C          -0.079900        4.0799     1.08975     2.99015
    6          N          -0.505153        5.5052     1.64480     3.86036
    7          C           0.456957        3.5430     1.11913     2.42391
    8          O          -0.499213        6.4992     1.87992     4.61929
    9          C          -0.093602        4.0936     1.08971     3.00389
   10          H           0.189497        0.8105     0.81050
   11          H           0.160497        0.8395     0.83950
   12          H           0.156698        0.8433     0.84330
   13          H           0.160638        0.8394     0.83936
   14          H           0.157724        0.8423     0.84228
   15          H           0.156649        0.8434     0.84335
   16          H           0.131002        0.8690     0.86900
   17          H           0.154480        0.8455     0.84552
   18          H           0.140110        0.8599     0.85989
 DIPOLE           X         Y         Z       TOTAL
 POINT-CHG.    -3.110    -0.320     2.850     4.230
 HYBRID        -0.038    -0.248    -0.385     0.460
 SUM           -3.148    -0.568     2.465     4.038


          ATOMIC ORBITAL ELECTRON POPULATIONS

     Atom    s        px        py        pz   
    1  C   1.13831   1.01685   1.01861   1.00943
    2  C   1.10713   0.99967   0.99537   1.00399
    3  C   1.05035   0.94900   0.96775   0.98200
    4  C   1.05383   1.13277   1.09875   1.16257
    5  C   1.08975   0.87223   1.10613   1.01180
    6  N   1.64480   1.15386   1.42718   1.27931
    7  C   1.11913   0.80047   0.76522   0.85823
    8  O   1.87992   1.67075   1.60877   1.33977
    9  C   1.08971   0.86314   1.09740   1.04336
   10  H   0.81050
   11  H   0.83950
   12  H   0.84330
   13  H   0.83936
   14  H   0.84228
   15  H   0.84335
   16  H   0.86900
   17  H   0.84552
   18  H   0.85989

 **********************
 *                    *
 * JOB ENDED NORMALLY *
 *                    *
 **********************



 TOTAL JOB TIME:             1.62 SECONDS

 == MOPAC DONE ==
