 *******************************************************************************
 **                                                                           **
 **                              MOPAC v23.2                                  **
 **                                                                           **
 *******************************************************************************
 **          Digital Object Identifier (DOI): 10.5281/zenodo.6511958          **
 **    Visit the DOI location for information on how to cite this program.    **
 *******************************************************************************

                              PM7 CALCULATION RESULTS

 *******************************************************************************
 *  CALCULATION DONE: (MAX THREADS = 40)             Fri Sep 19 21:40:02 2025  *
 *  PM7        - The PM7 Hamiltonian to be used
 *  1SCF       - DO 1 SCF AND THEN STOP 
 *  T=         - A TIME OF 172800.0 SECONDS REQUESTED
 *  DUMP=N     - RESTART FILE WRITTEN EVERY 7200.0 SECONDS REQUESTED
 *  RELSCF     - DEFAULT SCF CRITERION MULTIPLIED BY 0.0001
 *              (DEFAULT SCF CRITERION = 0.00010)
 *  GRADIENTS  - ALL GRADIENTS TO BE PRINTED
 *  DISP       - PRINT DISPERSION AND HYDROGEN BOND ENERGIES
 *******************************************************************************
PM7 1SCF GRADIENTS DISP RELSCF=0.0001
 Title: ASE calculation

   ATOM   CHEMICAL          X               Y               Z
  NUMBER   SYMBOL      (ANGSTROMS)     (ANGSTROMS)     (ANGSTROMS)

     1       C          0.27869550  *   1.81785969  *   0.12907774  *
     2       C          0.81445206  *   0.46453311  *  -0.12776690  *
     3       C          0.13761759  *  -0.66243779  *  -0.40230272  *
     4       C         -1.31568917  *  -0.81535756  *  -0.55825876  *
     5       C         -2.24362550  *  -0.75232614  *   0.64386155  *
     6       N         -1.92988446  *  -2.04369337  *   0.00431080  *
     7       C          1.04782543  *  -1.84725003  *  -0.57489112  *
     8       C          2.47615796  *  -1.28208318  *  -0.37765882  *
     9       C          2.30201934  *   0.22955787  *  -0.08477235  *
    10       H          0.57321838  *   2.17616050  *   1.12742433  *
    11       H         -0.81867345  *   1.84938261  *   0.08358782  *
    12       H          0.65969498  *   2.54636991  *  -0.60192371  *
    13       H         -1.68059256  *  -0.42946561  *  -1.52357732  *
    14       H         -3.22927949  *  -0.30222051  *   0.55869233  *
    15       H         -1.82640152  *  -0.61981986  *   1.64587744  *
    16       H         -2.66902795  *  -2.46216457  *  -0.54710776  *
    17       H          0.80687866  *  -2.63189823  *   0.16706009  *
    18       H          0.92157183  *  -2.31227876  *  -1.56607194  *
    19       H          2.98950512  *  -1.78769071  *   0.45356666  *
    20       H          3.09072175  *  -1.44344644  *  -1.27524375  *
    21       H          2.72195655  *   0.50259670  *   0.89734132  *
    22       H          2.82411792  *   0.85018984  *  -0.83130550  *



          CARTESIAN COORDINATES 

    NO.       ATOM           X           Y           Z

     1         C          0.2787      1.8179      0.1291
     2         C          0.8145      0.4645     -0.1278
     3         C          0.1376     -0.6624     -0.4023
     4         C         -1.3157     -0.8154     -0.5583
     5         C         -2.2436     -0.7523      0.6439
     6         N         -1.9299     -2.0437      0.0043
     7         C          1.0478     -1.8473     -0.5749
     8         C          2.4762     -1.2821     -0.3777
     9         C          2.3020      0.2296     -0.0848
    10         H          0.5732      2.1762      1.1274
    11         H         -0.8187      1.8494      0.0836
    12         H          0.6597      2.5464     -0.6019
    13         H         -1.6806     -0.4295     -1.5236
    14         H         -3.2293     -0.3022      0.5587
    15         H         -1.8264     -0.6198      1.6459
    16         H         -2.6690     -2.4622     -0.5471
    17         H          0.8069     -2.6319      0.1671
    18         H          0.9216     -2.3123     -1.5661
    19         H          2.9895     -1.7877      0.4536
    20         H          3.0907     -1.4434     -1.2752
    21         H          2.7220      0.5026      0.8973
    22         H          2.8241      0.8502     -0.8313

 General Reference for PM7:
 "Optimization of Parameters for Semiempirical Methods VI: More Modifications to the 
 NDDO Approximations and Re-optimization of Parameters", J. J. P. Stewart, J. Mol. Mod., 1:32, 19 (2013)
 https://link.springer.com/article/10.1007/s00894-012-1667-x

           Empirical Formula: C8 H13 N  =    22 atoms



      MOLECULAR POINT GROUP   :   C1  


      RHF CALCULATION, NO. OF DOUBLY OCCUPIED LEVELS = 25

  SCF CRITERION =    0.1000E-07

 -------------------------------------------------------------------------------
 PM7 1SCF GRADIENTS DISP RELSCF=0.0001
 Title: ASE calculation



     1SCF WAS SPECIFIED, SO BFGS WAS NOT USED                 
     SCF FIELD WAS ACHIEVED                                   


                              PM7 CALCULATION
                                                       MOPAC v23.2 Linux
                                                       Fri Sep 19 21:40:03 2025




          FINAL HEAT OF FORMATION =         30.83717 KCAL/MOL =     129.02272 KJ/MOL

          TOTAL ENERGY            =     -30975.69965 KCAL/MOL = ELECTRONIC ENERGY + CORE-CORE REPULSION
          ENERGY OF ATOMS         =      31008.88895 KCAL/MOL
                              SUM =         33.18930 KCAL/MOL
          DISPERSION ENERGY       =         -2.35212 KCAL/MOL
                              SUM =         30.83717 KCAL/MOL = FINAL HEAT OF FORMATION



          TOTAL ENERGY            =      -1343.23347 EV
          ELECTRONIC ENERGY       =      -7185.16581 EV 
          CORE-CORE REPULSION     =       5841.93234 EV
          COSMO AREA              =        174.11 SQUARE ANGSTROMS
          COSMO VOLUME            =        174.82 CUBIC ANGSTROMS

          GRADIENT NORM           =          1.28979          =       0.27499 PER ATOM
          IONIZATION POTENTIAL    =          8.942592 EV
          HOMO LUMO ENERGIES (EV) =         -8.943  1.250
          NO. OF FILLED LEVELS    =         25
          MOLECULAR WEIGHT        =        123.1974         POINT GROUP:  C1  

          MOLECULAR DIMENSIONS (Angstroms)

            Atom       Atom       Distance
            H    20    H    14     6.67893
            H    16    H    10     5.61549
            H    19    H    12     3.24887


          SCF CALCULATIONS        =          1

          WALL-CLOCK TIME         =      0.789 SECONDS
          COMPUTATION TIME        =      0.819 SECONDS

          LARGEST ATOMIC GRADIENTS

          Atom     Label                     Cartesian Gradients           Cartesian Coordinates       |Gradient|
                                           X          Y          Z        X          Y          Z

            22       H                  -0.343     -0.017      0.289    2.82412    0.85019   -0.83131      0.449
             4       C                  -0.193     -0.397     -0.057   -1.31569   -0.81536   -0.55826      0.445
             6       N                  -0.084      0.352      0.258   -1.92988   -2.04369    0.00431      0.444
            10       H                   0.271     -0.328     -0.025    0.57322    2.17616    1.12742      0.426
             2       C                   0.151     -0.052     -0.356    0.81445    0.46453   -0.12777      0.390
            21       H                  -0.043      0.143     -0.244    2.72196    0.50260    0.89734      0.286
             7       C                   0.253      0.096      0.084    1.04783   -1.84725   -0.57489      0.283
             9       C                   0.026     -0.272      0.058    2.30202    0.22956   -0.08477      0.279
            12       H                   0.230     -0.039      0.142    0.65969    2.54637   -0.60192      0.273
            15       H                  -0.233      0.028     -0.079   -1.82640   -0.61982    1.64588      0.247



       FINAL  POINT  AND  DERIVATIVES

   PARAMETER     ATOM    TYPE            VALUE        GRADIENT
      1          1  C    CARTESIAN X     0.278695     -0.009572  KCAL/ANGSTROM
      2          1  C    CARTESIAN Y     1.817860      0.246936  KCAL/ANGSTROM
      3          1  C    CARTESIAN Z     0.129078     -0.003075  KCAL/ANGSTROM
      4          2  C    CARTESIAN X     0.814452      0.150504  KCAL/ANGSTROM
      5          2  C    CARTESIAN Y     0.464533     -0.052367  KCAL/ANGSTROM
      6          2  C    CARTESIAN Z    -0.127767     -0.355842  KCAL/ANGSTROM
      7          3  C    CARTESIAN X     0.137618     -0.116869  KCAL/ANGSTROM
      8          3  C    CARTESIAN Y    -0.662438      0.103837  KCAL/ANGSTROM
      9          3  C    CARTESIAN Z    -0.402303     -0.075773  KCAL/ANGSTROM
     10          4  C    CARTESIAN X    -1.315689     -0.192806  KCAL/ANGSTROM
     11          4  C    CARTESIAN Y    -0.815358     -0.396698  KCAL/ANGSTROM
     12          4  C    CARTESIAN Z    -0.558259     -0.057186  KCAL/ANGSTROM
     13          5  C    CARTESIAN X    -2.243626     -0.111113  KCAL/ANGSTROM
     14          5  C    CARTESIAN Y    -0.752326     -0.060195  KCAL/ANGSTROM
     15          5  C    CARTESIAN Z     0.643862     -0.074201  KCAL/ANGSTROM
     16          6  N    CARTESIAN X    -1.929884     -0.084398  KCAL/ANGSTROM
     17          6  N    CARTESIAN Y    -2.043693      0.351546  KCAL/ANGSTROM
     18          6  N    CARTESIAN Z     0.004311      0.258271  KCAL/ANGSTROM
     19          7  C    CARTESIAN X     1.047825      0.252858  KCAL/ANGSTROM
     20          7  C    CARTESIAN Y    -1.847250      0.096152  KCAL/ANGSTROM
     21          7  C    CARTESIAN Z    -0.574891      0.083686  KCAL/ANGSTROM
     22          8  C    CARTESIAN X     2.476158     -0.021275  KCAL/ANGSTROM
     23          8  C    CARTESIAN Y    -1.282083      0.098390  KCAL/ANGSTROM
     24          8  C    CARTESIAN Z    -0.377659     -0.015055  KCAL/ANGSTROM
     25          9  C    CARTESIAN X     2.302019      0.025650  KCAL/ANGSTROM
     26          9  C    CARTESIAN Y     0.229558     -0.271635  KCAL/ANGSTROM
     27          9  C    CARTESIAN Z    -0.084772      0.057526  KCAL/ANGSTROM
     28         10  H    CARTESIAN X     0.573218      0.270824  KCAL/ANGSTROM
     29         10  H    CARTESIAN Y     2.176160     -0.327765  KCAL/ANGSTROM
     30         10  H    CARTESIAN Z     1.127424     -0.025127  KCAL/ANGSTROM
     31         11  H    CARTESIAN X    -0.818673      0.049559  KCAL/ANGSTROM
     32         11  H    CARTESIAN Y     1.849383     -0.089291  KCAL/ANGSTROM
     33         11  H    CARTESIAN Z     0.083588      0.056470  KCAL/ANGSTROM
     34         12  H    CARTESIAN X     0.659695      0.230381  KCAL/ANGSTROM
     35         12  H    CARTESIAN Y     2.546370     -0.038535  KCAL/ANGSTROM
     36         12  H    CARTESIAN Z    -0.601924      0.141669  KCAL/ANGSTROM
     37         13  H    CARTESIAN X    -1.680593      0.042057  KCAL/ANGSTROM
     38         13  H    CARTESIAN Y    -0.429466     -0.075751  KCAL/ANGSTROM
     39         13  H    CARTESIAN Z    -1.523577      0.110882  KCAL/ANGSTROM
     40         14  H    CARTESIAN X    -3.229279     -0.156079  KCAL/ANGSTROM
     41         14  H    CARTESIAN Y    -0.302221     -0.115234  KCAL/ANGSTROM
     42         14  H    CARTESIAN Z     0.558692     -0.065070  KCAL/ANGSTROM
     43         15  H    CARTESIAN X    -1.826402     -0.232568  KCAL/ANGSTROM
     44         15  H    CARTESIAN Y    -0.619820      0.027886  KCAL/ANGSTROM
     45         15  H    CARTESIAN Z     1.645877     -0.079394  KCAL/ANGSTROM
     46         16  H    CARTESIAN X    -2.669028      0.131824  KCAL/ANGSTROM
     47         16  H    CARTESIAN Y    -2.462165      0.040865  KCAL/ANGSTROM
     48         16  H    CARTESIAN Z    -0.547108     -0.001468  KCAL/ANGSTROM
     49         17  H    CARTESIAN X     0.806879      0.108174  KCAL/ANGSTROM
     50         17  H    CARTESIAN Y    -2.631898      0.114759  KCAL/ANGSTROM
     51         17  H    CARTESIAN Z     0.167060     -0.020388  KCAL/ANGSTROM
     52         18  H    CARTESIAN X     0.921572     -0.097050  KCAL/ANGSTROM
     53         18  H    CARTESIAN Y    -2.312279      0.189524  KCAL/ANGSTROM
     54         18  H    CARTESIAN Z    -1.566072     -0.012515  KCAL/ANGSTROM
     55         19  H    CARTESIAN X     2.989505      0.180134  KCAL/ANGSTROM
     56         19  H    CARTESIAN Y    -1.787691      0.124641  KCAL/ANGSTROM
     57         19  H    CARTESIAN Z     0.453567      0.090422  KCAL/ANGSTROM
     58         20  H    CARTESIAN X     3.090722     -0.033606  KCAL/ANGSTROM
     59         20  H    CARTESIAN Y    -1.443446     -0.093525  KCAL/ANGSTROM
     60         20  H    CARTESIAN Z    -1.275244     -0.058139  KCAL/ANGSTROM
     61         21  H    CARTESIAN X     2.721957     -0.043165  KCAL/ANGSTROM
     62         21  H    CARTESIAN Y     0.502597      0.143068  KCAL/ANGSTROM
     63         21  H    CARTESIAN Z     0.897341     -0.244297  KCAL/ANGSTROM
     64         22  H    CARTESIAN X     2.824118     -0.343468  KCAL/ANGSTROM
     65         22  H    CARTESIAN Y     0.850190     -0.016612  KCAL/ANGSTROM
     66         22  H    CARTESIAN Z    -0.831305      0.288597  KCAL/ANGSTROM




   ATOM   CHEMICAL          X               Y               Z
  NUMBER   SYMBOL      (ANGSTROMS)     (ANGSTROMS)     (ANGSTROMS)

     1       C          0.27869550  *   1.81785969  *   0.12907774  *
     2       C          0.81445206  *   0.46453311  *  -0.12776690  *
     3       C          0.13761759  *  -0.66243779  *  -0.40230272  *
     4       C         -1.31568917  *  -0.81535756  *  -0.55825876  *
     5       C         -2.24362550  *  -0.75232614  *   0.64386155  *
     6       N         -1.92988446  *  -2.04369337  *   0.00431080  *
     7       C          1.04782543  *  -1.84725003  *  -0.57489112  *
     8       C          2.47615796  *  -1.28208318  *  -0.37765882  *
     9       C          2.30201934  *   0.22955787  *  -0.08477235  *
    10       H          0.57321838  *   2.17616050  *   1.12742433  *
    11       H         -0.81867345  *   1.84938261  *   0.08358782  *
    12       H          0.65969498  *   2.54636991  *  -0.60192371  *
    13       H         -1.68059256  *  -0.42946561  *  -1.52357732  *
    14       H         -3.22927949  *  -0.30222051  *   0.55869233  *
    15       H         -1.82640152  *  -0.61981986  *   1.64587744  *
    16       H         -2.66902795  *  -2.46216457  *  -0.54710776  *
    17       H          0.80687866  *  -2.63189823  *   0.16706009  *
    18       H          0.92157183  *  -2.31227876  *  -1.56607194  *
    19       H          2.98950512  *  -1.78769071  *   0.45356666  *
    20       H          3.09072175  *  -1.44344644  *  -1.27524375  *
    21       H          2.72195655  *   0.50259670  *   0.89734132  *
    22       H          2.82411792  *   0.85018984  *  -0.83130550  *

                             CARTESIAN COORDINATES

   1    C        0.278695498     1.817859689     0.129077739
   2    C        0.814452060     0.464533110    -0.127766900
   3    C        0.137617588    -0.662437791    -0.402302720
   4    C       -1.315689169    -0.815357564    -0.558258764
   5    C       -2.243625504    -0.752326137     0.643861552
   6    N       -1.929884459    -2.043693375     0.004310802
   7    C        1.047825427    -1.847250026    -0.574891125
   8    C        2.476157964    -1.282083178    -0.377658824
   9    C        2.302019341     0.229557875    -0.084772354
  10    H        0.573218377     2.176160499     1.127424331
  11    H       -0.818673449     1.849382610     0.083587821
  12    H        0.659694978     2.546369909    -0.601923711
  13    H       -1.680592559    -0.429465610    -1.523577322
  14    H       -3.229279486    -0.302220512     0.558692329
  15    H       -1.826401521    -0.619819860     1.645877436
  16    H       -2.669027946    -2.462164572    -0.547107761
  17    H        0.806878655    -2.631898234     0.167060095
  18    H        0.921571833    -2.312278760    -1.566071944
  19    H        2.989505116    -1.787690713     0.453566656
  20    H        3.090721745    -1.443446443    -1.275243750
  21    H        2.721956553     0.502596701     0.897341324
  22    H        2.824117923     0.850189841    -0.831305495


           Empirical Formula: C8 H13 N  =    22 atoms



      MOLECULAR POINT GROUP   :   C1  


                  EIGENVALUES  
 -36.36308 -30.23875 -26.52824 -25.46541 -23.38934 -22.60570 -21.03121 -19.53956
 -18.07440 -17.05228 -16.18428 -16.01310 -14.53415 -14.21387 -13.78539 -13.37437
 -13.12722 -12.68354 -12.29120 -12.04415 -11.82705 -11.66622 -11.52251  -9.96540
  -8.94259   1.25021   2.45147   2.99924   3.64453   3.93413   4.15438   4.59198
   4.76825   5.05658   5.25384   5.39522   5.47052   5.59317   5.68780   5.74536
   5.98623   6.05569   6.23710   6.37351   6.52267   6.55320   6.70498   6.90397
   6.95662


              NET ATOMIC CHARGES AND DIPOLE CONTRIBUTIONS

  ATOM NO.   TYPE          CHARGE      No. of ELECS.   s-Pop       p-Pop       
    1          C          -0.447193        4.4472     1.04529     3.40191
    2          C          -0.005106        4.0051     1.07259     2.93252
    3          C          -0.055283        4.0553     1.06853     2.98675
    4          C          -0.058136        4.0581     1.05535     3.00278
    5          C          -0.220564        4.2206     1.06981     3.15075
    6          N          -0.465226        5.4652     1.72590     3.73933
    7          C          -0.257169        4.2572     1.05947     3.19770
    8          C          -0.262210        4.2622     1.06372     3.19849
    9          C          -0.277557        4.2776     1.06128     3.21627
   10          H           0.157425        0.8426     0.84258
   11          H           0.153293        0.8467     0.84671
   12          H           0.156747        0.8433     0.84325
   13          H           0.151173        0.8488     0.84883
   14          H           0.143280        0.8567     0.85672
   15          H           0.175504        0.8245     0.82450
   16          H           0.251313        0.7487     0.74869
   17          H           0.162988        0.8370     0.83701
   18          H           0.142955        0.8570     0.85705
   19          H           0.134780        0.8652     0.86522
   20          H           0.133152        0.8668     0.86685
   21          H           0.143229        0.8568     0.85677
   22          H           0.142605        0.8574     0.85740
 DIPOLE           X         Y         Z       TOTAL
 POINT-CHG.     0.026     1.551    -0.357     1.592
 HYBRID        -0.836     0.194    -0.515     1.001
 SUM           -0.809     1.745    -0.872     2.112


          ATOMIC ORBITAL ELECTRON POPULATIONS

     Atom    s        px        py        pz   
    1  C   1.04529   1.16394   1.06632   1.17164
    2  C   1.07259   0.96970   0.95841   1.00440
    3  C   1.06853   0.94527   0.99161   1.04987
    4  C   1.05535   0.99142   0.97906   1.03230
    5  C   1.06981   1.09929   0.97872   1.07274
    6  N   1.72590   1.32637   1.12895   1.28401
    7  C   1.05947   0.97919   1.05766   1.16085
    8  C   1.06372   1.04198   1.00727   1.14924
    9  C   1.06128   1.03122   1.03316   1.15190
   10  H   0.84258
   11  H   0.84671
   12  H   0.84325
   13  H   0.84883
   14  H   0.85672
   15  H   0.82450
   16  H   0.74869
   17  H   0.83701
   18  H   0.85705
   19  H   0.86522
   20  H   0.86685
   21  H   0.85677
   22  H   0.85740

 **********************
 *                    *
 * JOB ENDED NORMALLY *
 *                    *
 **********************



 TOTAL JOB TIME:             1.25 SECONDS

 == MOPAC DONE ==
