 *******************************************************************************
 **                                                                           **
 **                              MOPAC v23.2                                  **
 **                                                                           **
 *******************************************************************************
 **          Digital Object Identifier (DOI): 10.5281/zenodo.6511958          **
 **    Visit the DOI location for information on how to cite this program.    **
 *******************************************************************************

                              PM7 CALCULATION RESULTS

 *******************************************************************************
 *  CALCULATION DONE: (MAX THREADS = 40)             Fri Sep 19 21:39:13 2025  *
 *  PM7        - The PM7 Hamiltonian to be used
 *  EPS=37.5   - USE ANDREAS KLAMT'S COSMO IMPLICIT SOLVATION MODEL
 *  1SCF       - DO 1 SCF AND THEN STOP 
 *  T=         - A TIME OF 172800.0 SECONDS REQUESTED
 *  DUMP=N     - RESTART FILE WRITTEN EVERY 7200.0 SECONDS REQUESTED
 *  RELSCF     - DEFAULT SCF CRITERION MULTIPLIED BY 0.0001
 *              (DEFAULT SCF CRITERION = 0.00010)
 *  GRADIENTS  - ALL GRADIENTS TO BE PRINTED
 *  DISP       - PRINT DISPERSION AND HYDROGEN BOND ENERGIES
 *******************************************************************************
PM7 1SCF GRADIENTS EPS=37.5 DISP RELSCF=0.0001
 Title: ASE calculation

   ATOM   CHEMICAL          X               Y               Z
  NUMBER   SYMBOL      (ANGSTROMS)     (ANGSTROMS)     (ANGSTROMS)

     1       C         -2.13613241  *  -0.80032802  *   1.15007458  *
     2       C         -1.48302250  *  -0.64368805  *  -0.21901209  *
     3       C         -0.20631270  *  -1.49393762  *  -0.38912107  *
     4       C          0.86566906  *  -0.48471343  *  -0.83810149  *
     5       C          2.27015292  *  -0.82075024  *  -0.34244292  *
     6       O          2.39925513  *  -0.88389340  *   1.06053116  *
     7       C          0.29501859  *   0.88138387  *  -0.38078493  *
     8       C          0.72916119  *   1.35535265  *   0.99891917  *
     9       O         -1.11922566  *   0.72139804  *  -0.39462523  *
    10       H         -2.48369515  *  -1.82330695  *   1.31943307  *
    11       H         -3.00127437  *  -0.12869757  *   1.24001605  *
    12       H         -1.44600770  *  -0.52827799  *   1.95659269  *
    13       H         -2.21410611  *  -0.82179263  *  -1.03781353  *
    14       H         -0.34800520  *  -2.29210286  *  -1.13352708  *
    15       H          0.06887572  *  -2.00105523  *   0.54909186  *
    16       H          0.90173659  *  -0.47637978  *  -1.95659269  *
    17       H          2.61000983  *  -1.79453282  *  -0.74672345  *
    18       H          3.00127437  *  -0.03502394  *  -0.61980920  *
    19       H          1.61896026  *  -1.30824748  *   1.46938566  *
    20       H          0.46608559  *   1.67416314  *  -1.14216586  *
    21       H          1.81182127  *   1.52531644  *   1.04663589  *
    22       H          0.22103958  *   2.29210286  *   1.25968729  *
    23       H          0.48256145  *   0.62702766  *   1.77847528  *



          CARTESIAN COORDINATES 

    NO.       ATOM           X           Y           Z

     1         C         -2.1361     -0.8003      1.1501
     2         C         -1.4830     -0.6437     -0.2190
     3         C         -0.2063     -1.4939     -0.3891
     4         C          0.8657     -0.4847     -0.8381
     5         C          2.2702     -0.8208     -0.3424
     6         O          2.3993     -0.8839      1.0605
     7         C          0.2950      0.8814     -0.3808
     8         C          0.7292      1.3554      0.9989
     9         O         -1.1192      0.7214     -0.3946
    10         H         -2.4837     -1.8233      1.3194
    11         H         -3.0013     -0.1287      1.2400
    12         H         -1.4460     -0.5283      1.9566
    13         H         -2.2141     -0.8218     -1.0378
    14         H         -0.3480     -2.2921     -1.1335
    15         H          0.0689     -2.0011      0.5491
    16         H          0.9017     -0.4764     -1.9566
    17         H          2.6100     -1.7945     -0.7467
    18         H          3.0013     -0.0350     -0.6198
    19         H          1.6190     -1.3082      1.4694
    20         H          0.4661      1.6742     -1.1422
    21         H          1.8118      1.5253      1.0466
    22         H          0.2210      2.2921      1.2597
    23         H          0.4826      0.6270      1.7785

 General Reference for PM7:
 "Optimization of Parameters for Semiempirical Methods VI: More Modifications to the 
 NDDO Approximations and Re-optimization of Parameters", J. J. P. Stewart, J. Mol. Mod., 1:32, 19 (2013)
 https://link.springer.com/article/10.1007/s00894-012-1667-x

           Empirical Formula: C7 H14 O2  =    23 atoms



      MOLECULAR POINT GROUP   :   C1  


      RHF CALCULATION, NO. OF DOUBLY OCCUPIED LEVELS = 27

  SCF CRITERION =    0.1000E-07

 -------------------------------------------------------------------------------
 PM7 1SCF GRADIENTS EPS=37.5 DISP RELSCF=0.0001
 Title: ASE calculation



     1SCF WAS SPECIFIED, SO BFGS WAS NOT USED                 
     SCF FIELD WAS ACHIEVED                                   


                              PM7 CALCULATION
                                                       MOPAC v23.2 Linux
                                                       Fri Sep 19 21:39:13 2025




          FINAL HEAT OF FORMATION =       -117.42148 KCAL/MOL =    -491.29149 KJ/MOL

          TOTAL ENERGY            =     -37827.01936 KCAL/MOL = ELECTRONIC ENERGY + CORE-CORE REPULSION + SOLVATION ENERGY
          ENERGY OF ATOMS         =      37712.04263 KCAL/MOL
                              SUM =       -114.97673 KCAL/MOL
          DISPERSION ENERGY       =         -2.44014 KCAL/MOL
          H-BOND ENERGY           =         -0.00461 KCAL/MOL
                              SUM =       -117.42148 KCAL/MOL = FINAL HEAT OF FORMATION

          VAN DER WAALS AREA      =        165.53 SQUARE ANGSTROMS


          TOTAL ENERGY            =      -1640.33481 EV
          ELECTRONIC ENERGY       =      -2700.21323 EV 
          CORE-CORE REPULSION     =       1059.87842 EV

          DIELECTRIC ENERGY       =         -0.40822 EV
          COSMO AREA              =        165.53 SQUARE ANGSTROMS
          COSMO VOLUME            =        172.34 CUBIC ANGSTROMS

          GRADIENT NORM           =         11.93448          =       2.48851 PER ATOM
          IONIZATION POTENTIAL    =         10.157859 EV
          HOMO LUMO ENERGIES (EV) =        -10.158  2.256
          NO. OF FILLED LEVELS    =         27
          MOLECULAR WEIGHT        =        130.1864         POINT GROUP:  C1  

          MOLECULAR DIMENSIONS (Angstroms)

            Atom       Atom       Distance
            H    18    H    11     6.28477
            H    22    H    14     5.20163
            H    20    H    19     3.90964


          SCF CALCULATIONS        =          2

          WALL-CLOCK TIME         =      1.016 SECONDS
          COMPUTATION TIME        =      0.847 SECONDS

          LARGEST ATOMIC GRADIENTS

          Atom     Label                     Cartesian Gradients           Cartesian Coordinates       |Gradient|
                                           X          Y          Z        X          Y          Z

             2       C                   1.346      5.456     -1.411   -1.48302   -0.64369   -0.21901      5.794
             1       C                  -0.033     -4.254      2.057   -2.13613   -0.80033    1.15007      4.726
             7       C                  -4.188     -0.513      0.232    0.29502    0.88138   -0.38078      4.226
             5       C                  -0.420     -2.053      3.385    2.27015   -0.82075   -0.34244      3.981
             3       C                   0.918     -3.529     -0.215   -0.20631   -1.49394   -0.38912      3.653
            19       H                   2.867      1.109     -1.742    1.61896   -1.30825    1.46939      3.533
             4       C                   0.602     -0.676     -2.531    0.86567   -0.48471   -0.83810      2.688
             8       C                   1.332     -0.807      0.412    0.72916    1.35535    0.99892      1.611
            16       H                  -0.780      0.359      1.269    0.90174   -0.47638   -1.95659      1.532
             6       O                  -1.103      0.547     -0.867    2.39926   -0.88389    1.06053      1.505



       FINAL  POINT  AND  DERIVATIVES

   PARAMETER     ATOM    TYPE            VALUE        GRADIENT
      1          1  C    CARTESIAN X    -2.136132     -0.032583  KCAL/ANGSTROM
      2          1  C    CARTESIAN Y    -0.800328     -4.254382  KCAL/ANGSTROM
      3          1  C    CARTESIAN Z     1.150075      2.056757  KCAL/ANGSTROM
      4          2  C    CARTESIAN X    -1.483022      1.346439  KCAL/ANGSTROM
      5          2  C    CARTESIAN Y    -0.643688      5.455745  KCAL/ANGSTROM
      6          2  C    CARTESIAN Z    -0.219012     -1.411266  KCAL/ANGSTROM
      7          3  C    CARTESIAN X    -0.206313      0.918310  KCAL/ANGSTROM
      8          3  C    CARTESIAN Y    -1.493938     -3.528909  KCAL/ANGSTROM
      9          3  C    CARTESIAN Z    -0.389121     -0.214692  KCAL/ANGSTROM
     10          4  C    CARTESIAN X     0.865669      0.601914  KCAL/ANGSTROM
     11          4  C    CARTESIAN Y    -0.484713     -0.676454  KCAL/ANGSTROM
     12          4  C    CARTESIAN Z    -0.838101     -2.530528  KCAL/ANGSTROM
     13          5  C    CARTESIAN X     2.270153     -0.420487  KCAL/ANGSTROM
     14          5  C    CARTESIAN Y    -0.820750     -2.053336  KCAL/ANGSTROM
     15          5  C    CARTESIAN Z    -0.342443      3.384932  KCAL/ANGSTROM
     16          6  O    CARTESIAN X     2.399255     -1.102505  KCAL/ANGSTROM
     17          6  O    CARTESIAN Y    -0.883893      0.547133  KCAL/ANGSTROM
     18          6  O    CARTESIAN Z     1.060531     -0.866787  KCAL/ANGSTROM
     19          7  C    CARTESIAN X     0.295019     -4.187846  KCAL/ANGSTROM
     20          7  C    CARTESIAN Y     0.881384     -0.513039  KCAL/ANGSTROM
     21          7  C    CARTESIAN Z    -0.380785      0.231647  KCAL/ANGSTROM
     22          8  C    CARTESIAN X     0.729161      1.332348  KCAL/ANGSTROM
     23          8  C    CARTESIAN Y     1.355353     -0.807065  KCAL/ANGSTROM
     24          8  C    CARTESIAN Z     0.998919      0.411702  KCAL/ANGSTROM
     25          9  O    CARTESIAN X    -1.119226     -0.265173  KCAL/ANGSTROM
     26          9  O    CARTESIAN Y     0.721398     -1.147634  KCAL/ANGSTROM
     27          9  O    CARTESIAN Z    -0.394625     -0.414683  KCAL/ANGSTROM
     28         10  H    CARTESIAN X    -2.483695     -0.253098  KCAL/ANGSTROM
     29         10  H    CARTESIAN Y    -1.823307      0.953952  KCAL/ANGSTROM
     30         10  H    CARTESIAN Z     1.319433     -0.067555  KCAL/ANGSTROM
     31         11  H    CARTESIAN X    -3.001274      0.334891  KCAL/ANGSTROM
     32         11  H    CARTESIAN Y    -0.128698      1.029300  KCAL/ANGSTROM
     33         11  H    CARTESIAN Z     1.240016     -0.589924  KCAL/ANGSTROM
     34         12  H    CARTESIAN X    -1.446008     -0.482368  KCAL/ANGSTROM
     35         12  H    CARTESIAN Y    -0.528278      1.066941  KCAL/ANGSTROM
     36         12  H    CARTESIAN Z     1.956593     -0.708997  KCAL/ANGSTROM
     37         13  H    CARTESIAN X    -2.214106      0.269239  KCAL/ANGSTROM
     38         13  H    CARTESIAN Y    -0.821793      0.246077  KCAL/ANGSTROM
     39         13  H    CARTESIAN Z    -1.037814      0.424463  KCAL/ANGSTROM
     40         14  H    CARTESIAN X    -0.348005      0.081090  KCAL/ANGSTROM
     41         14  H    CARTESIAN Y    -2.292103      1.083244  KCAL/ANGSTROM
     42         14  H    CARTESIAN Z    -1.133527      0.373229  KCAL/ANGSTROM
     43         15  H    CARTESIAN X     0.068876     -0.285471  KCAL/ANGSTROM
     44         15  H    CARTESIAN Y    -2.001055      0.766791  KCAL/ANGSTROM
     45         15  H    CARTESIAN Z     0.549092     -0.845865  KCAL/ANGSTROM
     46         16  H    CARTESIAN X     0.901737     -0.779651  KCAL/ANGSTROM
     47         16  H    CARTESIAN Y    -0.476380      0.359178  KCAL/ANGSTROM
     48         16  H    CARTESIAN Z    -1.956593      1.269182  KCAL/ANGSTROM
     49         17  H    CARTESIAN X     2.610010      0.253668  KCAL/ANGSTROM
     50         17  H    CARTESIAN Y    -1.794533      0.496330  KCAL/ANGSTROM
     51         17  H    CARTESIAN Z    -0.746723     -0.016815  KCAL/ANGSTROM
     52         18  H    CARTESIAN X     3.001274      0.070758  KCAL/ANGSTROM
     53         18  H    CARTESIAN Y    -0.035024     -0.376947  KCAL/ANGSTROM
     54         18  H    CARTESIAN Z    -0.619809      0.741385  KCAL/ANGSTROM
     55         19  H    CARTESIAN X     1.618960      2.866595  KCAL/ANGSTROM
     56         19  H    CARTESIAN Y    -1.308247      1.108623  KCAL/ANGSTROM
     57         19  H    CARTESIAN Z     1.469386     -1.741503  KCAL/ANGSTROM
     58         20  H    CARTESIAN X     0.466086     -0.365906  KCAL/ANGSTROM
     59         20  H    CARTESIAN Y     1.674163     -0.264671  KCAL/ANGSTROM
     60         20  H    CARTESIAN Z    -1.142166      0.703848  KCAL/ANGSTROM
     61         21  H    CARTESIAN X     1.811821      0.053228  KCAL/ANGSTROM
     62         21  H    CARTESIAN Y     1.525316     -0.154093  KCAL/ANGSTROM
     63         21  H    CARTESIAN Z     1.046636      0.538597  KCAL/ANGSTROM
     64         22  H    CARTESIAN X     0.221040     -0.460221  KCAL/ANGSTROM
     65         22  H    CARTESIAN Y     2.292103     -0.202660  KCAL/ANGSTROM
     66         22  H    CARTESIAN Z     1.259687     -0.555507  KCAL/ANGSTROM
     67         23  H    CARTESIAN X     0.482561      0.506832  KCAL/ANGSTROM
     68         23  H    CARTESIAN Y     0.627028      0.865874  KCAL/ANGSTROM
     69         23  H    CARTESIAN Z     1.778475     -0.171623  KCAL/ANGSTROM




   ATOM   CHEMICAL          X               Y               Z
  NUMBER   SYMBOL      (ANGSTROMS)     (ANGSTROMS)     (ANGSTROMS)

     1       C         -2.13613241  *  -0.80032802  *   1.15007458  *
     2       C         -1.48302250  *  -0.64368805  *  -0.21901209  *
     3       C         -0.20631270  *  -1.49393762  *  -0.38912107  *
     4       C          0.86566906  *  -0.48471343  *  -0.83810149  *
     5       C          2.27015292  *  -0.82075024  *  -0.34244292  *
     6       O          2.39925513  *  -0.88389340  *   1.06053116  *
     7       C          0.29501859  *   0.88138387  *  -0.38078493  *
     8       C          0.72916119  *   1.35535265  *   0.99891917  *
     9       O         -1.11922566  *   0.72139804  *  -0.39462523  *
    10       H         -2.48369515  *  -1.82330695  *   1.31943307  *
    11       H         -3.00127437  *  -0.12869757  *   1.24001605  *
    12       H         -1.44600770  *  -0.52827799  *   1.95659269  *
    13       H         -2.21410611  *  -0.82179263  *  -1.03781353  *
    14       H         -0.34800520  *  -2.29210286  *  -1.13352708  *
    15       H          0.06887572  *  -2.00105523  *   0.54909186  *
    16       H          0.90173659  *  -0.47637978  *  -1.95659269  *
    17       H          2.61000983  *  -1.79453282  *  -0.74672345  *
    18       H          3.00127437  *  -0.03502394  *  -0.61980920  *
    19       H          1.61896026  *  -1.30824748  *   1.46938566  *
    20       H          0.46608559  *   1.67416314  *  -1.14216586  *
    21       H          1.81182127  *   1.52531644  *   1.04663589  *
    22       H          0.22103958  *   2.29210286  *   1.25968729  *
    23       H          0.48256145  *   0.62702766  *   1.77847528  *

                             CARTESIAN COORDINATES

   1    C       -2.136132412    -0.800328022     1.150074577
   2    C       -1.483022497    -0.643688045    -0.219012093
   3    C       -0.206312695    -1.493937618    -0.389121069
   4    C        0.865669058    -0.484713434    -0.838101495
   5    C        2.270152923    -0.820750241    -0.342442917
   6    O        2.399255132    -0.883893397     1.060531164
   7    C        0.295018587     0.881383866    -0.380784933
   8    C        0.729161194     1.355352654     0.998919172
   9    O       -1.119225662     0.721398045    -0.394625232
  10    H       -2.483695149    -1.823306950     1.319433069
  11    H       -3.001274374    -0.128697567     1.240016048
  12    H       -1.446007701    -0.528277991     1.956592687
  13    H       -2.214106111    -0.821792626    -1.037813528
  14    H       -0.348005202    -2.292102863    -1.133527084
  15    H        0.068875720    -2.001055232     0.549091863
  16    H        0.901736586    -0.476379779    -1.956592687
  17    H        2.610009831    -1.794532815    -0.746723447
  18    H        3.001274374    -0.035023942    -0.619809204
  19    H        1.618960258    -1.308247484     1.469385655
  20    H        0.466085593     1.674163144    -1.142165856
  21    H        1.811821265     1.525316436     1.046635893
  22    H        0.221039579     2.292102863     1.259687291
  23    H        0.482561453     0.627027661     1.778475283


           Empirical Formula: C7 H14 O2  =    23 atoms



      MOLECULAR POINT GROUP   :   C1  


                  EIGENVALUES  
 -31.20373 -29.41375 -27.26013 -26.96789 -25.40722 -23.76699 -21.75891 -20.26476
 -19.53179 -17.59826 -16.88889 -16.03259 -15.39262 -15.11254 -14.67614 -14.38554
 -13.68057 -13.46746 -13.42709 -13.02035 -12.69350 -12.10623 -11.84489 -11.58013
 -11.40066 -10.67492 -10.15786   2.25564   2.80352   3.24170   3.78296   4.04627
   4.19134   4.35412   4.50574   4.74690   5.30938   5.47691   5.63006   5.65347
   5.72698   5.85054   5.93586   5.97544   6.00991   6.11077   6.16299   6.56628
   6.97135   7.16449


              NET ATOMIC CHARGES AND DIPOLE CONTRIBUTIONS

  ATOM NO.   TYPE          CHARGE      No. of ELECS.   s-Pop       p-Pop       
    1          C          -0.499428        4.4994     1.06088     3.43854
    2          C           0.163118        3.8369     1.08913     2.74776
    3          C          -0.336792        4.3368     1.07390     3.26289
    4          C          -0.213557        4.2136     1.08152     3.13204
    5          C           0.010270        3.9897     1.08649     2.90324
    6          O          -0.619897        6.6199     1.84235     4.77755
    7          C           0.159202        3.8408     1.09187     2.74893
    8          C          -0.489284        4.4893     1.05893     3.43036
    9          O          -0.510189        6.5102     1.87632     4.63387
   10          H           0.161723        0.8383     0.83828
   11          H           0.160132        0.8399     0.83987
   12          H           0.161111        0.8389     0.83889
   13          H           0.131528        0.8685     0.86847
   14          H           0.159203        0.8408     0.84080
   15          H           0.155533        0.8445     0.84447
   16          H           0.164434        0.8356     0.83557
   17          H           0.131180        0.8688     0.86882
   18          H           0.148735        0.8513     0.85127
   19          H           0.349996        0.6500     0.65000
   20          H           0.134209        0.8658     0.86579
   21          H           0.165358        0.8346     0.83464
   22          H           0.154186        0.8458     0.84581
   23          H           0.159229        0.8408     0.84077
 DIPOLE           X         Y         Z       TOTAL
 POINT-CHG.     0.156    -2.313    -1.507     2.765
 HYBRID        -0.360    -0.068     0.608     0.710
 SUM           -0.204    -2.381    -0.899     2.553


          ATOMIC ORBITAL ELECTRON POPULATIONS

     Atom    s        px        py        pz   
    1  C   1.06088   1.16861   1.18113   1.08881
    2  C   1.08913   0.97511   0.76604   1.00660
    3  C   1.07390   1.01981   1.07217   1.17091
    4  C   1.08152   0.99613   1.00790   1.12801
    5  C   1.08649   1.01368   1.13318   0.75637
    6  O   1.84235   1.57422   1.88031   1.32302
    7  C   1.09187   0.75300   0.99364   1.00230
    8  C   1.05893   1.17246   1.17294   1.08496
    9  O   1.87632   1.32423   1.36105   1.94859
   10  H   0.83828
   11  H   0.83987
   12  H   0.83889
   13  H   0.86847
   14  H   0.84080
   15  H   0.84447
   16  H   0.83557
   17  H   0.86882
   18  H   0.85127
   19  H   0.65000
   20  H   0.86579
   21  H   0.83464
   22  H   0.84581
   23  H   0.84077

 **********************
 *                    *
 * JOB ENDED NORMALLY *
 *                    *
 **********************



 TOTAL JOB TIME:             1.40 SECONDS

 == MOPAC DONE ==
