 *******************************************************************************
 **                                                                           **
 **                              MOPAC v23.2                                  **
 **                                                                           **
 *******************************************************************************
 **          Digital Object Identifier (DOI): 10.5281/zenodo.6511958          **
 **    Visit the DOI location for information on how to cite this program.    **
 *******************************************************************************

                              PM7 CALCULATION RESULTS

 *******************************************************************************
 *  CALCULATION DONE: (MAX THREADS = 40)             Fri Sep 19 22:00:20 2025  *
 *  PM7        - The PM7 Hamiltonian to be used
 *
 *
 *
 *                 CHARGE ON SYSTEM = +1
 *
 *
 *
 *  1SCF       - DO 1 SCF AND THEN STOP 
 *  T=         - A TIME OF 172800.0 SECONDS REQUESTED
 *  DUMP=N     - RESTART FILE WRITTEN EVERY 7200.0 SECONDS REQUESTED
 *  RELSCF     - DEFAULT SCF CRITERION MULTIPLIED BY 0.0001
 *              (DEFAULT SCF CRITERION = 0.00010)
 *  GRADIENTS  - ALL GRADIENTS TO BE PRINTED
 *  DISP       - PRINT DISPERSION AND HYDROGEN BOND ENERGIES
 *******************************************************************************
PM7 1SCF GRADIENTS DISP RELSCF=0.0001 CHARGE=1
 Title: ASE calculation

   ATOM   CHEMICAL          X               Y               Z
  NUMBER   SYMBOL      (ANGSTROMS)     (ANGSTROMS)     (ANGSTROMS)

     1       C         -1.21610055  *  -1.14964923  *  -0.55120774  *
     2       N         -0.36425698  *   0.00271387  *  -0.58991124  *
     3       C         -0.87363538  *   1.21170633  *  -1.16742386  *
     4       C          0.98116495  *  -0.06000409  *  -0.07201950  *
     5       C          1.16909919  *  -1.05880391  *   1.10845400  *
     6       O          0.22947786  *  -1.61961553  *   1.58304320  *
     7       C          1.53456059  *   1.29548749  *   0.45668494  *
     8       O          0.82299356  *   2.24899174  *   0.54305552  *
     9       H         -2.02671464  *  -1.11899792  *  -1.31141315  *
    10       H         -1.72413182  *  -1.23418804  *   0.45302102  *
    11       H         -0.66744966  *  -2.10880861  *  -0.68055504  *
    12       H         -1.73347070  *   1.04145649  *  -1.85166999  *
    13       H         -0.10532761  *   1.78972815  *  -1.72817217  *
    14       H         -1.24127850  *   1.91329593  *  -0.36322431  *
    15       H          1.66157989  *  -0.40022587  *  -0.91812677  *
    16       H          2.20650365  *  -1.18532465  *   1.44335529  *
    17       H          2.59656682  *   1.28164486  *   0.73331256  *



          CARTESIAN COORDINATES 

    NO.       ATOM           X           Y           Z

     1         C         -1.2161     -1.1496     -0.5512
     2         N         -0.3643      0.0027     -0.5899
     3         C         -0.8736      1.2117     -1.1674
     4         C          0.9812     -0.0600     -0.0720
     5         C          1.1691     -1.0588      1.1085
     6         O          0.2295     -1.6196      1.5830
     7         C          1.5346      1.2955      0.4567
     8         O          0.8230      2.2490      0.5431
     9         H         -2.0267     -1.1190     -1.3114
    10         H         -1.7241     -1.2342      0.4530
    11         H         -0.6674     -2.1088     -0.6806
    12         H         -1.7335      1.0415     -1.8517
    13         H         -0.1053      1.7897     -1.7282
    14         H         -1.2413      1.9133     -0.3632
    15         H          1.6616     -0.4002     -0.9181
    16         H          2.2065     -1.1853      1.4434
    17         H          2.5966      1.2816      0.7333

 General Reference for PM7:
 "Optimization of Parameters for Semiempirical Methods VI: More Modifications to the 
 NDDO Approximations and Re-optimization of Parameters", J. J. P. Stewart, J. Mol. Mod., 1:32, 19 (2013)
 https://link.springer.com/article/10.1007/s00894-012-1667-x

           Empirical Formula: C5 H9 N O2  =    17 atoms



      MOLECULAR POINT GROUP   :   Cs  


          UHF CALCULATION, NO. OF ALPHA ELECTRONS =   23
                           NO. OF BETA  ELECTRONS =   22
  SCF CRITERION =    0.1000E-07

 -------------------------------------------------------------------------------
 PM7 1SCF GRADIENTS DISP RELSCF=0.0001 CHARGE=1
 Title: ASE calculation



     1SCF WAS SPECIFIED, SO BFGS WAS NOT USED                 
     SCF FIELD WAS ACHIEVED                                   


                              PM7 CALCULATION
                                                       MOPAC v23.2 Linux
                                                       Fri Sep 19 22:00:21 2025




          FINAL HEAT OF FORMATION =        120.74851 KCAL/MOL =     505.21175 KJ/MOL

          TOTAL ENERGY            =     -34677.87049 KCAL/MOL = ELECTRONIC ENERGY + CORE-CORE REPULSION
          ENERGY OF ATOMS         =      34800.19765 KCAL/MOL
                              SUM =        122.32716 KCAL/MOL
          DISPERSION ENERGY       =         -1.57865 KCAL/MOL
                              SUM =        120.74851 KCAL/MOL = FINAL HEAT OF FORMATION



          TOTAL ENERGY            =      -1503.77479 EV
          ELECTRONIC ENERGY       =      -6646.03057 EV 
          CORE-CORE REPULSION     =       5142.25578 EV
          COSMO AREA              =        149.17 SQUARE ANGSTROMS
          COSMO VOLUME            =        145.94 CUBIC ANGSTROMS

          GRADIENT NORM           =          1.03524          =       0.25108 PER ATOM
          IONIZATION POTENTIAL    =         15.038895 EV
          ALPHA SOMO LUMO (EV)    =        -15.083 -4.601
          BETA  SOMO LUMO (EV)    =        -15.039 -6.252
          NO. OF ALPHA ELECTRONS  =         23
          NO. OF BETA  ELECTRONS  =         22
          MOLECULAR WEIGHT        =        115.1316         POINT GROUP:  Cs  

          MOLECULAR DIMENSIONS (Angstroms)

            Atom       Atom       Distance
            H    16    H    12     5.59814
            H    11    O     8     4.76527
            H    10    H    15     3.21849


          SCF CALCULATIONS        =          1

          WALL-CLOCK TIME         =      0.734 SECONDS
          COMPUTATION TIME        =      0.902 SECONDS

          LARGEST ATOMIC GRADIENTS

          Atom     Label                     Cartesian Gradients           Cartesian Coordinates       |Gradient|
                                           X          Y          Z        X          Y          Z

             5       C                  -0.264      0.041      0.348    1.16910   -1.05880    1.10845      0.439
             6       O                   0.299      0.023     -0.285    0.22948   -1.61962    1.58304      0.413
             8       O                   0.208     -0.251     -0.105    0.82299    2.24899    0.54306      0.342
             7       C                  -0.148      0.179      0.205    1.53456    1.29549    0.45668      0.309
            11       H                  -0.073      0.266      0.110   -0.66745   -2.10881   -0.68056      0.297
            15       H                   0.257      0.064      0.120    1.66158   -0.40023   -0.91813      0.291
            17       H                  -0.124     -0.127     -0.210    2.59657    1.28164    0.73331      0.275
            16       H                  -0.125     -0.041     -0.197    2.20650   -1.18532    1.44336      0.237
            12       H                  -0.067      0.159     -0.145   -1.73347    1.04146   -1.85167      0.226
            14       H                  -0.081      0.122      0.115   -1.24128    1.91330   -0.36322      0.186



       FINAL  POINT  AND  DERIVATIVES

   PARAMETER     ATOM    TYPE            VALUE        GRADIENT
      1          1  C    CARTESIAN X    -1.216101      0.001458  KCAL/ANGSTROM
      2          1  C    CARTESIAN Y    -1.149649     -0.021768  KCAL/ANGSTROM
      3          1  C    CARTESIAN Z    -0.551208     -0.097569  KCAL/ANGSTROM
      4          2  N    CARTESIAN X    -0.364257      0.041842  KCAL/ANGSTROM
      5          2  N    CARTESIAN Y     0.002714     -0.063315  KCAL/ANGSTROM
      6          2  N    CARTESIAN Z    -0.589911      0.005052  KCAL/ANGSTROM
      7          3  C    CARTESIAN X    -0.873635      0.000950  KCAL/ANGSTROM
      8          3  C    CARTESIAN Y     1.211706     -0.148137  KCAL/ANGSTROM
      9          3  C    CARTESIAN Z    -1.167424     -0.096410  KCAL/ANGSTROM
     10          4  C    CARTESIAN X     0.981165      0.103974  KCAL/ANGSTROM
     11          4  C    CARTESIAN Y    -0.060004     -0.013283  KCAL/ANGSTROM
     12          4  C    CARTESIAN Z    -0.072019      0.069309  KCAL/ANGSTROM
     13          5  C    CARTESIAN X     1.169099     -0.263869  KCAL/ANGSTROM
     14          5  C    CARTESIAN Y    -1.058804      0.041286  KCAL/ANGSTROM
     15          5  C    CARTESIAN Z     1.108454      0.348426  KCAL/ANGSTROM
     16          6  O    CARTESIAN X     0.229478      0.298594  KCAL/ANGSTROM
     17          6  O    CARTESIAN Y    -1.619616      0.023293  KCAL/ANGSTROM
     18          6  O    CARTESIAN Z     1.583043     -0.284725  KCAL/ANGSTROM
     19          7  C    CARTESIAN X     1.534561     -0.147992  KCAL/ANGSTROM
     20          7  C    CARTESIAN Y     1.295487      0.178713  KCAL/ANGSTROM
     21          7  C    CARTESIAN Z     0.456685      0.204505  KCAL/ANGSTROM
     22          8  O    CARTESIAN X     0.822994      0.208011  KCAL/ANGSTROM
     23          8  O    CARTESIAN Y     2.248992     -0.250592  KCAL/ANGSTROM
     24          8  O    CARTESIAN Z     0.543056     -0.105369  KCAL/ANGSTROM
     25          9  H    CARTESIAN X    -2.026715      0.069944  KCAL/ANGSTROM
     26          9  H    CARTESIAN Y    -1.118998     -0.130594  KCAL/ANGSTROM
     27          9  H    CARTESIAN Z    -1.311413      0.057381  KCAL/ANGSTROM
     28         10  H    CARTESIAN X    -1.724132     -0.021431  KCAL/ANGSTROM
     29         10  H    CARTESIAN Y    -1.234188      0.003778  KCAL/ANGSTROM
     30         10  H    CARTESIAN Z     0.453021      0.065819  KCAL/ANGSTROM
     31         11  H    CARTESIAN X    -0.667450     -0.072672  KCAL/ANGSTROM
     32         11  H    CARTESIAN Y    -2.108809      0.266461  KCAL/ANGSTROM
     33         11  H    CARTESIAN Z    -0.680555      0.110145  KCAL/ANGSTROM
     34         12  H    CARTESIAN X    -1.733471     -0.067203  KCAL/ANGSTROM
     35         12  H    CARTESIAN Y     1.041456      0.159282  KCAL/ANGSTROM
     36         12  H    CARTESIAN Z    -1.851670     -0.144962  KCAL/ANGSTROM
     37         13  H    CARTESIAN X    -0.105328     -0.079236  KCAL/ANGSTROM
     38         13  H    CARTESIAN Y     1.789728     -0.063368  KCAL/ANGSTROM
     39         13  H    CARTESIAN Z    -1.728172      0.040814  KCAL/ANGSTROM
     40         14  H    CARTESIAN X    -1.241279     -0.080798  KCAL/ANGSTROM
     41         14  H    CARTESIAN Y     1.913296      0.121793  KCAL/ANGSTROM
     42         14  H    CARTESIAN Z    -0.363224      0.114575  KCAL/ANGSTROM
     43         15  H    CARTESIAN X     1.661580      0.257479  KCAL/ANGSTROM
     44         15  H    CARTESIAN Y    -0.400226      0.064335  KCAL/ANGSTROM
     45         15  H    CARTESIAN Z    -0.918127      0.120304  KCAL/ANGSTROM
     46         16  H    CARTESIAN X     2.206504     -0.124643  KCAL/ANGSTROM
     47         16  H    CARTESIAN Y    -1.185325     -0.040735  KCAL/ANGSTROM
     48         16  H    CARTESIAN Z     1.443355     -0.197079  KCAL/ANGSTROM
     49         17  H    CARTESIAN X     2.596567     -0.124408  KCAL/ANGSTROM
     50         17  H    CARTESIAN Y     1.281645     -0.127150  KCAL/ANGSTROM
     51         17  H    CARTESIAN Z     0.733313     -0.210219  KCAL/ANGSTROM




   ATOM   CHEMICAL          X               Y               Z
  NUMBER   SYMBOL      (ANGSTROMS)     (ANGSTROMS)     (ANGSTROMS)

     1       C         -1.21610055  *  -1.14964923  *  -0.55120774  *
     2       N         -0.36425698  *   0.00271387  *  -0.58991124  *
     3       C         -0.87363538  *   1.21170633  *  -1.16742386  *
     4       C          0.98116495  *  -0.06000409  *  -0.07201950  *
     5       C          1.16909919  *  -1.05880391  *   1.10845400  *
     6       O          0.22947786  *  -1.61961553  *   1.58304320  *
     7       C          1.53456059  *   1.29548749  *   0.45668494  *
     8       O          0.82299356  *   2.24899174  *   0.54305552  *
     9       H         -2.02671464  *  -1.11899792  *  -1.31141315  *
    10       H         -1.72413182  *  -1.23418804  *   0.45302102  *
    11       H         -0.66744966  *  -2.10880861  *  -0.68055504  *
    12       H         -1.73347070  *   1.04145649  *  -1.85166999  *
    13       H         -0.10532761  *   1.78972815  *  -1.72817217  *
    14       H         -1.24127850  *   1.91329593  *  -0.36322431  *
    15       H          1.66157989  *  -0.40022587  *  -0.91812677  *
    16       H          2.20650365  *  -1.18532465  *   1.44335529  *
    17       H          2.59656682  *   1.28164486  *   0.73331256  *

                             CARTESIAN COORDINATES

   1    C       -1.216100545    -1.149649234    -0.551207743
   2    N       -0.364256985     0.002713872    -0.589911236
   3    C       -0.873635376     1.211706330    -1.167423856
   4    C        0.981164951    -0.060004091    -0.072019498
   5    C        1.169099194    -1.058803908     1.108454004
   6    O        0.229477864    -1.619615531     1.583043203
   7    C        1.534560594     1.295487487     0.456684944
   8    O        0.822993558     2.248991743     0.543055520
   9    H       -2.026714644    -1.118997917    -1.311413154
  10    H       -1.724131815    -1.234188042     0.453021018
  11    H       -0.667449658    -2.108808605    -0.680555040
  12    H       -1.733470705     1.041456491    -1.851669988
  13    H       -0.105327615     1.789728153    -1.728172170
  14    H       -1.241278501     1.913295930    -0.363224311
  15    H        1.661579894    -0.400225865    -0.918126771
  16    H        2.206503652    -1.185324654     1.443355293
  17    H        2.596566822     1.281644861     0.733312555


           Empirical Formula: C5 H9 N O2  =    17 atoms



      MOLECULAR POINT GROUP   :   Cs  


          ALPHA EIGENVALUES  
 -42.87379 -36.52899 -36.49469 -32.38684 -30.83928 -28.68131 -26.76637 -25.41224
 -23.35771 -22.55002 -21.95312 -20.77247 -20.72973 -19.86208 -19.49523 -19.11942
 -19.00818 -18.58674 -18.27920 -18.24490 -16.33405 -15.16448 -15.08262  -4.60145
  -4.49616  -4.20186  -2.74559  -2.30147  -1.66296  -1.16728  -0.64013  -0.20199
  -0.15023   0.02749   0.08094   0.16146   0.24972   0.26037   0.32324   0.97901
   1.10658


           BETA EIGENVALUES 
 -41.28120 -36.46382 -36.45236 -32.27161 -30.62336 -28.34559 -26.75042 -25.11625
 -22.55002 -22.38329 -21.77191 -20.61276 -20.27480 -19.71172 -19.47255 -19.01824
 -18.83603 -18.38437 -18.23610 -18.11467 -15.54414 -15.03890  -6.25165  -4.57430
  -4.17993  -3.83595  -2.73197  -2.24003  -1.29134  -0.74728  -0.54400  -0.19216
  -0.12930   0.11216   0.21983   0.27117   0.27282   0.31548   0.41257   1.03381
   1.16322


              NET ATOMIC CHARGES AND DIPOLE CONTRIBUTIONS

  ATOM NO.   TYPE          CHARGE      No. of ELECS.   s-Pop       p-Pop       
    1          C          -0.337245        4.3372     1.07236     3.26488
    2          N           0.079042        4.9210     1.52035     3.40060
    3          C          -0.337582        4.3376     1.07238     3.26520
    4          C          -0.318236        4.3182     1.12318     3.19506
    5          C           0.333699        3.6663     1.15944     2.50686
    6          O          -0.323873        6.3239     1.87641     4.44746
    7          C           0.332634        3.6674     1.15919     2.50818
    8          O          -0.323982        6.3240     1.87647     4.44751
    9          H           0.205487        0.7945     0.79451
   10          H           0.244021        0.7560     0.75598
   11          H           0.210255        0.7897     0.78974
   12          H           0.205321        0.7947     0.79468
   13          H           0.210794        0.7892     0.78921
   14          H           0.244235        0.7558     0.75577
   15          H           0.232525        0.7675     0.76748
   16          H           0.171572        0.8284     0.82843
   17          H           0.171333        0.8287     0.82867
 DIPOLE           X         Y         Z       TOTAL
 POINT-CHG.     1.034    -1.124    -3.598     3.909
 HYBRID        -0.617     0.030    -0.221     0.656
 SUM            0.417    -1.094    -3.819     3.995


          ATOMIC ORBITAL ELECTRON POPULATIONS

     Atom    s        px        py        pz   
    1  C   1.07236   1.07795   0.96233   1.22461
    2  N   1.52035   1.10569   1.12800   1.16692
    3  C   1.07238   1.17384   0.93542   1.15594
    4  C   1.12318   0.88835   1.17296   1.13375
    5  C   1.15944   0.97202   0.75214   0.78270
    6  O   1.87641   1.49407   1.41934   1.53405
    7  C   1.15919   0.96984   0.81222   0.72612
    8  O   1.87647   1.63280   1.41999   1.39472
    9  H   0.79451
   10  H   0.75598
   11  H   0.78974
   12  H   0.79468
   13  H   0.78921
   14  H   0.75577
   15  H   0.76748
   16  H   0.82843
   17  H   0.82867


                    (SZ)    =    0.500000
                    (S**2)  =    0.759473


          ATOMIC ORBITAL SPIN POPULATIONS

    Atom   Total    s     px     py     pz   
         Atomic
    1  C -0.0439 -0.007 -0.016 -0.027  0.006
    2  N  0.9215  0.043  0.137  0.104  0.637
    3  C -0.0439 -0.007 -0.008 -0.032  0.003
    4  C -0.0634 -0.008 -0.041 -0.008 -0.006
    5  C  0.0096  0.001  0.001  0.004  0.004
    6  O  0.0102  0.000  0.002  0.008 -0.000
    7  C  0.0086  0.001  0.003  0.005 -0.001
    8  O  0.0095  0.000  0.005  0.006 -0.001
    9  H  0.0088  0.009
   10  H  0.0489  0.049
   11  H  0.0171  0.017
   12  H  0.0079  0.008
   13  H  0.0185  0.018
   14  H  0.0485  0.049
   15  H  0.0384  0.038
   16  H  0.0020  0.002
   17  H  0.0016  0.002

 **********************
 *                    *
 * JOB ENDED NORMALLY *
 *                    *
 **********************



 TOTAL JOB TIME:             1.01 SECONDS

 == MOPAC DONE ==
