 *******************************************************************************
 **                                                                           **
 **                              MOPAC v23.2                                  **
 **                                                                           **
 *******************************************************************************
 **          Digital Object Identifier (DOI): 10.5281/zenodo.6511958          **
 **    Visit the DOI location for information on how to cite this program.    **
 *******************************************************************************

                              PM7 CALCULATION RESULTS

 *******************************************************************************
 *  CALCULATION DONE: (MAX THREADS = 40)             Fri Sep 19 21:33:12 2025  *
 *  PM7        - The PM7 Hamiltonian to be used
 *
 *
 *
 *                 CHARGE ON SYSTEM = +1
 *
 *
 *
 *  1SCF       - DO 1 SCF AND THEN STOP 
 *  T=         - A TIME OF 172800.0 SECONDS REQUESTED
 *  DUMP=N     - RESTART FILE WRITTEN EVERY 7200.0 SECONDS REQUESTED
 *  RELSCF     - DEFAULT SCF CRITERION MULTIPLIED BY 0.0001
 *              (DEFAULT SCF CRITERION = 0.00010)
 *  GRADIENTS  - ALL GRADIENTS TO BE PRINTED
 *  DISP       - PRINT DISPERSION AND HYDROGEN BOND ENERGIES
 *******************************************************************************
PM7 1SCF GRADIENTS DISP RELSCF=0.0001 CHARGE=1
 Title: ASE calculation

   ATOM   CHEMICAL          X               Y               Z
  NUMBER   SYMBOL      (ANGSTROMS)     (ANGSTROMS)     (ANGSTROMS)

     1       C         -2.05974091  *  -1.99606454  *  -0.39966491  *
     2       C         -1.42698487  *  -0.84591039  *   0.36652652  *
     3       C         -0.03323869  *  -0.53468042  *  -0.11694759  *
     4       C          0.98318108  *  -1.64254149  *  -0.02693136  *
     5       C          2.42488056  *  -1.19300771  *  -0.16751217  *
     6       O         -0.06733285  *   0.13509523  *  -1.43412111  *
     7       C          0.40452217  *   0.89437005  *  -0.29262837  *
     8       C         -0.39689475  *   2.02099220  *   0.06451542  *
     9       N         -1.02272572  *   2.94009929  *   0.37716360  *
    10       H         -1.52888696  *  -2.94866947  *  -0.26781570  *
    11       H         -2.14507389  *  -1.80182671  *  -1.47575776  *
    12       H         -3.09127262  *  -2.18261053  *  -0.04342554  *
    13       H         -2.09369938  *   0.04765256  *   0.32657063  *
    14       H         -1.37865997  *  -1.09360024  *   1.46054648  *
    15       H          0.74470461  *  -2.42892971  *  -0.78844965  *
    16       H          0.85097329  *  -2.17385400  *   0.95379639  *
    17       H          2.74492481  *  -0.50818578  *   0.63159240  *
    18       H          3.10944476  *  -2.06192899  *  -0.07835682  *
    19       H          2.65979178  *  -0.74925141  *  -1.14198440  *
    20       H          1.51013702  *   1.12528261  *  -0.33834343  *



          CARTESIAN COORDINATES 

    NO.       ATOM           X           Y           Z

     1         C         -2.0597     -1.9961     -0.3997
     2         C         -1.4270     -0.8459      0.3665
     3         C         -0.0332     -0.5347     -0.1169
     4         C          0.9832     -1.6425     -0.0269
     5         C          2.4249     -1.1930     -0.1675
     6         O         -0.0673      0.1351     -1.4341
     7         C          0.4045      0.8944     -0.2926
     8         C         -0.3969      2.0210      0.0645
     9         N         -1.0227      2.9401      0.3772
    10         H         -1.5289     -2.9487     -0.2678
    11         H         -2.1451     -1.8018     -1.4758
    12         H         -3.0913     -2.1826     -0.0434
    13         H         -2.0937      0.0477      0.3266
    14         H         -1.3787     -1.0936      1.4605
    15         H          0.7447     -2.4289     -0.7884
    16         H          0.8510     -2.1739      0.9538
    17         H          2.7449     -0.5082      0.6316
    18         H          3.1094     -2.0619     -0.0784
    19         H          2.6598     -0.7493     -1.1420
    20         H          1.5101      1.1253     -0.3383

 General Reference for PM7:
 "Optimization of Parameters for Semiempirical Methods VI: More Modifications to the 
 NDDO Approximations and Re-optimization of Parameters", J. J. P. Stewart, J. Mol. Mod., 1:32, 19 (2013)
 https://link.springer.com/article/10.1007/s00894-012-1667-x

           Empirical Formula: C7 H11 N O  =    20 atoms



      MOLECULAR POINT GROUP   :   C1  


          UHF CALCULATION, NO. OF ALPHA ELECTRONS =   25
                           NO. OF BETA  ELECTRONS =   24
  SCF CRITERION =    0.1000E-07

 -------------------------------------------------------------------------------
 PM7 1SCF GRADIENTS DISP RELSCF=0.0001 CHARGE=1
 Title: ASE calculation



     1SCF WAS SPECIFIED, SO BFGS WAS NOT USED                 
     SCF FIELD WAS ACHIEVED                                   


                              PM7 CALCULATION
                                                       MOPAC v23.2 Linux
                                                       Fri Sep 19 21:33:14 2025




          FINAL HEAT OF FORMATION =        228.77722 KCAL/MOL =     957.20389 KJ/MOL

          TOTAL ENERGY            =     -34093.07604 KCAL/MOL = ELECTRONIC ENERGY + CORE-CORE REPULSION
          ENERGY OF ATOMS         =      34323.93363 KCAL/MOL
                              SUM =        230.85759 KCAL/MOL
          DISPERSION ENERGY       =         -2.08037 KCAL/MOL
                              SUM =        228.77722 KCAL/MOL = FINAL HEAT OF FORMATION



          TOTAL ENERGY            =      -1478.41570 EV
          ELECTRONIC ENERGY       =      -7271.98651 EV 
          CORE-CORE REPULSION     =       5793.57080 EV
          COSMO AREA              =        173.49 SQUARE ANGSTROMS
          COSMO VOLUME            =        172.99 CUBIC ANGSTROMS

          GRADIENT NORM           =          1.20570          =       0.26960 PER ATOM
          IONIZATION POTENTIAL    =         16.496139 EV
          ALPHA SOMO LUMO (EV)    =        -16.496 -5.944
          BETA  SOMO LUMO (EV)    =        -16.505 -9.112
          NO. OF ALPHA ELECTRONS  =         25
          NO. OF BETA  ELECTRONS  =         24
          MOLECULAR WEIGHT        =        125.1700         POINT GROUP:  C1  

          MOLECULAR DIMENSIONS (Angstroms)

            Atom       Atom       Distance
            H    18    N     9     6.50405
            H    12    H    20     5.66057
            H    14    H    11     2.97102


          SCF CALCULATIONS        =          1

          WALL-CLOCK TIME         =      2.242 SECONDS
          COMPUTATION TIME        =      1.589 SECONDS

          LARGEST ATOMIC GRADIENTS

          Atom     Label                     Cartesian Gradients           Cartesian Coordinates       |Gradient|
                                           X          Y          Z        X          Y          Z

             7       C                   0.077     -0.354      0.240    0.40452    0.89437   -0.29263      0.435
             8       C                  -0.106     -0.188     -0.374   -0.39689    2.02099    0.06452      0.432
             3       C                  -0.013     -0.289     -0.249   -0.03324   -0.53468   -0.11695      0.382
            11       H                   0.235      0.046      0.252   -2.14507   -1.80183   -1.47576      0.348
            16       H                  -0.248     -0.170      0.093    0.85097   -2.17385    0.95380      0.314
            19       H                  -0.106      0.265      0.103    2.65979   -0.74925   -1.14198      0.303
             9       N                  -0.163      0.196      0.163   -1.02273    2.94010    0.37716      0.303
            10       H                  -0.183      0.130     -0.203   -1.52889   -2.94867   -0.26782      0.302
            20       H                   0.092     -0.220     -0.155    1.51014    1.12528   -0.33834      0.284
            15       H                  -0.131      0.081     -0.198    0.74470   -2.42893   -0.78845      0.251



       FINAL  POINT  AND  DERIVATIVES

   PARAMETER     ATOM    TYPE            VALUE        GRADIENT
      1          1  C    CARTESIAN X    -2.059741     -0.013332  KCAL/ANGSTROM
      2          1  C    CARTESIAN Y    -1.996065      0.003539  KCAL/ANGSTROM
      3          1  C    CARTESIAN Z    -0.399665      0.041425  KCAL/ANGSTROM
      4          2  C    CARTESIAN X    -1.426985      0.076235  KCAL/ANGSTROM
      5          2  C    CARTESIAN Y    -0.845910     -0.025514  KCAL/ANGSTROM
      6          2  C    CARTESIAN Z     0.366527      0.052452  KCAL/ANGSTROM
      7          3  C    CARTESIAN X    -0.033239     -0.013292  KCAL/ANGSTROM
      8          3  C    CARTESIAN Y    -0.534680     -0.288950  KCAL/ANGSTROM
      9          3  C    CARTESIAN Z    -0.116948     -0.249299  KCAL/ANGSTROM
     10          4  C    CARTESIAN X     0.983181      0.059081  KCAL/ANGSTROM
     11          4  C    CARTESIAN Y    -1.642541     -0.176719  KCAL/ANGSTROM
     12          4  C    CARTESIAN Z    -0.026931      0.048026  KCAL/ANGSTROM
     13          5  C    CARTESIAN X     2.424881      0.098253  KCAL/ANGSTROM
     14          5  C    CARTESIAN Y    -1.193008      0.182185  KCAL/ANGSTROM
     15          5  C    CARTESIAN Z    -0.167512      0.029474  KCAL/ANGSTROM
     16          6  O    CARTESIAN X    -0.067333      0.186128  KCAL/ANGSTROM
     17          6  O    CARTESIAN Y     0.135095      0.041255  KCAL/ANGSTROM
     18          6  O    CARTESIAN Z    -1.434121      0.000807  KCAL/ANGSTROM
     19          7  C    CARTESIAN X     0.404522      0.076893  KCAL/ANGSTROM
     20          7  C    CARTESIAN Y     0.894370     -0.354340  KCAL/ANGSTROM
     21          7  C    CARTESIAN Z    -0.292628      0.240382  KCAL/ANGSTROM
     22          8  C    CARTESIAN X    -0.396895     -0.106471  KCAL/ANGSTROM
     23          8  C    CARTESIAN Y     2.020992     -0.188328  KCAL/ANGSTROM
     24          8  C    CARTESIAN Z     0.064515     -0.373745  KCAL/ANGSTROM
     25          9  N    CARTESIAN X    -1.022726     -0.162903  KCAL/ANGSTROM
     26          9  N    CARTESIAN Y     2.940099      0.196290  KCAL/ANGSTROM
     27          9  N    CARTESIAN Z     0.377164      0.162618  KCAL/ANGSTROM
     28         10  H    CARTESIAN X    -1.528887     -0.182913  KCAL/ANGSTROM
     29         10  H    CARTESIAN Y    -2.948669      0.130064  KCAL/ANGSTROM
     30         10  H    CARTESIAN Z    -0.267816     -0.202722  KCAL/ANGSTROM
     31         11  H    CARTESIAN X    -2.145074      0.235168  KCAL/ANGSTROM
     32         11  H    CARTESIAN Y    -1.801827      0.046286  KCAL/ANGSTROM
     33         11  H    CARTESIAN Z    -1.475758      0.251643  KCAL/ANGSTROM
     34         12  H    CARTESIAN X    -3.091273      0.180221  KCAL/ANGSTROM
     35         12  H    CARTESIAN Y    -2.182611      0.039556  KCAL/ANGSTROM
     36         12  H    CARTESIAN Z    -0.043426      0.085230  KCAL/ANGSTROM
     37         13  H    CARTESIAN X    -2.093699      0.050282  KCAL/ANGSTROM
     38         13  H    CARTESIAN Y     0.047653      0.109555  KCAL/ANGSTROM
     39         13  H    CARTESIAN Z     0.326571     -0.073011  KCAL/ANGSTROM
     40         14  H    CARTESIAN X    -1.378660     -0.029539  KCAL/ANGSTROM
     41         14  H    CARTESIAN Y    -1.093600      0.151889  KCAL/ANGSTROM
     42         14  H    CARTESIAN Z     1.460546      0.180530  KCAL/ANGSTROM
     43         15  H    CARTESIAN X     0.744705     -0.131233  KCAL/ANGSTROM
     44         15  H    CARTESIAN Y    -2.428930      0.080875  KCAL/ANGSTROM
     45         15  H    CARTESIAN Z    -0.788450     -0.197968  KCAL/ANGSTROM
     46         16  H    CARTESIAN X     0.850973     -0.247596  KCAL/ANGSTROM
     47         16  H    CARTESIAN Y    -2.173854     -0.170287  KCAL/ANGSTROM
     48         16  H    CARTESIAN Z     0.953796      0.092773  KCAL/ANGSTROM
     49         17  H    CARTESIAN X     2.744925      0.006360  KCAL/ANGSTROM
     50         17  H    CARTESIAN Y    -0.508186      0.022965  KCAL/ANGSTROM
     51         17  H    CARTESIAN Z     0.631592      0.076635  KCAL/ANGSTROM
     52         18  H    CARTESIAN X     3.109445     -0.067285  KCAL/ANGSTROM
     53         18  H    CARTESIAN Y    -2.061929      0.155056  KCAL/ANGSTROM
     54         18  H    CARTESIAN Z    -0.078357     -0.113644  KCAL/ANGSTROM
     55         19  H    CARTESIAN X     2.659792     -0.105877  KCAL/ANGSTROM
     56         19  H    CARTESIAN Y    -0.749251      0.264808  KCAL/ANGSTROM
     57         19  H    CARTESIAN Z    -1.141984      0.102906  KCAL/ANGSTROM
     58         20  H    CARTESIAN X     1.510137      0.091820  KCAL/ANGSTROM
     59         20  H    CARTESIAN Y     1.125283     -0.220187  KCAL/ANGSTROM
     60         20  H    CARTESIAN Z    -0.338343     -0.154517  KCAL/ANGSTROM




   ATOM   CHEMICAL          X               Y               Z
  NUMBER   SYMBOL      (ANGSTROMS)     (ANGSTROMS)     (ANGSTROMS)

     1       C         -2.05974091  *  -1.99606454  *  -0.39966491  *
     2       C         -1.42698487  *  -0.84591039  *   0.36652652  *
     3       C         -0.03323869  *  -0.53468042  *  -0.11694759  *
     4       C          0.98318108  *  -1.64254149  *  -0.02693136  *
     5       C          2.42488056  *  -1.19300771  *  -0.16751217  *
     6       O         -0.06733285  *   0.13509523  *  -1.43412111  *
     7       C          0.40452217  *   0.89437005  *  -0.29262837  *
     8       C         -0.39689475  *   2.02099220  *   0.06451542  *
     9       N         -1.02272572  *   2.94009929  *   0.37716360  *
    10       H         -1.52888696  *  -2.94866947  *  -0.26781570  *
    11       H         -2.14507389  *  -1.80182671  *  -1.47575776  *
    12       H         -3.09127262  *  -2.18261053  *  -0.04342554  *
    13       H         -2.09369938  *   0.04765256  *   0.32657063  *
    14       H         -1.37865997  *  -1.09360024  *   1.46054648  *
    15       H          0.74470461  *  -2.42892971  *  -0.78844965  *
    16       H          0.85097329  *  -2.17385400  *   0.95379639  *
    17       H          2.74492481  *  -0.50818578  *   0.63159240  *
    18       H          3.10944476  *  -2.06192899  *  -0.07835682  *
    19       H          2.65979178  *  -0.74925141  *  -1.14198440  *
    20       H          1.51013702  *   1.12528261  *  -0.33834343  *

                             CARTESIAN COORDINATES

   1    C       -2.059740906    -1.996064541    -0.399664906
   2    C       -1.426984873    -0.845910391     0.366526521
   3    C       -0.033238691    -0.534680416    -0.116947585
   4    C        0.983181079    -1.642541488    -0.026931356
   5    C        2.424880560    -1.193007707    -0.167512173
   6    O       -0.067332848     0.135095234    -1.434121107
   7    C        0.404522170     0.894370053    -0.292628368
   8    C       -0.396894754     2.020992205     0.064515420
   9    N       -1.022725722     2.940099286     0.377163600
  10    H       -1.528886965    -2.948669473    -0.267815697
  11    H       -2.145073888    -1.801826709    -1.475757763
  12    H       -3.091272617    -2.182610527    -0.043425541
  13    H       -2.093699382     0.047652559     0.326570634
  14    H       -1.378659974    -1.093600240     1.460546481
  15    H        0.744704610    -2.428929708    -0.788449655
  16    H        0.850973291    -2.173853999     0.953796388
  17    H        2.744924814    -0.508185776     0.631592400
  18    H        3.109444762    -2.061928995    -0.078356823
  19    H        2.659791777    -0.749251410    -1.141984396
  20    H        1.510137021     1.125282613    -0.338343433


           Empirical Formula: C7 H11 N O  =    20 atoms



      MOLECULAR POINT GROUP   :   C1  


          ALPHA EIGENVALUES  
 -41.55554 -39.46303 -34.78344 -32.05646 -31.78998 -28.49830 -26.41976 -25.97056
 -24.12633 -23.10982 -21.63936 -20.96968 -20.67003 -19.85758 -19.70420 -19.55449
 -18.41230 -18.28974 -18.16241 -17.99942 -17.54441 -17.03615 -16.91735 -16.83580
 -16.49614  -5.94429  -5.06759  -4.02192  -3.25109  -3.04489  -2.59672  -2.07784
  -1.93798  -1.01053  -0.68740  -0.56151   0.28329   0.31344   0.82845   1.05447
   1.19672   1.27740   1.31894   1.49110   1.53956   2.46035   2.67863


           BETA EIGENVALUES 
 -39.49028 -38.79774 -33.75245 -31.94417 -31.09305 -28.36537 -26.28470 -25.61581
 -23.49757 -22.57148 -21.37706 -20.87362 -20.16974 -19.66846 -19.38370 -18.40395
 -18.26599 -18.22693 -17.99272 -17.49278 -17.10973 -16.89539 -16.74393 -16.50513
  -9.11226  -5.31965  -4.82031  -3.96995  -3.21826  -3.04134  -2.50490  -2.05230
  -1.92350  -0.95760  -0.67584  -0.55232   0.28749   0.31980   0.82298   1.05953
   1.19840   1.28021   1.32140   1.49270   1.54119   2.46351   2.68011


              NET ATOMIC CHARGES AND DIPOLE CONTRIBUTIONS

  ATOM NO.   TYPE          CHARGE      No. of ELECS.   s-Pop       p-Pop       
    1          C          -0.442985        4.4430     1.05087     3.39211
    2          C          -0.298450        4.2984     1.06531     3.23314
    3          C           0.142870        3.8571     1.14210     2.71503
    4          C          -0.282650        4.2826     1.06413     3.21852
    5          C          -0.462534        4.4625     1.05207     3.41046
    6          O           0.285740        5.7143     1.94307     3.77119
    7          C          -0.075137        4.0751     1.10411     2.97102
    8          C          -0.010901        4.0109     1.08377     2.92713
    9          N           0.007739        4.9923     1.82543     3.16683
   10          H           0.169229        0.8308     0.83077
   11          H           0.162153        0.8378     0.83785
   12          H           0.195694        0.8043     0.80431
   13          H           0.186485        0.8135     0.81352
   14          H           0.211071        0.7889     0.78893
   15          H           0.199848        0.8002     0.80015
   16          H           0.210289        0.7897     0.78971
   17          H           0.170671        0.8293     0.82933
   18          H           0.201978        0.7980     0.79802
   19          H           0.159213        0.8408     0.84079
   20          H           0.269677        0.7303     0.73032
 DIPOLE           X         Y         Z       TOTAL
 POINT-CHG.     1.752    -2.710    -0.525     3.270
 HYBRID         0.252    -0.091    -0.753     0.800
 SUM            2.005    -2.801    -1.279     3.674


          ATOMIC ORBITAL ELECTRON POPULATIONS

     Atom    s        px        py        pz   
    1  C   1.05087   1.18425   1.06795   1.13991
    2  C   1.06531   0.94137   1.14282   1.14894
    3  C   1.14210   1.04608   0.93018   0.73877
    4  C   1.06413   0.97686   1.01701   1.22464
    5  C   1.05207   1.01093   1.21458   1.18495
    6  O   1.94307   1.15272   1.41530   1.20318
    7  C   1.10411   1.11465   0.97024   0.88613
    8  C   1.08377   0.97289   0.94193   1.01232
    9  N   1.82543   1.06009   1.12108   0.98566
   10  H   0.83077
   11  H   0.83785
   12  H   0.80431
   13  H   0.81352
   14  H   0.78893
   15  H   0.80015
   16  H   0.78971
   17  H   0.82933
   18  H   0.79802
   19  H   0.84079
   20  H   0.73032


                    (SZ)    =    0.500000
                    (S**2)  =    0.764486


          ATOMIC ORBITAL SPIN POPULATIONS

    Atom   Total    s     px     py     pz   
         Atomic
    1  C -0.0013 -0.000 -0.000 -0.001 -0.000
    2  C  0.0336  0.002  0.021  0.002  0.008
    3  C -0.0515 -0.004  0.004  0.006 -0.057
    4  C  0.0363  0.002  0.013  0.021 -0.000
    5  C  0.0021 -0.000  0.000  0.002 -0.000
    6  O  0.9918  0.012  0.756  0.124  0.099
    7  C -0.0597 -0.004  0.003 -0.001 -0.058
    8  C  0.0291  0.005  0.007  0.008  0.009
    9  N -0.0101  0.000 -0.005  0.006 -0.012
   10  H  0.0003  0.000
   11  H  0.0005  0.001
   12  H  0.0016  0.002
   13  H -0.0005 -0.000
   14  H -0.0002 -0.000
   15  H -0.0021 -0.002
   16  H -0.0028 -0.003
   17  H  0.0009  0.001
   18  H  0.0037  0.004
   19  H  0.0003  0.000
   20  H  0.0281  0.028

 **********************
 *                    *
 * JOB ENDED NORMALLY *
 *                    *
 **********************



 TOTAL JOB TIME:             2.61 SECONDS

 == MOPAC DONE ==
