 *******************************************************************************
 **                                                                           **
 **                              MOPAC v23.2                                  **
 **                                                                           **
 *******************************************************************************
 **          Digital Object Identifier (DOI): 10.5281/zenodo.6511958          **
 **    Visit the DOI location for information on how to cite this program.    **
 *******************************************************************************

                              PM7 CALCULATION RESULTS

 *******************************************************************************
 *  CALCULATION DONE: (MAX THREADS = 40)             Fri Sep 19 21:38:42 2025  *
 *  PM7        - The PM7 Hamiltonian to be used
 *
 *
 *
 *                 CHARGE ON SYSTEM = +1
 *
 *
 *
 *  EPS=37.5   - USE ANDREAS KLAMT'S COSMO IMPLICIT SOLVATION MODEL
 *  1SCF       - DO 1 SCF AND THEN STOP 
 *  T=         - A TIME OF 172800.0 SECONDS REQUESTED
 *  DUMP=N     - RESTART FILE WRITTEN EVERY 7200.0 SECONDS REQUESTED
 *  RELSCF     - DEFAULT SCF CRITERION MULTIPLIED BY 0.0001
 *              (DEFAULT SCF CRITERION = 0.00010)
 *  GRADIENTS  - ALL GRADIENTS TO BE PRINTED
 *  DISP       - PRINT DISPERSION AND HYDROGEN BOND ENERGIES
 *******************************************************************************
PM7 1SCF GRADIENTS EPS=37.5 DISP RELSCF=0.0001 CHARGE=1
 Title: ASE calculation

   ATOM   CHEMICAL          X               Y               Z
  NUMBER   SYMBOL      (ANGSTROMS)     (ANGSTROMS)     (ANGSTROMS)

     1       C         -2.14328379  *   0.54275857  *   1.30911958  *
     2       C         -1.58964543  *   0.84490838  *  -0.04429532  *
     3       C         -1.29700946  *  -0.27986807  *  -1.06959672  *
     4       N         -0.25114471  *   0.40550486  *  -0.38412210  *
     5       C          1.10991017  *   0.36877202  *  -0.04852663  *
     6       C          1.82150856  *  -1.01139684  *  -0.19320293  *
     7       C          2.17155460  *  -0.97757955  *   1.31585570  *
     8       C          1.43347858  *   0.37328981  *   1.48414926  *
     9       H         -1.92794361  *  -0.47363395  *   1.67072990  *
    10       H         -3.24934051  *   0.63893482  *   1.31037043  *
    11       H         -1.78524465  *   1.24812793  *   2.08021602  *
    12       H         -1.88554596  *   1.84681291  *  -0.43754316  *
    13       H         -1.48907668  *  -1.34189419  *  -0.83978500  *
    14       H         -1.44725457  *  -0.10661896  *  -2.15127396  *
    15       H          1.62887458  *   1.20296738  *  -0.60723421  *
    16       H          1.18321644  *  -1.84681291  *  -0.49687606  *
    17       H          2.69126249  *  -1.00203272  *  -0.86654196  *
    18       H          1.75951518  *  -1.80749997  *   1.90240252  *
    19       H          3.24934051  *  -0.93297686  *   1.52955784  *
    20       H          0.56746520  *   0.34655579  *   2.15127396  *
    21       H          2.07120893  *   1.21006437  *   1.80203927  *



          CARTESIAN COORDINATES 

    NO.       ATOM           X           Y           Z

     1         C         -2.1433      0.5428      1.3091
     2         C         -1.5896      0.8449     -0.0443
     3         C         -1.2970     -0.2799     -1.0696
     4         N         -0.2511      0.4055     -0.3841
     5         C          1.1099      0.3688     -0.0485
     6         C          1.8215     -1.0114     -0.1932
     7         C          2.1716     -0.9776      1.3159
     8         C          1.4335      0.3733      1.4841
     9         H         -1.9279     -0.4736      1.6707
    10         H         -3.2493      0.6389      1.3104
    11         H         -1.7852      1.2481      2.0802
    12         H         -1.8855      1.8468     -0.4375
    13         H         -1.4891     -1.3419     -0.8398
    14         H         -1.4473     -0.1066     -2.1513
    15         H          1.6289      1.2030     -0.6072
    16         H          1.1832     -1.8468     -0.4969
    17         H          2.6913     -1.0020     -0.8665
    18         H          1.7595     -1.8075      1.9024
    19         H          3.2493     -0.9330      1.5296
    20         H          0.5675      0.3466      2.1513
    21         H          2.0712      1.2101      1.8020

 General Reference for PM7:
 "Optimization of Parameters for Semiempirical Methods VI: More Modifications to the 
 NDDO Approximations and Re-optimization of Parameters", J. J. P. Stewart, J. Mol. Mod., 1:32, 19 (2013)
 https://link.springer.com/article/10.1007/s00894-012-1667-x

           Empirical Formula: C7 H13 N  =    21 atoms



      MOLECULAR POINT GROUP   :   C1  


          UHF CALCULATION, NO. OF ALPHA ELECTRONS =   23
                           NO. OF BETA  ELECTRONS =   22
  SCF CRITERION =    0.1000E-07

 -------------------------------------------------------------------------------
 PM7 1SCF GRADIENTS EPS=37.5 DISP RELSCF=0.0001 CHARGE=1
 Title: ASE calculation



     1SCF WAS SPECIFIED, SO BFGS WAS NOT USED                 
     SCF FIELD WAS ACHIEVED                                   


                              PM7 CALCULATION
                                                       MOPAC v23.2 Linux
                                                       Fri Sep 19 21:38:44 2025




          FINAL HEAT OF FORMATION =        166.03490 KCAL/MOL =     694.69000 KJ/MOL

          TOTAL ENERGY            =     -28002.06584 KCAL/MOL = ELECTRONIC ENERGY + CORE-CORE REPULSION + SOLVATION ENERGY
          ENERGY OF ATOMS         =      28170.10828 KCAL/MOL
                              SUM =        168.04244 KCAL/MOL
          DISPERSION ENERGY       =         -2.00755 KCAL/MOL
                              SUM =        166.03490 KCAL/MOL = FINAL HEAT OF FORMATION

          VAN DER WAALS AREA      =        164.48 SQUARE ANGSTROMS


          TOTAL ENERGY            =      -1214.28450 EV
          ELECTRONIC ENERGY       =      -1942.30350 EV 
          CORE-CORE REPULSION     =        728.01900 EV

          DIELECTRIC ENERGY       =         -2.14654 EV
          COSMO AREA              =        164.48 SQUARE ANGSTROMS
          COSMO VOLUME            =        163.77 CUBIC ANGSTROMS

          GRADIENT NORM           =          7.97986          =       1.74135 PER ATOM
          IONIZATION POTENTIAL    =         11.387521 EV
          ALPHA SOMO LUMO (EV)    =        -11.388 -0.334
          BETA  SOMO LUMO (EV)    =        -11.895 -2.148
          NO. OF ALPHA ELECTRONS  =         23
          NO. OF BETA  ELECTRONS  =         22
          MOLECULAR WEIGHT        =        111.1864         POINT GROUP:  C1  

          MOLECULAR DIMENSIONS (Angstroms)

            Atom       Atom       Distance
            H    19    H    10     6.68968
            H    14    H    21     4.38820
            H    18    H    15     3.73100


          SCF CALCULATIONS        =          2

          WALL-CLOCK TIME         =      2.141 SECONDS
          COMPUTATION TIME        =      0.736 SECONDS

          LARGEST ATOMIC GRADIENTS

          Atom     Label                     Cartesian Gradients           Cartesian Coordinates       |Gradient|
                                           X          Y          Z        X          Y          Z

             4       N                   2.332      1.844     -0.126   -0.25114    0.40550   -0.38412      2.975
             3       C                  -0.989     -1.473     -2.385   -1.29701   -0.27987   -1.06960      2.973
             1       C                   2.143     -0.223     -1.697   -2.14328    0.54276    1.30912      2.742
             7       C                  -2.181      0.941     -1.098    2.17155   -0.97758    1.31586      2.617
             5       C                   0.353      0.815     -1.618    1.10991    0.36877   -0.04853      1.845
            10       H                  -1.497      0.254      1.032   -3.24934    0.63893    1.31037      1.835
            17       H                   1.615     -0.751     -0.199    2.69126   -1.00203   -0.86654      1.792
            18       H                   0.873     -1.058      0.755    1.75952   -1.80750    1.90240      1.565
             8       C                  -1.298      0.547      0.664    1.43348    0.37329    1.48415      1.557
             6       C                  -1.190     -0.117     -0.878    1.82151   -1.01140   -0.19320      1.483



       FINAL  POINT  AND  DERIVATIVES

   PARAMETER     ATOM    TYPE            VALUE        GRADIENT
      1          1  C    CARTESIAN X    -2.143284      2.142729  KCAL/ANGSTROM
      2          1  C    CARTESIAN Y     0.542759     -0.223230  KCAL/ANGSTROM
      3          1  C    CARTESIAN Z     1.309120     -1.696879  KCAL/ANGSTROM
      4          2  C    CARTESIAN X    -1.589645     -1.053149  KCAL/ANGSTROM
      5          2  C    CARTESIAN Y     0.844908      0.811931  KCAL/ANGSTROM
      6          2  C    CARTESIAN Z    -0.044295      0.333493  KCAL/ANGSTROM
      7          3  C    CARTESIAN X    -1.297009     -0.989438  KCAL/ANGSTROM
      8          3  C    CARTESIAN Y    -0.279868     -1.472587  KCAL/ANGSTROM
      9          3  C    CARTESIAN Z    -1.069597     -2.385067  KCAL/ANGSTROM
     10          4  N    CARTESIAN X    -0.251145      2.331916  KCAL/ANGSTROM
     11          4  N    CARTESIAN Y     0.405505      1.843533  KCAL/ANGSTROM
     12          4  N    CARTESIAN Z    -0.384122     -0.125992  KCAL/ANGSTROM
     13          5  C    CARTESIAN X     1.109910      0.353206  KCAL/ANGSTROM
     14          5  C    CARTESIAN Y     0.368772      0.814710  KCAL/ANGSTROM
     15          5  C    CARTESIAN Z    -0.048527     -1.617528  KCAL/ANGSTROM
     16          6  C    CARTESIAN X     1.821509     -1.190096  KCAL/ANGSTROM
     17          6  C    CARTESIAN Y    -1.011397     -0.117004  KCAL/ANGSTROM
     18          6  C    CARTESIAN Z    -0.193203     -0.877903  KCAL/ANGSTROM
     19          7  C    CARTESIAN X     2.171555     -2.181032  KCAL/ANGSTROM
     20          7  C    CARTESIAN Y    -0.977580      0.940666  KCAL/ANGSTROM
     21          7  C    CARTESIAN Z     1.315856     -1.098159  KCAL/ANGSTROM
     22          8  C    CARTESIAN X     1.433479     -1.298137  KCAL/ANGSTROM
     23          8  C    CARTESIAN Y     0.373290      0.546787  KCAL/ANGSTROM
     24          8  C    CARTESIAN Z     1.484149      0.664230  KCAL/ANGSTROM
     25          9  H    CARTESIAN X    -1.927944     -0.925984  KCAL/ANGSTROM
     26          9  H    CARTESIAN Y    -0.473634      0.112013  KCAL/ANGSTROM
     27          9  H    CARTESIAN Z     1.670730      0.488095  KCAL/ANGSTROM
     28         10  H    CARTESIAN X    -3.249341     -1.496547  KCAL/ANGSTROM
     29         10  H    CARTESIAN Y     0.638935      0.254316  KCAL/ANGSTROM
     30         10  H    CARTESIAN Z     1.310370      1.031675  KCAL/ANGSTROM
     31         11  H    CARTESIAN X    -1.785245     -0.793414  KCAL/ANGSTROM
     32         11  H    CARTESIAN Y     1.248128      0.209250  KCAL/ANGSTROM
     33         11  H    CARTESIAN Z     2.080216      1.041834  KCAL/ANGSTROM
     34         12  H    CARTESIAN X    -1.885546     -0.915647  KCAL/ANGSTROM
     35         12  H    CARTESIAN Y     1.846813     -0.196220  KCAL/ANGSTROM
     36         12  H    CARTESIAN Z    -0.437543      0.582427  KCAL/ANGSTROM
     37         13  H    CARTESIAN X    -1.489077     -0.296063  KCAL/ANGSTROM
     38         13  H    CARTESIAN Y    -1.341894      0.183628  KCAL/ANGSTROM
     39         13  H    CARTESIAN Z    -0.839785      0.287586  KCAL/ANGSTROM
     40         14  H    CARTESIAN X    -1.447255     -0.594768  KCAL/ANGSTROM
     41         14  H    CARTESIAN Y    -0.106619     -0.608498  KCAL/ANGSTROM
     42         14  H    CARTESIAN Z    -2.151274     -0.111201  KCAL/ANGSTROM
     43         15  H    CARTESIAN X     1.628875      0.220701  KCAL/ANGSTROM
     44         15  H    CARTESIAN Y     1.202967     -0.855056  KCAL/ANGSTROM
     45         15  H    CARTESIAN Z    -0.607234      0.774791  KCAL/ANGSTROM
     46         16  H    CARTESIAN X     1.183216      1.020167  KCAL/ANGSTROM
     47         16  H    CARTESIAN Y    -1.846813     -0.420156  KCAL/ANGSTROM
     48         16  H    CARTESIAN Z    -0.496876      0.381238  KCAL/ANGSTROM
     49         17  H    CARTESIAN X     2.691262      1.615235  KCAL/ANGSTROM
     50         17  H    CARTESIAN Y    -1.002033     -0.750735  KCAL/ANGSTROM
     51         17  H    CARTESIAN Z    -0.866542     -0.198639  KCAL/ANGSTROM
     52         18  H    CARTESIAN X     1.759515      0.872588  KCAL/ANGSTROM
     53         18  H    CARTESIAN Y    -1.807500     -1.057940  KCAL/ANGSTROM
     54         18  H    CARTESIAN Z     1.902403      0.754791  KCAL/ANGSTROM
     55         19  H    CARTESIAN X     3.249341      1.335704  KCAL/ANGSTROM
     56         19  H    CARTESIAN Y    -0.932977     -0.239114  KCAL/ANGSTROM
     57         19  H    CARTESIAN Z     1.529558      0.551729  KCAL/ANGSTROM
     58         20  H    CARTESIAN X     0.567465      0.721209  KCAL/ANGSTROM
     59         20  H    CARTESIAN Y     0.346556     -0.022619  KCAL/ANGSTROM
     60         20  H    CARTESIAN Z     2.151274      0.304113  KCAL/ANGSTROM
     61         21  H    CARTESIAN X     2.071209      1.120825  KCAL/ANGSTROM
     62         21  H    CARTESIAN Y     1.210064      0.246320  KCAL/ANGSTROM
     63         21  H    CARTESIAN Z     1.802039      0.915365  KCAL/ANGSTROM




   ATOM   CHEMICAL          X               Y               Z
  NUMBER   SYMBOL      (ANGSTROMS)     (ANGSTROMS)     (ANGSTROMS)

     1       C         -2.14328379  *   0.54275857  *   1.30911958  *
     2       C         -1.58964543  *   0.84490838  *  -0.04429532  *
     3       C         -1.29700946  *  -0.27986807  *  -1.06959672  *
     4       N         -0.25114471  *   0.40550486  *  -0.38412210  *
     5       C          1.10991017  *   0.36877202  *  -0.04852663  *
     6       C          1.82150856  *  -1.01139684  *  -0.19320293  *
     7       C          2.17155460  *  -0.97757955  *   1.31585570  *
     8       C          1.43347858  *   0.37328981  *   1.48414926  *
     9       H         -1.92794361  *  -0.47363395  *   1.67072990  *
    10       H         -3.24934051  *   0.63893482  *   1.31037043  *
    11       H         -1.78524465  *   1.24812793  *   2.08021602  *
    12       H         -1.88554596  *   1.84681291  *  -0.43754316  *
    13       H         -1.48907668  *  -1.34189419  *  -0.83978500  *
    14       H         -1.44725457  *  -0.10661896  *  -2.15127396  *
    15       H          1.62887458  *   1.20296738  *  -0.60723421  *
    16       H          1.18321644  *  -1.84681291  *  -0.49687606  *
    17       H          2.69126249  *  -1.00203272  *  -0.86654196  *
    18       H          1.75951518  *  -1.80749997  *   1.90240252  *
    19       H          3.24934051  *  -0.93297686  *   1.52955784  *
    20       H          0.56746520  *   0.34655579  *   2.15127396  *
    21       H          2.07120893  *   1.21006437  *   1.80203927  *

                             CARTESIAN COORDINATES

   1    C       -2.143283785     0.542758573     1.309119580
   2    C       -1.589645426     0.844908380    -0.044295319
   3    C       -1.297009464    -0.279868073    -1.069596721
   4    N       -0.251144713     0.405504864    -0.384122104
   5    C        1.109910172     0.368772021    -0.048526630
   6    C        1.821508556    -1.011396836    -0.193202929
   7    C        2.171554600    -0.977579549     1.315855704
   8    C        1.433478576     0.373289815     1.484149262
   9    H       -1.927943614    -0.473633949     1.670729897
  10    H       -3.249340506     0.638934825     1.310370430
  11    H       -1.785244653     1.248127929     2.080216016
  12    H       -1.885545960     1.846812907    -0.437543156
  13    H       -1.489076685    -1.341894194    -0.839785004
  14    H       -1.447254574    -0.106618956    -2.151273956
  15    H        1.628874583     1.202967378    -0.607234209
  16    H        1.183216436    -1.846812907    -0.496876056
  17    H        2.691262493    -1.002032725    -0.866541956
  18    H        1.759515179    -1.807499973     1.902402517
  19    H        3.249340506    -0.932976862     1.529557836
  20    H        0.567465198     0.346555792     2.151273956
  21    H        2.071208934     1.210064372     1.802039275


           Empirical Formula: C7 H13 N  =    21 atoms



      MOLECULAR POINT GROUP   :   C1  


          ALPHA EIGENVALUES  
 -39.42693 -31.28948 -27.97126 -25.83786 -23.74486 -22.37002 -21.40617 -19.71216
 -18.44295 -18.07819 -17.04038 -16.43636 -15.58593 -14.87900 -14.29991 -13.93328
 -13.71910 -13.54549 -13.24633 -12.50643 -12.14235 -12.02134 -11.38752  -0.33443
   0.81335   1.97378   2.52193   2.82008   3.00197   3.14475   3.60285   4.35092
   4.45906   4.53503   4.65179   4.91132   5.00908   5.08141   5.16542   5.22904
   5.75833   5.87180   5.94619   6.16200   6.29388


           BETA EIGENVALUES 
 -37.89381 -31.20563 -27.61201 -25.68861 -23.70689 -22.13945 -21.19346 -19.36663
 -18.05329 -17.73012 -16.79928 -16.12348 -15.44117 -14.78539 -14.21902 -13.88956
 -13.58152 -13.15504 -12.94184 -12.29581 -12.07877 -11.89511  -2.14779   0.30782
   0.96473   2.00315   2.57062   2.97837   3.04810   3.24745   4.06602   4.43276
   4.52684   4.69585   4.75041   4.97109   5.03561   5.09057   5.17227   5.23357
   5.76359   5.87872   5.94983   6.16257   6.29463


              NET ATOMIC CHARGES AND DIPOLE CONTRIBUTIONS

  ATOM NO.   TYPE          CHARGE      No. of ELECS.   s-Pop       p-Pop       
    1          C          -0.480642        4.4806     1.05401     3.42663
    2          C           0.045125        3.9549     1.09445     2.86042
    3          C          -0.197853        4.1979     1.09864     3.09921
    4          N          -0.053403        5.0534     1.56278     3.49062
    5          C           0.006156        3.9938     1.09038     2.90347
    6          C          -0.286542        4.2865     1.07788     3.20866
    7          C          -0.269334        4.2693     1.06767     3.20166
    8          C          -0.278843        4.2788     1.07912     3.19972
    9          H           0.181406        0.8186     0.81859
   10          H           0.202847        0.7972     0.79715
   11          H           0.191296        0.8087     0.80870
   12          H           0.227054        0.7729     0.77295
   13          H           0.226975        0.7730     0.77302
   14          H           0.235012        0.7650     0.76499
   15          H           0.234867        0.7651     0.76513
   16          H           0.167485        0.8325     0.83252
   17          H           0.178588        0.8214     0.82141
   18          H           0.161072        0.8389     0.83893
   19          H           0.166656        0.8333     0.83334
   20          H           0.165568        0.8344     0.83443
   21          H           0.176512        0.8235     0.82349
 DIPOLE           X         Y         Z       TOTAL
 POINT-CHG.    -2.524     1.086    -1.916     3.350
 HYBRID         0.114     0.024    -0.180     0.214
 SUM           -2.410     1.110    -2.096     3.381


          ATOMIC ORBITAL ELECTRON POPULATIONS

     Atom    s        px        py        pz   
    1  C   1.05401   1.19193   1.20863   1.02607
    2  C   1.09445   0.77576   1.07224   1.01243
    3  C   1.09864   0.88407   1.10184   1.11330
    4  N   1.56278   1.08663   1.20516   1.19883
    5  C   1.09038   0.76374   1.09055   1.04917
    6  C   1.07788   1.13552   1.01365   1.05949
    7  C   1.06767   1.14383   1.04821   1.00962
    8  C   1.07912   1.14419   1.08721   0.96832
    9  H   0.81859
   10  H   0.79715
   11  H   0.80870
   12  H   0.77295
   13  H   0.77302
   14  H   0.76499
   15  H   0.76513
   16  H   0.83252
   17  H   0.82141
   18  H   0.83893
   19  H   0.83334
   20  H   0.83443
   21  H   0.82349


                    (SZ)    =    0.500000
                    (S**2)  =    0.763376


          ATOMIC ORBITAL SPIN POPULATIONS

    Atom   Total    s     px     py     pz   
         Atomic
    1  C  0.0255  0.003  0.006  0.002  0.014
    2  C -0.0628 -0.004 -0.054  0.002 -0.007
    3  C -0.0515 -0.005 -0.046 -0.001  0.001
    4  N  0.9515  0.049  0.055  0.410  0.437
    5  C -0.0522 -0.006 -0.038 -0.002 -0.005
    6  C  0.0238  0.002  0.006  0.013  0.003
    7  C -0.0015 -0.000 -0.000 -0.001 -0.001
    8  C  0.0473  0.004  0.007  0.005  0.031
    9  H -0.0009 -0.001
   10  H -0.0020 -0.002
   11  H -0.0012 -0.001
   12  H  0.0208  0.021
   13  H  0.0281  0.028
   14  H  0.0285  0.029
   15  H  0.0521  0.052
   16  H -0.0015 -0.001
   17  H -0.0015 -0.002
   18  H  0.0006  0.001
   19  H  0.0007  0.001
   20  H -0.0021 -0.002
   21  H -0.0019 -0.002

 **********************
 *                    *
 * JOB ENDED NORMALLY *
 *                    *
 **********************



 TOTAL JOB TIME:             2.72 SECONDS

 == MOPAC DONE ==
