 *******************************************************************************
 **                                                                           **
 **                              MOPAC v23.2                                  **
 **                                                                           **
 *******************************************************************************
 **          Digital Object Identifier (DOI): 10.5281/zenodo.6511958          **
 **    Visit the DOI location for information on how to cite this program.    **
 *******************************************************************************

                              PM7 CALCULATION RESULTS

 *******************************************************************************
 *  CALCULATION DONE: (MAX THREADS = 40)             Fri Sep 19 21:27:33 2025  *
 *  PM7        - The PM7 Hamiltonian to be used
 *  1SCF       - DO 1 SCF AND THEN STOP 
 *  T=         - A TIME OF 172800.0 SECONDS REQUESTED
 *  DUMP=N     - RESTART FILE WRITTEN EVERY 7200.0 SECONDS REQUESTED
 *  RELSCF     - DEFAULT SCF CRITERION MULTIPLIED BY 0.0001
 *              (DEFAULT SCF CRITERION = 0.00010)
 *  GRADIENTS  - ALL GRADIENTS TO BE PRINTED
 *  DISP       - PRINT DISPERSION AND HYDROGEN BOND ENERGIES
 *******************************************************************************
PM7 1SCF GRADIENTS DISP RELSCF=0.0001
 Title: ASE calculation

   ATOM   CHEMICAL          X               Y               Z
  NUMBER   SYMBOL      (ANGSTROMS)     (ANGSTROMS)     (ANGSTROMS)

     1       C          1.81011294  *   0.74849741  *  -0.94626008  *
     2       N          0.40795840  *   0.34020475  *  -0.85557531  *
     3       C         -0.32594609  *   0.75966725  *   0.36300465  *
     4       C         -1.82551387  *   0.41132419  *   0.12053158  *
     5       O         -2.63000132  *   0.63099462  *   1.22516630  *
     6       C         -1.40185244  *  -1.10806555  *  -0.10129523  *
     7       O         -1.66515437  *  -1.58628997  *  -1.37058039  *
     8       C          0.08304213  *  -0.69728909  *   0.15681741  *
     9       H          1.84767453  *   1.74659209  *  -1.42150580  *
    10       H          2.33715493  *   0.04417310  *  -1.61576100  *
    11       H          2.36079914  *   0.79810999  *   0.00424475  *
    12       H         -0.00475312  *   1.51981273  *   1.04319023  *
    13       H         -2.33514326  *   0.90522469  *  -0.71615093  *
    14       H         -2.25292706  *   0.23486768  *   2.03837687  *
    15       H         -1.83178468  *  -1.83659242  *   0.59564916  *
    16       H         -1.16291960  *  -1.05933502  *  -2.04212161  *
    17       H          0.79946278  *  -1.33350757  *   0.62938140  *



          CARTESIAN COORDINATES 

    NO.       ATOM           X           Y           Z

     1         C          1.8101      0.7485     -0.9463
     2         N          0.4080      0.3402     -0.8556
     3         C         -0.3259      0.7597      0.3630
     4         C         -1.8255      0.4113      0.1205
     5         O         -2.6300      0.6310      1.2252
     6         C         -1.4019     -1.1081     -0.1013
     7         O         -1.6652     -1.5863     -1.3706
     8         C          0.0830     -0.6973      0.1568
     9         H          1.8477      1.7466     -1.4215
    10         H          2.3372      0.0442     -1.6158
    11         H          2.3608      0.7981      0.0042
    12         H         -0.0048      1.5198      1.0432
    13         H         -2.3351      0.9052     -0.7162
    14         H         -2.2529      0.2349      2.0384
    15         H         -1.8318     -1.8366      0.5956
    16         H         -1.1629     -1.0593     -2.0421
    17         H          0.7995     -1.3335      0.6294

 General Reference for PM7:
 "Optimization of Parameters for Semiempirical Methods VI: More Modifications to the 
 NDDO Approximations and Re-optimization of Parameters", J. J. P. Stewart, J. Mol. Mod., 1:32, 19 (2013)
 https://link.springer.com/article/10.1007/s00894-012-1667-x

           Empirical Formula: C5 H9 N O2  =    17 atoms



      MOLECULAR POINT GROUP   :   C1  


      RHF CALCULATION, NO. OF DOUBLY OCCUPIED LEVELS = 23

  SCF CRITERION =    0.1000E-07

 -------------------------------------------------------------------------------
 PM7 1SCF GRADIENTS DISP RELSCF=0.0001
 Title: ASE calculation



     1SCF WAS SPECIFIED, SO BFGS WAS NOT USED                 
     SCF FIELD WAS ACHIEVED                                   


                              PM7 CALCULATION
                                                       MOPAC v23.2 Linux
                                                       Fri Sep 19 21:27:34 2025




          FINAL HEAT OF FORMATION =        -30.29305 KCAL/MOL =    -126.74613 KJ/MOL

          TOTAL ENERGY            =     -34828.88529 KCAL/MOL = ELECTRONIC ENERGY + CORE-CORE REPULSION
          ENERGY OF ATOMS         =      34800.19765 KCAL/MOL
                              SUM =        -28.68764 KCAL/MOL
          DISPERSION ENERGY       =         -1.34324 KCAL/MOL
          H-BOND ENERGY           =         -0.26217 KCAL/MOL
                              SUM =        -30.29305 KCAL/MOL = FINAL HEAT OF FORMATION



          TOTAL ENERGY            =      -1510.32341 EV
          ELECTRONIC ENERGY       =      -6719.79848 EV 
          CORE-CORE REPULSION     =       5209.47507 EV
          COSMO AREA              =        147.06 SQUARE ANGSTROMS
          COSMO VOLUME            =        140.47 CUBIC ANGSTROMS

          GRADIENT NORM           =          1.00031          =       0.24261 PER ATOM
          IONIZATION POTENTIAL    =          9.922663 EV
          HOMO LUMO ENERGIES (EV) =         -9.923  1.629
          NO. OF FILLED LEVELS    =         23
          MOLECULAR WEIGHT        =        115.1316         POINT GROUP:  C1  

          MOLECULAR DIMENSIONS (Angstroms)

            Atom       Atom       Distance
            H    14    H    10     5.87009
            O     7    H    11     4.34495
            H    13    H    17     3.50170


          SCF CALCULATIONS        =          1

          WALL-CLOCK TIME         =      0.594 SECONDS
          COMPUTATION TIME        =      0.761 SECONDS

          LARGEST ATOMIC GRADIENTS

          Atom     Label                     Cartesian Gradients           Cartesian Coordinates       |Gradient|
                                           X          Y          Z        X          Y          Z

             5       O                  -0.250      0.300      0.054   -2.63000    0.63099    1.22517      0.394
            15       H                   0.268      0.012      0.262   -1.83178   -1.83659    0.59565      0.375
            10       H                   0.153      0.296      0.009    2.33715    0.04417   -1.61576      0.333
            13       H                  -0.026     -0.191      0.196   -2.33514    0.90522   -0.71615      0.275
             6       C                  -0.231     -0.067     -0.132   -1.40185   -1.10807   -0.10130      0.275
             9       H                   0.171     -0.172     -0.078    1.84767    1.74659   -1.42151      0.255
            16       H                   0.212      0.101     -0.072   -1.16292   -1.05934   -2.04212      0.246
             4       C                  -0.136      0.013      0.187   -1.82551    0.41132    0.12053      0.231
             8       C                  -0.086     -0.181     -0.112    0.08304   -0.69729    0.15682      0.229
            14       H                   0.124      0.114     -0.131   -2.25293    0.23487    2.03838      0.214



       FINAL  POINT  AND  DERIVATIVES

   PARAMETER     ATOM    TYPE            VALUE        GRADIENT
      1          1  C    CARTESIAN X     1.810113     -0.104550  KCAL/ANGSTROM
      2          1  C    CARTESIAN Y     0.748497     -0.048341  KCAL/ANGSTROM
      3          1  C    CARTESIAN Z    -0.946260      0.091512  KCAL/ANGSTROM
      4          2  N    CARTESIAN X     0.407958     -0.135673  KCAL/ANGSTROM
      5          2  N    CARTESIAN Y     0.340205     -0.104558  KCAL/ANGSTROM
      6          2  N    CARTESIAN Z    -0.855575     -0.029391  KCAL/ANGSTROM
      7          3  C    CARTESIAN X    -0.325946     -0.029346  KCAL/ANGSTROM
      8          3  C    CARTESIAN Y     0.759667     -0.091999  KCAL/ANGSTROM
      9          3  C    CARTESIAN Z     0.363005      0.111039  KCAL/ANGSTROM
     10          4  C    CARTESIAN X    -1.825514     -0.135839  KCAL/ANGSTROM
     11          4  C    CARTESIAN Y     0.411324      0.013358  KCAL/ANGSTROM
     12          4  C    CARTESIAN Z     0.120532      0.186899  KCAL/ANGSTROM
     13          5  O    CARTESIAN X    -2.630001     -0.250324  KCAL/ANGSTROM
     14          5  O    CARTESIAN Y     0.630995      0.299919  KCAL/ANGSTROM
     15          5  O    CARTESIAN Z     1.225166      0.053818  KCAL/ANGSTROM
     16          6  C    CARTESIAN X    -1.401852     -0.231344  KCAL/ANGSTROM
     17          6  C    CARTESIAN Y    -1.108066     -0.066651  KCAL/ANGSTROM
     18          6  C    CARTESIAN Z    -0.101295     -0.132328  KCAL/ANGSTROM
     19          7  O    CARTESIAN X    -1.665154     -0.011915  KCAL/ANGSTROM
     20          7  O    CARTESIAN Y    -1.586290     -0.010054  KCAL/ANGSTROM
     21          7  O    CARTESIAN Z    -1.370580     -0.176109  KCAL/ANGSTROM
     22          8  C    CARTESIAN X     0.083042     -0.086285  KCAL/ANGSTROM
     23          8  C    CARTESIAN Y    -0.697289     -0.180603  KCAL/ANGSTROM
     24          8  C    CARTESIAN Z     0.156817     -0.111650  KCAL/ANGSTROM
     25          9  H    CARTESIAN X     1.847675      0.171277  KCAL/ANGSTROM
     26          9  H    CARTESIAN Y     1.746592     -0.171648  KCAL/ANGSTROM
     27          9  H    CARTESIAN Z    -1.421506     -0.078329  KCAL/ANGSTROM
     28         10  H    CARTESIAN X     2.337155      0.152657  KCAL/ANGSTROM
     29         10  H    CARTESIAN Y     0.044173      0.296314  KCAL/ANGSTROM
     30         10  H    CARTESIAN Z    -1.615761      0.009370  KCAL/ANGSTROM
     31         11  H    CARTESIAN X     2.360799      0.097577  KCAL/ANGSTROM
     32         11  H    CARTESIAN Y     0.798110      0.062444  KCAL/ANGSTROM
     33         11  H    CARTESIAN Z     0.004245     -0.008212  KCAL/ANGSTROM
     34         12  H    CARTESIAN X    -0.004753     -0.026262  KCAL/ANGSTROM
     35         12  H    CARTESIAN Y     1.519813      0.104463  KCAL/ANGSTROM
     36         12  H    CARTESIAN Z     1.043190     -0.067598  KCAL/ANGSTROM
     37         13  H    CARTESIAN X    -2.335143     -0.026104  KCAL/ANGSTROM
     38         13  H    CARTESIAN Y     0.905225     -0.191476  KCAL/ANGSTROM
     39         13  H    CARTESIAN Z    -0.716151      0.196315  KCAL/ANGSTROM
     40         14  H    CARTESIAN X    -2.252927      0.124147  KCAL/ANGSTROM
     41         14  H    CARTESIAN Y     0.234868      0.114175  KCAL/ANGSTROM
     42         14  H    CARTESIAN Z     2.038377     -0.131239  KCAL/ANGSTROM
     43         15  H    CARTESIAN X    -1.831785      0.267963  KCAL/ANGSTROM
     44         15  H    CARTESIAN Y    -1.836592      0.012018  KCAL/ANGSTROM
     45         15  H    CARTESIAN Z     0.595649      0.262328  KCAL/ANGSTROM
     46         16  H    CARTESIAN X    -1.162920      0.211994  KCAL/ANGSTROM
     47         16  H    CARTESIAN Y    -1.059335      0.101303  KCAL/ANGSTROM
     48         16  H    CARTESIAN Z    -2.042122     -0.072007  KCAL/ANGSTROM
     49         17  H    CARTESIAN X     0.799463      0.012039  KCAL/ANGSTROM
     50         17  H    CARTESIAN Y    -1.333508     -0.138651  KCAL/ANGSTROM
     51         17  H    CARTESIAN Z     0.629381     -0.104475  KCAL/ANGSTROM




   ATOM   CHEMICAL          X               Y               Z
  NUMBER   SYMBOL      (ANGSTROMS)     (ANGSTROMS)     (ANGSTROMS)

     1       C          1.81011294  *   0.74849741  *  -0.94626008  *
     2       N          0.40795840  *   0.34020475  *  -0.85557531  *
     3       C         -0.32594609  *   0.75966725  *   0.36300465  *
     4       C         -1.82551387  *   0.41132419  *   0.12053158  *
     5       O         -2.63000132  *   0.63099462  *   1.22516630  *
     6       C         -1.40185244  *  -1.10806555  *  -0.10129523  *
     7       O         -1.66515437  *  -1.58628997  *  -1.37058039  *
     8       C          0.08304213  *  -0.69728909  *   0.15681741  *
     9       H          1.84767453  *   1.74659209  *  -1.42150580  *
    10       H          2.33715493  *   0.04417310  *  -1.61576100  *
    11       H          2.36079914  *   0.79810999  *   0.00424475  *
    12       H         -0.00475312  *   1.51981273  *   1.04319023  *
    13       H         -2.33514326  *   0.90522469  *  -0.71615093  *
    14       H         -2.25292706  *   0.23486768  *   2.03837687  *
    15       H         -1.83178468  *  -1.83659242  *   0.59564916  *
    16       H         -1.16291960  *  -1.05933502  *  -2.04212161  *
    17       H          0.79946278  *  -1.33350757  *   0.62938140  *

                             CARTESIAN COORDINATES

   1    C        1.810112945     0.748497412    -0.946260080
   2    N        0.407958401     0.340204748    -0.855575314
   3    C       -0.325946093     0.759667248     0.363004646
   4    C       -1.825513873     0.411324186     0.120531579
   5    O       -2.630001321     0.630994624     1.225166302
   6    C       -1.401852436    -1.108065549    -0.101295226
   7    O       -1.665154375    -1.586289975    -1.370580388
   8    C        0.083042135    -0.697289095     0.156817413
   9    H        1.847674526     1.746592086    -1.421505803
  10    H        2.337154934     0.044173103    -1.615761005
  11    H        2.360799136     0.798109994     0.004244746
  12    H       -0.004753117     1.519812729     1.043190228
  13    H       -2.335143256     0.905224686    -0.716150931
  14    H       -2.252927057     0.234867681     2.038376869
  15    H       -1.831784685    -1.836592423     0.595649164
  16    H       -1.162919596    -1.059335024    -2.042121613
  17    H        0.799462777    -1.333507567     0.629381403


           Empirical Formula: C5 H9 N O2  =    17 atoms



      MOLECULAR POINT GROUP   :   C1  


                  EIGENVALUES  
 -37.06322 -30.58151 -29.50507 -27.57107 -24.00366 -22.91117 -21.51891 -19.93895
 -18.65818 -17.07160 -15.98836 -15.87364 -15.58644 -15.06866 -14.27013 -14.23430
 -13.37124 -12.55049 -12.30726 -12.23191 -11.21707 -10.23970  -9.92266   1.62882
   1.83395   2.57736   2.86289   2.96023   3.10070   3.43055   4.21853   4.30414
   5.08393   5.14133   5.17719   5.38490   5.49139   5.55910   5.97889   6.02366
   6.19077


              NET ATOMIC CHARGES AND DIPOLE CONTRIBUTIONS

  ATOM NO.   TYPE          CHARGE      No. of ELECS.   s-Pop       p-Pop       
    1          C          -0.288259        4.2883     1.06145     3.22681
    2          N          -0.340020        5.3400     1.74698     3.59304
    3          C          -0.165242        4.1652     1.09330     3.07194
    4          C           0.112260        3.8877     1.11257     2.77517
    5          O          -0.513662        6.5137     1.84195     4.67171
    6          C           0.119462        3.8805     1.11167     2.76887
    7          O          -0.514824        6.5148     1.84606     4.66877
    8          C          -0.182664        4.1827     1.09488     3.08779
    9          H           0.162925        0.8371     0.83707
   10          H           0.161084        0.8389     0.83892
   11          H           0.131312        0.8687     0.86869
   12          H           0.170751        0.8292     0.82925
   13          H           0.170338        0.8297     0.82966
   14          H           0.313980        0.6860     0.68602
   15          H           0.154124        0.8459     0.84588
   16          H           0.340068        0.6599     0.65993
   17          H           0.168366        0.8316     0.83163
 DIPOLE           X         Y         Z       TOTAL
 POINT-CHG.     2.653     0.446     1.253     2.968
 HYBRID         0.982     0.149     0.561     1.141
 SUM            3.635     0.595     1.814     4.106


          ATOMIC ORBITAL ELECTRON POPULATIONS

     Atom    s        px        py        pz   
    1  C   1.06145   0.90895   1.16070   1.15715
    2  N   1.74698   1.18028   1.15140   1.26136
    3  C   1.09330   1.02571   1.02854   1.01770
    4  C   1.11257   0.88116   0.99622   0.89780
    5  O   1.84195   1.54892   1.81767   1.30512
    6  C   1.11167   0.92201   0.99205   0.85480
    7  O   1.84606   1.74591   1.64846   1.27439
    8  C   1.09488   1.08095   0.95181   1.05502
    9  H   0.83707
   10  H   0.83892
   11  H   0.86869
   12  H   0.82925
   13  H   0.82966
   14  H   0.68602
   15  H   0.84588
   16  H   0.65993
   17  H   0.83163

 **********************
 *                    *
 * JOB ENDED NORMALLY *
 *                    *
 **********************



 TOTAL JOB TIME:             1.02 SECONDS

 == MOPAC DONE ==
