 *******************************************************************************
 **                                                                           **
 **                              MOPAC v23.2                                  **
 **                                                                           **
 *******************************************************************************
 **          Digital Object Identifier (DOI): 10.5281/zenodo.6511958          **
 **    Visit the DOI location for information on how to cite this program.    **
 *******************************************************************************

                              PM7 CALCULATION RESULTS

 *******************************************************************************
 *  CALCULATION DONE: (MAX THREADS = 40)             Fri Sep 19 21:27:13 2025  *
 *  PM7        - The PM7 Hamiltonian to be used
 *  1SCF       - DO 1 SCF AND THEN STOP 
 *  T=         - A TIME OF 172800.0 SECONDS REQUESTED
 *  DUMP=N     - RESTART FILE WRITTEN EVERY 7200.0 SECONDS REQUESTED
 *  RELSCF     - DEFAULT SCF CRITERION MULTIPLIED BY 0.0001
 *              (DEFAULT SCF CRITERION = 0.00010)
 *  GRADIENTS  - ALL GRADIENTS TO BE PRINTED
 *  DISP       - PRINT DISPERSION AND HYDROGEN BOND ENERGIES
 *******************************************************************************
PM7 1SCF GRADIENTS DISP RELSCF=0.0001
 Title: ASE calculation

   ATOM   CHEMICAL          X               Y               Z
  NUMBER   SYMBOL      (ANGSTROMS)     (ANGSTROMS)     (ANGSTROMS)

     1       C         -2.79785402  *  -0.37531851  *   0.10526247  *
     2       N         -1.35561729  *  -0.24153876  *   0.04901531  *
     3       C         -0.69901194  *   0.91890014  *  -0.36566036  *
     4       C          0.68173597  *   0.67417261  *  -0.24754699  *
     5       N          1.71150382  *   1.55619917  *  -0.46822879  *
     6       C          0.84358858  *  -0.66783385  *   0.24236208  *
     7       C          2.10026226  *  -1.33193743  *   0.46427588  *
     8       O          3.16989302  *  -0.81242375  *   0.20203312  *
     9       C         -0.45566061  *  -1.19272294  *   0.42225281  *
    10       H         -3.27801257  *   0.18270579  *  -0.72085295  *
    11       H         -3.19194708  *   0.02728412  *   1.05933405  *
    12       H         -3.10770980  *  -1.43267876  *   0.02161000  *
    13       H         -1.20907447  *   1.79504638  *  -0.68649145  *
    14       H          2.64342010  *   1.16296856  *  -0.43911093  *
    15       H          1.56780968  *   2.32545373  *  -1.08443522  *
    16       H          2.08473483  *  -2.34948152  *   0.88059921  *
    17       H         -0.73600194  *  -2.16546369  *   0.77844841  *



          CARTESIAN COORDINATES 

    NO.       ATOM           X           Y           Z

     1         C         -2.7979     -0.3753      0.1053
     2         N         -1.3556     -0.2415      0.0490
     3         C         -0.6990      0.9189     -0.3657
     4         C          0.6817      0.6742     -0.2475
     5         N          1.7115      1.5562     -0.4682
     6         C          0.8436     -0.6678      0.2424
     7         C          2.1003     -1.3319      0.4643
     8         O          3.1699     -0.8124      0.2020
     9         C         -0.4557     -1.1927      0.4223
    10         H         -3.2780      0.1827     -0.7209
    11         H         -3.1919      0.0273      1.0593
    12         H         -3.1077     -1.4327      0.0216
    13         H         -1.2091      1.7950     -0.6865
    14         H          2.6434      1.1630     -0.4391
    15         H          1.5678      2.3255     -1.0844
    16         H          2.0847     -2.3495      0.8806
    17         H         -0.7360     -2.1655      0.7784

 General Reference for PM7:
 "Optimization of Parameters for Semiempirical Methods VI: More Modifications to the 
 NDDO Approximations and Re-optimization of Parameters", J. J. P. Stewart, J. Mol. Mod., 1:32, 19 (2013)
 https://link.springer.com/article/10.1007/s00894-012-1667-x

           Empirical Formula: C6 H8 N2 O  =    17 atoms



      MOLECULAR POINT GROUP   :   C1  


      RHF CALCULATION, NO. OF DOUBLY OCCUPIED LEVELS = 24

  SCF CRITERION =    0.1000E-07

 -------------------------------------------------------------------------------
 PM7 1SCF GRADIENTS DISP RELSCF=0.0001
 Title: ASE calculation



     1SCF WAS SPECIFIED, SO BFGS WAS NOT USED                 
     SCF FIELD WAS ACHIEVED                                   


                              PM7 CALCULATION
                                                       MOPAC v23.2 Linux
                                                       Fri Sep 19 21:27:13 2025




          FINAL HEAT OF FORMATION =         -7.81019 KCAL/MOL =     -32.67782 KJ/MOL

          TOTAL ENERGY            =     -34870.60102 KCAL/MOL = ELECTRONIC ENERGY + CORE-CORE REPULSION
          ENERGY OF ATOMS         =      34865.63902 KCAL/MOL
                              SUM =         -4.96200 KCAL/MOL
          DISPERSION ENERGY       =         -1.83604 KCAL/MOL
          H-BOND ENERGY           =         -1.01215 KCAL/MOL
                              SUM =         -7.81019 KCAL/MOL = FINAL HEAT OF FORMATION

          No. OF HYDROGEN BONDS   =          1       (H-bond Energy < -1.0 Kcal/mol)


          TOTAL ENERGY            =      -1512.13238 EV
          ELECTRONIC ENERGY       =      -6916.65721 EV 
          CORE-CORE REPULSION     =       5404.52483 EV
          COSMO AREA              =        159.73 SQUARE ANGSTROMS
          COSMO VOLUME            =        153.22 CUBIC ANGSTROMS

          GRADIENT NORM           =          0.90671          =       0.21991 PER ATOM
          IONIZATION POTENTIAL    =          8.087305 EV
          HOMO LUMO ENERGIES (EV) =         -8.087  0.216
          NO. OF FILLED LEVELS    =         24
          MOLECULAR WEIGHT        =        124.1420         POINT GROUP:  C1  

          MOLECULAR DIMENSIONS (Angstroms)

            Atom       Atom       Distance
            H    10    O     8     6.58919
            H    17    H    15     5.21693
            H    12    H    11     1.54943


          SCF CALCULATIONS        =          1

          WALL-CLOCK TIME         =      0.445 SECONDS
          COMPUTATION TIME        =      0.779 SECONDS

          LARGEST ATOMIC GRADIENTS

          Atom     Label                     Cartesian Gradients           Cartesian Coordinates       |Gradient|
                                           X          Y          Z        X          Y          Z

             6       C                   0.260      0.151      0.256    0.84359   -0.66783    0.24236      0.395
             5       N                  -0.079     -0.253     -0.260    1.71150    1.55620   -0.46823      0.371
            17       H                  -0.294      0.061     -0.124   -0.73600   -2.16546    0.77845      0.325
            13       H                   0.223      0.045      0.047   -1.20907    1.79505   -0.68649      0.233
             8       O                   0.130      0.166     -0.091    3.16989   -0.81242    0.20203      0.229
            15       H                  -0.204      0.030      0.094    1.56781    2.32545   -1.08444      0.226
             9       C                   0.199      0.068     -0.056   -0.45566   -1.19272    0.42225      0.217
            12       H                  -0.176     -0.040     -0.113   -3.10771   -1.43268    0.02161      0.213
            10       H                  -0.137     -0.042      0.157   -3.27801    0.18271   -0.72085      0.213
            16       H                  -0.030     -0.029      0.159    2.08473   -2.34948    0.88060      0.164



       FINAL  POINT  AND  DERIVATIVES

   PARAMETER     ATOM    TYPE            VALUE        GRADIENT
      1          1  C    CARTESIAN X    -2.797854     -0.022652  KCAL/ANGSTROM
      2          1  C    CARTESIAN Y    -0.375319     -0.050573  KCAL/ANGSTROM
      3          1  C    CARTESIAN Z     0.105262      0.010549  KCAL/ANGSTROM
      4          2  N    CARTESIAN X    -1.355617      0.033271  KCAL/ANGSTROM
      5          2  N    CARTESIAN Y    -0.241539      0.029256  KCAL/ANGSTROM
      6          2  N    CARTESIAN Z     0.049015      0.001216  KCAL/ANGSTROM
      7          3  C    CARTESIAN X    -0.699012      0.006939  KCAL/ANGSTROM
      8          3  C    CARTESIAN Y     0.918900      0.107716  KCAL/ANGSTROM
      9          3  C    CARTESIAN Z    -0.365660      0.034819  KCAL/ANGSTROM
     10          4  C    CARTESIAN X     0.681736     -0.015455  KCAL/ANGSTROM
     11          4  C    CARTESIAN Y     0.674173     -0.082052  KCAL/ANGSTROM
     12          4  C    CARTESIAN Z    -0.247547     -0.035903  KCAL/ANGSTROM
     13          5  N    CARTESIAN X     1.711504     -0.078768  KCAL/ANGSTROM
     14          5  N    CARTESIAN Y     1.556199     -0.253413  KCAL/ANGSTROM
     15          5  N    CARTESIAN Z    -0.468229     -0.259733  KCAL/ANGSTROM
     16          6  C    CARTESIAN X     0.843589      0.260189  KCAL/ANGSTROM
     17          6  C    CARTESIAN Y    -0.667834      0.151220  KCAL/ANGSTROM
     18          6  C    CARTESIAN Z     0.242362      0.256217  KCAL/ANGSTROM
     19          7  C    CARTESIAN X     2.100262      0.119060  KCAL/ANGSTROM
     20          7  C    CARTESIAN Y    -1.331937     -0.000292  KCAL/ANGSTROM
     21          7  C    CARTESIAN Z     0.464276     -0.082883  KCAL/ANGSTROM
     22          8  O    CARTESIAN X     3.169893      0.129731  KCAL/ANGSTROM
     23          8  O    CARTESIAN Y    -0.812424      0.165746  KCAL/ANGSTROM
     24          8  O    CARTESIAN Z     0.202033     -0.090578  KCAL/ANGSTROM
     25          9  C    CARTESIAN X    -0.455661      0.198605  KCAL/ANGSTROM
     26          9  C    CARTESIAN Y    -1.192723      0.067815  KCAL/ANGSTROM
     27          9  C    CARTESIAN Z     0.422253     -0.055613  KCAL/ANGSTROM
     28         10  H    CARTESIAN X    -3.278013     -0.137343  KCAL/ANGSTROM
     29         10  H    CARTESIAN Y     0.182706     -0.041836  KCAL/ANGSTROM
     30         10  H    CARTESIAN Z    -0.720853      0.157102  KCAL/ANGSTROM
     31         11  H    CARTESIAN X    -3.191947     -0.131063  KCAL/ANGSTROM
     32         11  H    CARTESIAN Y     0.027284     -0.066815  KCAL/ANGSTROM
     33         11  H    CARTESIAN Z     1.059334     -0.062720  KCAL/ANGSTROM
     34         12  H    CARTESIAN X    -3.107710     -0.176160  KCAL/ANGSTROM
     35         12  H    CARTESIAN Y    -1.432679     -0.040161  KCAL/ANGSTROM
     36         12  H    CARTESIAN Z     0.021610     -0.112507  KCAL/ANGSTROM
     37         13  H    CARTESIAN X    -1.209074      0.223153  KCAL/ANGSTROM
     38         13  H    CARTESIAN Y     1.795046      0.045413  KCAL/ANGSTROM
     39         13  H    CARTESIAN Z    -0.686491      0.046989  KCAL/ANGSTROM
     40         14  H    CARTESIAN X     2.643420      0.118327  KCAL/ANGSTROM
     41         14  H    CARTESIAN Y     1.162969     -0.093899  KCAL/ANGSTROM
     42         14  H    CARTESIAN Z    -0.439111      0.063672  KCAL/ANGSTROM
     43         15  H    CARTESIAN X     1.567810     -0.203855  KCAL/ANGSTROM
     44         15  H    CARTESIAN Y     2.325454      0.029586  KCAL/ANGSTROM
     45         15  H    CARTESIAN Z    -1.084435      0.093947  KCAL/ANGSTROM
     46         16  H    CARTESIAN X     2.084735     -0.029641  KCAL/ANGSTROM
     47         16  H    CARTESIAN Y    -2.349482     -0.029028  KCAL/ANGSTROM
     48         16  H    CARTESIAN Z     0.880599      0.159052  KCAL/ANGSTROM
     49         17  H    CARTESIAN X    -0.736002     -0.294360  KCAL/ANGSTROM
     50         17  H    CARTESIAN Y    -2.165464      0.061335  KCAL/ANGSTROM
     51         17  H    CARTESIAN Z     0.778448     -0.123590  KCAL/ANGSTROM




   ATOM   CHEMICAL          X               Y               Z
  NUMBER   SYMBOL      (ANGSTROMS)     (ANGSTROMS)     (ANGSTROMS)

     1       C         -2.79785402  *  -0.37531851  *   0.10526247  *
     2       N         -1.35561729  *  -0.24153876  *   0.04901531  *
     3       C         -0.69901194  *   0.91890014  *  -0.36566036  *
     4       C          0.68173597  *   0.67417261  *  -0.24754699  *
     5       N          1.71150382  *   1.55619917  *  -0.46822879  *
     6       C          0.84358858  *  -0.66783385  *   0.24236208  *
     7       C          2.10026226  *  -1.33193743  *   0.46427588  *
     8       O          3.16989302  *  -0.81242375  *   0.20203312  *
     9       C         -0.45566061  *  -1.19272294  *   0.42225281  *
    10       H         -3.27801257  *   0.18270579  *  -0.72085295  *
    11       H         -3.19194708  *   0.02728412  *   1.05933405  *
    12       H         -3.10770980  *  -1.43267876  *   0.02161000  *
    13       H         -1.20907447  *   1.79504638  *  -0.68649145  *
    14       H          2.64342010  *   1.16296856  *  -0.43911093  *
    15       H          1.56780968  *   2.32545373  *  -1.08443522  *
    16       H          2.08473483  *  -2.34948152  *   0.88059921  *
    17       H         -0.73600194  *  -2.16546369  *   0.77844841  *

                             CARTESIAN COORDINATES

   1    C       -2.797854023    -0.375318514     0.105262475
   2    N       -1.355617286    -0.241538760     0.049015312
   3    C       -0.699011935     0.918900141    -0.365660362
   4    C        0.681735970     0.674172607    -0.247546992
   5    N        1.711503821     1.556199172    -0.468228786
   6    C        0.843588578    -0.667833849     0.242362075
   7    C        2.100262261    -1.331937426     0.464275878
   8    O        3.169893019    -0.812423749     0.202033121
   9    C       -0.455660611    -1.192722938     0.422252806
  10    H       -3.278012566     0.182705795    -0.720852945
  11    H       -3.191947082     0.027284120     1.059334054
  12    H       -3.107709797    -1.432678758     0.021609999
  13    H       -1.209074473     1.795046383    -0.686491453
  14    H        2.643420103     1.162968562    -0.439110934
  15    H        1.567809680     2.325453732    -1.084435218
  16    H        2.084734826    -2.349481516     0.880599212
  17    H       -0.736001936    -2.165463693     0.778448410


           Empirical Formula: C6 H8 N2 O  =    17 atoms



      MOLECULAR POINT GROUP   :   C1  


                  EIGENVALUES  
 -37.74351 -36.27386 -30.12479 -28.47190 -25.28469 -24.37955 -22.22527 -20.38731
 -19.31151 -17.77803 -16.51782 -16.38350 -16.01959 -15.08265 -14.65177 -14.19287
 -14.02245 -13.62468 -13.07310 -12.77876 -11.45810  -9.80054  -9.35017  -8.08731
   0.21630   1.17262   1.54134   2.22950   3.38312   3.83594   3.90704   4.29261
   4.53391   4.74820   4.99315   5.07367   5.37594   5.47194   5.63453   5.84445
   5.93659   6.25928   6.46685   7.39501


              NET ATOMIC CHARGES AND DIPOLE CONTRIBUTIONS

  ATOM NO.   TYPE          CHARGE      No. of ELECS.   s-Pop       p-Pop       
    1          C          -0.260350        4.2604     1.06054     3.19981
    2          N          -0.115685        5.1157     1.49712     3.61856
    3          C          -0.305061        4.3051     1.06098     3.24408
    4          C           0.256635        3.7434     1.04751     2.69585
    5          N          -0.595136        5.5951     1.53976     4.05538
    6          C          -0.378468        4.3785     1.05533     3.32314
    7          C           0.397133        3.6029     1.11556     2.48731
    8          O          -0.512368        6.5124     1.87990     4.63247
    9          C          -0.032233        4.0322     1.08154     2.95069
   10          H           0.165317        0.8347     0.83468
   11          H           0.162195        0.8378     0.83781
   12          H           0.159172        0.8408     0.84083
   13          H           0.173577        0.8264     0.82642
   14          H           0.326297        0.6737     0.67370
   15          H           0.289717        0.7103     0.71028
   16          H           0.104362        0.8956     0.89564
   17          H           0.164897        0.8351     0.83510
 DIPOLE           X         Y         Z       TOTAL
 POINT-CHG.    -5.720    -0.770    -0.150     5.774
 HYBRID         0.109     0.221    -0.556     0.608
 SUM           -5.612    -0.549    -0.705     5.682


          ATOMIC ORBITAL ELECTRON POPULATIONS

     Atom    s        px        py        pz   
    1  C   1.06054   0.84104   1.17768   1.18108
    2  N   1.49712   1.07096   1.15305   1.39455
    3  C   1.06098   0.96493   0.97429   1.30486
    4  C   1.04751   0.88374   0.88903   0.92308
    5  N   1.53976   1.16980   1.27562   1.60996
    6  C   1.05533   1.00094   1.03299   1.28920
    7  C   1.11556   0.84266   0.93297   0.71167
    8  O   1.87990   1.40542   1.75098   1.47606
    9  C   1.08154   0.91429   0.98463   1.05176
   10  H   0.83468
   11  H   0.83781
   12  H   0.84083
   13  H   0.82642
   14  H   0.67370
   15  H   0.71028
   16  H   0.89564
   17  H   0.83510

 **********************
 *                    *
 * JOB ENDED NORMALLY *
 *                    *
 **********************



 TOTAL JOB TIME:             0.87 SECONDS

 == MOPAC DONE ==
