 *******************************************************************************
 **                                                                           **
 **                              MOPAC v23.2                                  **
 **                                                                           **
 *******************************************************************************
 **          Digital Object Identifier (DOI): 10.5281/zenodo.6511958          **
 **    Visit the DOI location for information on how to cite this program.    **
 *******************************************************************************

                              PM7 CALCULATION RESULTS

 *******************************************************************************
 *  CALCULATION DONE: (MAX THREADS = 40)             Fri Sep 19 21:31:46 2025  *
 *  PM7        - The PM7 Hamiltonian to be used
 *
 *
 *
 *                 CHARGE ON SYSTEM = +1
 *
 *
 *
 *  1SCF       - DO 1 SCF AND THEN STOP 
 *  T=         - A TIME OF 172800.0 SECONDS REQUESTED
 *  DUMP=N     - RESTART FILE WRITTEN EVERY 7200.0 SECONDS REQUESTED
 *  RELSCF     - DEFAULT SCF CRITERION MULTIPLIED BY 0.0001
 *              (DEFAULT SCF CRITERION = 0.00010)
 *  GRADIENTS  - ALL GRADIENTS TO BE PRINTED
 *  DISP       - PRINT DISPERSION AND HYDROGEN BOND ENERGIES
 *******************************************************************************
PM7 1SCF GRADIENTS DISP RELSCF=0.0001 CHARGE=1
 Title: ASE calculation

   ATOM   CHEMICAL          X               Y               Z
  NUMBER   SYMBOL      (ANGSTROMS)     (ANGSTROMS)     (ANGSTROMS)

     1       N          0.51761058  *   2.95494438  *  -1.73901492  *
     2       C          0.66417164  *   1.81731431  *  -1.60961426  *
     3       C          0.83191215  *   0.39571846  *  -1.48298438  *
     4       C         -1.68462843  *  -1.00196050  *   1.55143259  *
     5       O         -1.09334383  *  -1.30707006  *   0.38082901  *
     6       C          1.25960240  *  -0.05083962  *  -0.06118663  *
     7       C          1.19917555  *  -1.46286828  *   0.08405104  *
     8       O          1.18821536  *  -2.58916347  *   0.18752748  *
     9       O          0.67302041  *  -0.41689098  *  -2.34319984  *
    10       H         -1.00652981  *  -0.67413336  *   2.29849664  *
    11       H         -2.73791630  *  -1.10091318  *   1.66159204  *
    12       H         -1.74061361  *  -1.67111367  *  -0.28278616  *
    13       H          0.58860191  *   0.47049534  *   0.69949372  *
    14       H          2.28772420  *   0.37142170  *   0.16371948  *



          CARTESIAN COORDINATES 

    NO.       ATOM           X           Y           Z

     1         N          0.5176      2.9549     -1.7390
     2         C          0.6642      1.8173     -1.6096
     3         C          0.8319      0.3957     -1.4830
     4         C         -1.6846     -1.0020      1.5514
     5         O         -1.0933     -1.3071      0.3808
     6         C          1.2596     -0.0508     -0.0612
     7         C          1.1992     -1.4629      0.0841
     8         O          1.1882     -2.5892      0.1875
     9         O          0.6730     -0.4169     -2.3432
    10         H         -1.0065     -0.6741      2.2985
    11         H         -2.7379     -1.1009      1.6616
    12         H         -1.7406     -1.6711     -0.2828
    13         H          0.5886      0.4705      0.6995
    14         H          2.2877      0.3714      0.1637

 General Reference for PM7:
 "Optimization of Parameters for Semiempirical Methods VI: More Modifications to the 
 NDDO Approximations and Re-optimization of Parameters", J. J. P. Stewart, J. Mol. Mod., 1:32, 19 (2013)
 https://link.springer.com/article/10.1007/s00894-012-1667-x

           Empirical Formula: C5 H5 N O3  =    14 atoms



      MOLECULAR POINT GROUP   :   C1  


          UHF CALCULATION, NO. OF ALPHA ELECTRONS =   24
                           NO. OF BETA  ELECTRONS =   23
  SCF CRITERION =    0.1000E-07

 -------------------------------------------------------------------------------
 PM7 1SCF GRADIENTS DISP RELSCF=0.0001 CHARGE=1
 Title: ASE calculation



     1SCF WAS SPECIFIED, SO BFGS WAS NOT USED                 
     SCF FIELD WAS ACHIEVED                                   


                              PM7 CALCULATION
                                                       MOPAC v23.2 Linux
                                                       Fri Sep 19 21:31:47 2025




          FINAL HEAT OF FORMATION =        141.11190 KCAL/MOL =     590.41218 KJ/MOL

          TOTAL ENERGY            =     -40196.55652 KCAL/MOL = ELECTRONIC ENERGY + CORE-CORE REPULSION
          ENERGY OF ATOMS         =      40339.25331 KCAL/MOL
                              SUM =        142.69678 KCAL/MOL
          DISPERSION ENERGY       =         -1.58489 KCAL/MOL
                              SUM =        141.11190 KCAL/MOL = FINAL HEAT OF FORMATION



          TOTAL ENERGY            =      -1743.08767 EV
          ELECTRONIC ENERGY       =      -6867.29609 EV 
          CORE-CORE REPULSION     =       5124.20843 EV
          COSMO AREA              =        165.29 SQUARE ANGSTROMS
          COSMO VOLUME            =        159.04 CUBIC ANGSTROMS

          GRADIENT NORM           =          0.59303          =       0.15849 PER ATOM
          IONIZATION POTENTIAL    =         13.111799 EV
          ALPHA SOMO LUMO (EV)    =        -13.112 -6.417
          BETA  SOMO LUMO (EV)    =        -16.128 -6.417
          NO. OF ALPHA ELECTRONS  =         24
          NO. OF BETA  ELECTRONS  =         23
          MOLECULAR WEIGHT        =        127.0994         POINT GROUP:  C1  

          MOLECULAR DIMENSIONS (Angstroms)

            Atom       Atom       Distance
            H    11    N     1     6.21390
            O     8    N     1     4.02761
            O     9    H    14     3.06201


          SCF CALCULATIONS        =          1

          WALL-CLOCK TIME         =      1.234 SECONDS
          COMPUTATION TIME        =      1.236 SECONDS

          LARGEST ATOMIC GRADIENTS

          Atom     Label                     Cartesian Gradients           Cartesian Coordinates       |Gradient|
                                           X          Y          Z        X          Y          Z

             2       C                  -0.167      0.237      0.004    0.66417    1.81731   -1.60961      0.290
            11       H                  -0.019      0.143     -0.121   -2.73792   -1.10091    1.66159      0.188
             3       C                   0.169     -0.009      0.077    0.83191    0.39572   -1.48298      0.186
             4       C                   0.104     -0.017      0.150   -1.68463   -1.00196    1.55143      0.184
             6       C                  -0.005     -0.135     -0.112    1.25960   -0.05084   -0.06119      0.176
             7       C                   0.076     -0.140     -0.044    1.19918   -1.46287    0.08405      0.165
            10       H                  -0.090      0.118     -0.022   -1.00653   -0.67413    2.29850      0.150
             9       O                  -0.005     -0.122     -0.025    0.67302   -0.41689   -2.34320      0.125
             8       O                  -0.088      0.082     -0.020    1.18822   -2.58916    0.18753      0.122
            14       H                   0.042      0.110     -0.021    2.28772    0.37142    0.16372      0.120



       FINAL  POINT  AND  DERIVATIVES

   PARAMETER     ATOM    TYPE            VALUE        GRADIENT
      1          1  N    CARTESIAN X     0.517611     -0.035723  KCAL/ANGSTROM
      2          1  N    CARTESIAN Y     2.954944     -0.087445  KCAL/ANGSTROM
      3          1  N    CARTESIAN Z    -1.739015      0.071843  KCAL/ANGSTROM
      4          2  C    CARTESIAN X     0.664172     -0.166617  KCAL/ANGSTROM
      5          2  C    CARTESIAN Y     1.817314      0.237215  KCAL/ANGSTROM
      6          2  C    CARTESIAN Z    -1.609614      0.004366  KCAL/ANGSTROM
      7          3  C    CARTESIAN X     0.831912      0.168534  KCAL/ANGSTROM
      8          3  C    CARTESIAN Y     0.395718     -0.008764  KCAL/ANGSTROM
      9          3  C    CARTESIAN Z    -1.482984      0.077035  KCAL/ANGSTROM
     10          4  C    CARTESIAN X    -1.684628      0.104211  KCAL/ANGSTROM
     11          4  C    CARTESIAN Y    -1.001961     -0.017443  KCAL/ANGSTROM
     12          4  C    CARTESIAN Z     1.551433      0.150367  KCAL/ANGSTROM
     13          5  O    CARTESIAN X    -1.093344      0.039715  KCAL/ANGSTROM
     14          5  O    CARTESIAN Y    -1.307070     -0.074369  KCAL/ANGSTROM
     15          5  O    CARTESIAN Z     0.380829      0.020056  KCAL/ANGSTROM
     16          6  C    CARTESIAN X     1.259602     -0.005383  KCAL/ANGSTROM
     17          6  C    CARTESIAN Y    -0.050840     -0.135413  KCAL/ANGSTROM
     18          6  C    CARTESIAN Z    -0.061187     -0.111624  KCAL/ANGSTROM
     19          7  C    CARTESIAN X     1.199176      0.075882  KCAL/ANGSTROM
     20          7  C    CARTESIAN Y    -1.462868     -0.139609  KCAL/ANGSTROM
     21          7  C    CARTESIAN Z     0.084051     -0.044249  KCAL/ANGSTROM
     22          8  O    CARTESIAN X     1.188215     -0.087740  KCAL/ANGSTROM
     23          8  O    CARTESIAN Y    -2.589163      0.082276  KCAL/ANGSTROM
     24          8  O    CARTESIAN Z     0.187527     -0.019590  KCAL/ANGSTROM
     25          9  O    CARTESIAN X     0.673020     -0.004711  KCAL/ANGSTROM
     26          9  O    CARTESIAN Y    -0.416891     -0.121932  KCAL/ANGSTROM
     27          9  O    CARTESIAN Z    -2.343200     -0.025371  KCAL/ANGSTROM
     28         10  H    CARTESIAN X    -1.006530     -0.089738  KCAL/ANGSTROM
     29         10  H    CARTESIAN Y    -0.674133      0.118171  KCAL/ANGSTROM
     30         10  H    CARTESIAN Z     2.298497     -0.021548  KCAL/ANGSTROM
     31         11  H    CARTESIAN X    -2.737916     -0.019310  KCAL/ANGSTROM
     32         11  H    CARTESIAN Y    -1.100913      0.142639  KCAL/ANGSTROM
     33         11  H    CARTESIAN Z     1.661592     -0.120693  KCAL/ANGSTROM
     34         12  H    CARTESIAN X    -1.740614     -0.007898  KCAL/ANGSTROM
     35         12  H    CARTESIAN Y    -1.671114     -0.074380  KCAL/ANGSTROM
     36         12  H    CARTESIAN Z    -0.282786     -0.049783  KCAL/ANGSTROM
     37         13  H    CARTESIAN X     0.588602     -0.013262  KCAL/ANGSTROM
     38         13  H    CARTESIAN Y     0.470495     -0.030906  KCAL/ANGSTROM
     39         13  H    CARTESIAN Z     0.699494      0.090318  KCAL/ANGSTROM
     40         14  H    CARTESIAN X     2.287724      0.042039  KCAL/ANGSTROM
     41         14  H    CARTESIAN Y     0.371422      0.109955  KCAL/ANGSTROM
     42         14  H    CARTESIAN Z     0.163719     -0.021131  KCAL/ANGSTROM




   ATOM   CHEMICAL          X               Y               Z
  NUMBER   SYMBOL      (ANGSTROMS)     (ANGSTROMS)     (ANGSTROMS)

     1       N          0.51761058  *   2.95494438  *  -1.73901492  *
     2       C          0.66417164  *   1.81731431  *  -1.60961426  *
     3       C          0.83191215  *   0.39571846  *  -1.48298438  *
     4       C         -1.68462843  *  -1.00196050  *   1.55143259  *
     5       O         -1.09334383  *  -1.30707006  *   0.38082901  *
     6       C          1.25960240  *  -0.05083962  *  -0.06118663  *
     7       C          1.19917555  *  -1.46286828  *   0.08405104  *
     8       O          1.18821536  *  -2.58916347  *   0.18752748  *
     9       O          0.67302041  *  -0.41689098  *  -2.34319984  *
    10       H         -1.00652981  *  -0.67413336  *   2.29849664  *
    11       H         -2.73791630  *  -1.10091318  *   1.66159204  *
    12       H         -1.74061361  *  -1.67111367  *  -0.28278616  *
    13       H          0.58860191  *   0.47049534  *   0.69949372  *
    14       H          2.28772420  *   0.37142170  *   0.16371948  *

                             CARTESIAN COORDINATES

   1    N        0.517610584     2.954944383    -1.739014922
   2    C        0.664171645     1.817314309    -1.609614258
   3    C        0.831912148     0.395718460    -1.482984379
   4    C       -1.684628432    -1.001960504     1.551432585
   5    O       -1.093343834    -1.307070062     0.380829006
   6    C        1.259602404    -0.050839616    -0.061186629
   7    C        1.199175549    -1.462868281     0.084051038
   8    O        1.188215359    -2.589163472     0.187527481
   9    O        0.673020415    -0.416890976    -2.343199836
  10    H       -1.006529810    -0.674133363     2.298496635
  11    H       -2.737916304    -1.100913179     1.661592035
  12    H       -1.740613609    -1.671113669    -0.282786156
  13    H        0.588601915     0.470495336     0.699493718
  14    H        2.287724199     0.371421702     0.163719484


           Empirical Formula: C5 H5 N O3  =    14 atoms



      MOLECULAR POINT GROUP   :   C1  


          ALPHA EIGENVALUES  
 -41.55447 -39.15182 -37.54868 -35.00537 -34.27879 -29.87458 -27.48747 -25.97398
 -23.97425 -23.49801 -22.64402 -22.18215 -21.90441 -21.01641 -20.45029 -20.08780
 -19.23953 -18.73170 -18.23201 -17.96013 -17.79883 -17.39627 -16.12809 -13.11180
  -6.41733  -6.21816  -5.39056  -4.71467  -3.70297  -3.10593  -2.84486  -2.24409
  -1.81778  -1.74594  -1.39877  -0.82441  -0.42551   0.76855   1.17232   1.66919
   2.12543


           BETA EIGENVALUES 
 -41.55556 -39.15181 -37.54846 -34.62175 -34.25809 -29.87455 -27.10227 -25.97063
 -23.96889 -23.46406 -22.49997 -22.18055 -21.90413 -21.01008 -20.44849 -19.90051
 -19.19050 -18.23313 -18.01818 -17.95723 -17.79827 -17.21168 -16.12795  -6.41701
  -6.21397  -5.39058  -4.71423  -3.70296  -3.17065  -3.10546  -2.84442  -2.23386
  -1.79247  -1.47730  -1.36800  -0.82163  -0.42370   0.95402   1.17233   1.90775
   2.30171


              NET ATOMIC CHARGES AND DIPOLE CONTRIBUTIONS

  ATOM NO.   TYPE          CHARGE      No. of ELECS.   s-Pop       p-Pop       
    1          N           0.008885        4.9911     1.82442     3.16669
    2          C          -0.066827        4.0668     1.11251     2.95431
    3          C           0.510405        3.4896     1.08492     2.40467
    4          C          -0.106650        4.1066     1.13715     2.96950
    5          O          -0.578662        6.5787     1.81890     4.75977
    6          C          -0.454918        4.4549     1.08176     3.37316
    7          C           0.602247        3.3978     1.20158     2.19618
    8          O           0.110610        5.8894     1.86845     4.02094
    9          O          -0.272993        6.2730     1.88128     4.39171
   10          H           0.148910        0.8511     0.85109
   11          H           0.165473        0.8345     0.83453
   12          H           0.385222        0.6148     0.61478
   13          H           0.279205        0.7208     0.72079
   14          H           0.269092        0.7309     0.73091
 DIPOLE           X         Y         Z       TOTAL
 POINT-CHG.     2.176    -2.348     4.603     5.607
 HYBRID         0.034    -1.562    -0.285     1.589
 SUM            2.209    -3.911     4.318     6.231


          ATOMIC ORBITAL ELECTRON POPULATIONS

     Atom    s        px        py        pz   
    1  N   1.82442   0.96552   1.20631   0.99486
    2  C   1.11251   1.01450   0.93702   1.00279
    3  C   1.08492   0.72856   0.87031   0.80579
    4  C   1.13715   1.06719   1.08692   0.81539
    5  O   1.81890   1.54269   1.81724   1.39984
    6  C   1.08176   1.25296   0.92778   1.19242
    7  C   1.20158   0.64876   0.88829   0.65913
    8  O   1.86845   1.42597   1.19739   1.39757
    9  O   1.88128   1.35459   1.55338   1.48374
   10  H   0.85109
   11  H   0.83453
   12  H   0.61478
   13  H   0.72079
   14  H   0.73091


                    (SZ)    =    0.500000
                    (S**2)  =    0.751893


          ATOMIC ORBITAL SPIN POPULATIONS

    Atom   Total    s     px     py     pz   
         Atomic
    1  N  0.0000  0.000  0.000  0.000  0.000
    2  C -0.0000 -0.000 -0.000 -0.000 -0.000
    3  C -0.0000 -0.000 -0.000 -0.000 -0.000
    4  C  0.9587  0.023  0.039  0.794  0.104
    5  O  0.0988  0.004 -0.003  0.094  0.004
    6  C -0.0001 -0.000 -0.000 -0.000  0.000
    7  C  0.0003  0.000  0.000  0.000  0.000
    8  O -0.0004 -0.000 -0.000  0.000 -0.000
    9  O  0.0000  0.000  0.000 -0.000 -0.000
   10  H -0.0265 -0.027
   11  H -0.0267 -0.027
   12  H -0.0041 -0.004
   13  H -0.0000 -0.000
   14  H -0.0001 -0.000

 **********************
 *                    *
 * JOB ENDED NORMALLY *
 *                    *
 **********************



 TOTAL JOB TIME:             1.70 SECONDS

 == MOPAC DONE ==
