 *******************************************************************************
 **                                                                           **
 **                              MOPAC v23.2                                  **
 **                                                                           **
 *******************************************************************************
 **          Digital Object Identifier (DOI): 10.5281/zenodo.6511958          **
 **    Visit the DOI location for information on how to cite this program.    **
 *******************************************************************************

                              PM7 CALCULATION RESULTS

 *******************************************************************************
 *  CALCULATION DONE: (MAX THREADS = 40)             Fri Sep 19 21:30:47 2025  *
 *  PM7        - The PM7 Hamiltonian to be used
 *
 *
 *
 *                 CHARGE ON SYSTEM = +1
 *
 *
 *
 *  EPS=37.5   - USE ANDREAS KLAMT'S COSMO IMPLICIT SOLVATION MODEL
 *  1SCF       - DO 1 SCF AND THEN STOP 
 *  T=         - A TIME OF 172800.0 SECONDS REQUESTED
 *  DUMP=N     - RESTART FILE WRITTEN EVERY 7200.0 SECONDS REQUESTED
 *  RELSCF     - DEFAULT SCF CRITERION MULTIPLIED BY 0.0001
 *              (DEFAULT SCF CRITERION = 0.00010)
 *  GRADIENTS  - ALL GRADIENTS TO BE PRINTED
 *  DISP       - PRINT DISPERSION AND HYDROGEN BOND ENERGIES
 *******************************************************************************
PM7 1SCF GRADIENTS EPS=37.5 DISP RELSCF=0.0001 CHARGE=1
 Title: ASE calculation

   ATOM   CHEMICAL          X               Y               Z
  NUMBER   SYMBOL      (ANGSTROMS)     (ANGSTROMS)     (ANGSTROMS)

     1       N         -2.86311863  *   1.36822528  *   0.86115727  *
     2       C         -1.91511698  *   0.63922175  *   0.50423706  *
     3       C         -0.48486339  *   0.34630385  *   0.97012427  *
     4       C          0.00184145  *  -0.64961642  *   0.00998883  *
     5       N          1.19731655  *  -1.29171360  *  -0.08966031  *
     6       O          2.07171745  *  -0.95030624  *   0.82604615  *
     7       C         -1.06635246  *  -0.93506887  *  -0.96642367  *
     8       O         -2.18847301  *  -0.14249256  *  -0.62857472  *
     9       H         -2.91751365  *   2.00800914  *   1.62697534  *
    10       H         -0.47245789  *   0.00139969  *   2.03770139  *
    11       H          0.12660972  *   1.28642376  *   1.00726666  *
    12       H          2.91751365  *  -1.54391955  *   0.59263454  *
    13       H         -1.41418951  *  -2.00800914  *  -0.98675505  *
    14       H         -0.80498981  *  -0.69768161  *  -2.03770139  *



          CARTESIAN COORDINATES 

    NO.       ATOM           X           Y           Z

     1         N         -2.8631      1.3682      0.8612
     2         C         -1.9151      0.6392      0.5042
     3         C         -0.4849      0.3463      0.9701
     4         C          0.0018     -0.6496      0.0100
     5         N          1.1973     -1.2917     -0.0897
     6         O          2.0717     -0.9503      0.8260
     7         C         -1.0664     -0.9351     -0.9664
     8         O         -2.1885     -0.1425     -0.6286
     9         H         -2.9175      2.0080      1.6270
    10         H         -0.4725      0.0014      2.0377
    11         H          0.1266      1.2864      1.0073
    12         H          2.9175     -1.5439      0.5926
    13         H         -1.4142     -2.0080     -0.9868
    14         H         -0.8050     -0.6977     -2.0377

 General Reference for PM7:
 "Optimization of Parameters for Semiempirical Methods VI: More Modifications to the 
 NDDO Approximations and Re-optimization of Parameters", J. J. P. Stewart, J. Mol. Mod., 1:32, 19 (2013)
 https://link.springer.com/article/10.1007/s00894-012-1667-x

           Empirical Formula: C4 H6 N2 O2  =    14 atoms



      MOLECULAR POINT GROUP   :   Cs  


          UHF CALCULATION, NO. OF ALPHA ELECTRONS =   22
                           NO. OF BETA  ELECTRONS =   21
  SCF CRITERION =    0.1000E-07

 -------------------------------------------------------------------------------
 PM7 1SCF GRADIENTS EPS=37.5 DISP RELSCF=0.0001 CHARGE=1
 Title: ASE calculation



     1SCF WAS SPECIFIED, SO BFGS WAS NOT USED                 
     SCF FIELD WAS ACHIEVED                                   


                              PM7 CALCULATION
                                                       MOPAC v23.2 Linux
                                                       Fri Sep 19 21:30:48 2025




          FINAL HEAT OF FORMATION =        128.92768 KCAL/MOL =     539.43340 KJ/MOL

          TOTAL ENERGY            =     -35211.80913 KCAL/MOL = ELECTRONIC ENERGY + CORE-CORE REPULSION + SOLVATION ENERGY
          ENERGY OF ATOMS         =      35341.90304 KCAL/MOL
                              SUM =        130.09391 KCAL/MOL
          DISPERSION ENERGY       =         -1.16623 KCAL/MOL
                              SUM =        128.92768 KCAL/MOL = FINAL HEAT OF FORMATION

          VAN DER WAALS AREA      =        142.22 SQUARE ANGSTROMS


          TOTAL ENERGY            =      -1526.92856 EV
          ELECTRONIC ENERGY       =      -1898.24543 EV 
          CORE-CORE REPULSION     =        371.31687 EV

          DIELECTRIC ENERGY       =         -3.31552 EV
          COSMO AREA              =        142.22 SQUARE ANGSTROMS
          COSMO VOLUME            =        130.10 CUBIC ANGSTROMS

          GRADIENT NORM           =         51.67735          =       13.81135 PER ATOM
          IONIZATION POTENTIAL    =         11.272328 EV
          ALPHA SOMO LUMO (EV)    =        -11.276 -1.874
          BETA  SOMO LUMO (EV)    =        -11.272 -3.854
          NO. OF ALPHA ELECTRONS  =         22
          NO. OF BETA  ELECTRONS  =         21
          MOLECULAR WEIGHT        =        114.1036         POINT GROUP:  Cs  

          MOLECULAR DIMENSIONS (Angstroms)

            Atom       Atom       Distance
            H    12    H     9     6.90895
            H    10    H    14     4.09071
            H    11    H    13     3.19065


          SCF CALCULATIONS        =          2

          WALL-CLOCK TIME         =      1.461 SECONDS
          COMPUTATION TIME        =      1.702 SECONDS

          LARGEST ATOMIC GRADIENTS

          Atom     Label                     Cartesian Gradients           Cartesian Coordinates       |Gradient|
                                           X          Y          Z        X          Y          Z

             2       C                 -27.286     14.340      2.005   -1.91512    0.63922    0.50424     30.889
             1       N                  23.305     -7.029      4.823   -2.86312    1.36823    0.86116     24.815
             3       C                  14.933     -0.969      7.333   -0.48486    0.34630    0.97012     16.665
             4       C                 -13.040      3.416     -3.417    0.00184   -0.64962    0.00999     13.906
             7       C                  -0.349      8.399     10.373   -1.06635   -0.93507   -0.96642     13.352
             8       O                   4.425     -7.762     -7.070   -2.18847   -0.14249   -0.62857     11.394
             6       O                   9.610     -1.486      4.089    2.07172   -0.95031    0.82605     10.549
             9       H                  -7.027     -1.401     -5.947   -2.91751    2.00801    1.62698      9.311
             5       N                   5.243     -5.568     -3.796    1.19732   -1.29171   -0.08966      8.538
            12       H                  -3.920      1.660     -0.598    2.91751   -1.54392    0.59263      4.299



       FINAL  POINT  AND  DERIVATIVES

   PARAMETER     ATOM    TYPE            VALUE        GRADIENT
      1          1  N    CARTESIAN X    -2.863119     23.304758  KCAL/ANGSTROM
      2          1  N    CARTESIAN Y     1.368225     -7.028764  KCAL/ANGSTROM
      3          1  N    CARTESIAN Z     0.861157      4.823272  KCAL/ANGSTROM
      4          2  C    CARTESIAN X    -1.915117    -27.285694  KCAL/ANGSTROM
      5          2  C    CARTESIAN Y     0.639222     14.339739  KCAL/ANGSTROM
      6          2  C    CARTESIAN Z     0.504237      2.004795  KCAL/ANGSTROM
      7          3  C    CARTESIAN X    -0.484863     14.933450  KCAL/ANGSTROM
      8          3  C    CARTESIAN Y     0.346304     -0.968989  KCAL/ANGSTROM
      9          3  C    CARTESIAN Z     0.970124      7.332747  KCAL/ANGSTROM
     10          4  C    CARTESIAN X     0.001841    -13.039917  KCAL/ANGSTROM
     11          4  C    CARTESIAN Y    -0.649616      3.416226  KCAL/ANGSTROM
     12          4  C    CARTESIAN Z     0.009989     -3.417266  KCAL/ANGSTROM
     13          5  N    CARTESIAN X     1.197317      5.243123  KCAL/ANGSTROM
     14          5  N    CARTESIAN Y    -1.291714     -5.567550  KCAL/ANGSTROM
     15          5  N    CARTESIAN Z    -0.089660     -3.795918  KCAL/ANGSTROM
     16          6  O    CARTESIAN X     2.071717      9.609616  KCAL/ANGSTROM
     17          6  O    CARTESIAN Y    -0.950306     -1.486294  KCAL/ANGSTROM
     18          6  O    CARTESIAN Z     0.826046      4.089473  KCAL/ANGSTROM
     19          7  C    CARTESIAN X    -1.066352     -0.348805  KCAL/ANGSTROM
     20          7  C    CARTESIAN Y    -0.935069      8.399357  KCAL/ANGSTROM
     21          7  C    CARTESIAN Z    -0.966424     10.372904  KCAL/ANGSTROM
     22          8  O    CARTESIAN X    -2.188473      4.425029  KCAL/ANGSTROM
     23          8  O    CARTESIAN Y    -0.142493     -7.761993  KCAL/ANGSTROM
     24          8  O    CARTESIAN Z    -0.628575     -7.069926  KCAL/ANGSTROM
     25          9  H    CARTESIAN X    -2.917514     -7.026703  KCAL/ANGSTROM
     26          9  H    CARTESIAN Y     2.008009     -1.400866  KCAL/ANGSTROM
     27          9  H    CARTESIAN Z     1.626975     -5.946558  KCAL/ANGSTROM
     28         10  H    CARTESIAN X    -0.472458     -1.714720  KCAL/ANGSTROM
     29         10  H    CARTESIAN Y     0.001400      0.237542  KCAL/ANGSTROM
     30         10  H    CARTESIAN Z     2.037701     -2.002854  KCAL/ANGSTROM
     31         11  H    CARTESIAN X     0.126610     -2.232243  KCAL/ANGSTROM
     32         11  H    CARTESIAN Y     1.286424     -0.977268  KCAL/ANGSTROM
     33         11  H    CARTESIAN Z     1.007267     -1.172544  KCAL/ANGSTROM
     34         12  H    CARTESIAN X     2.917514     -3.919978  KCAL/ANGSTROM
     35         12  H    CARTESIAN Y    -1.543920      1.659710  KCAL/ANGSTROM
     36         12  H    CARTESIAN Z     0.592635     -0.597559  KCAL/ANGSTROM
     37         13  H    CARTESIAN X    -1.414190     -1.260258  KCAL/ANGSTROM
     38         13  H    CARTESIAN Y    -2.008009     -1.981890  KCAL/ANGSTROM
     39         13  H    CARTESIAN Z    -0.986755     -1.910378  KCAL/ANGSTROM
     40         14  H    CARTESIAN X    -0.804990     -0.687660  KCAL/ANGSTROM
     41         14  H    CARTESIAN Y    -0.697682     -0.878964  KCAL/ANGSTROM
     42         14  H    CARTESIAN Z    -2.037701     -2.710190  KCAL/ANGSTROM




   ATOM   CHEMICAL          X               Y               Z
  NUMBER   SYMBOL      (ANGSTROMS)     (ANGSTROMS)     (ANGSTROMS)

     1       N         -2.86311863  *   1.36822528  *   0.86115727  *
     2       C         -1.91511698  *   0.63922175  *   0.50423706  *
     3       C         -0.48486339  *   0.34630385  *   0.97012427  *
     4       C          0.00184145  *  -0.64961642  *   0.00998883  *
     5       N          1.19731655  *  -1.29171360  *  -0.08966031  *
     6       O          2.07171745  *  -0.95030624  *   0.82604615  *
     7       C         -1.06635246  *  -0.93506887  *  -0.96642367  *
     8       O         -2.18847301  *  -0.14249256  *  -0.62857472  *
     9       H         -2.91751365  *   2.00800914  *   1.62697534  *
    10       H         -0.47245789  *   0.00139969  *   2.03770139  *
    11       H          0.12660972  *   1.28642376  *   1.00726666  *
    12       H          2.91751365  *  -1.54391955  *   0.59263454  *
    13       H         -1.41418951  *  -2.00800914  *  -0.98675505  *
    14       H         -0.80498981  *  -0.69768161  *  -2.03770139  *

                             CARTESIAN COORDINATES

   1    N       -2.863118630     1.368225282     0.861157274
   2    C       -1.915116983     0.639221754     0.504237064
   3    C       -0.484863388     0.346303851     0.970124273
   4    C        0.001841450    -0.649616423     0.009988830
   5    N        1.197316554    -1.291713599    -0.089660310
   6    O        2.071717448    -0.950306243     0.826046152
   7    C       -1.066352460    -0.935068873    -0.966423666
   8    O       -2.188473013    -0.142492560    -0.628574717
   9    H       -2.917513647     2.008009141     1.626975336
  10    H       -0.472457887     0.001399693     2.037701389
  11    H        0.126609719     1.286423758     1.007266655
  12    H        2.917513647    -1.543919555     0.592634540
  13    H       -1.414189512    -2.008009141    -0.986755050
  14    H       -0.804989812    -0.697681612    -2.037701389


           Empirical Formula: C4 H6 N2 O2  =    14 atoms



      MOLECULAR POINT GROUP   :   Cs  


          ALPHA EIGENVALUES  
 -37.42731 -36.47576 -33.01779 -31.63993 -28.06991 -25.94425 -22.26825 -21.50331
 -19.19555 -19.13232 -18.20402 -17.63796 -16.67930 -16.55880 -15.24139 -14.89924
 -14.66616 -13.97995 -13.04027 -11.95957 -11.28177 -11.27569  -1.87400  -0.43998
   0.33873   0.48529   1.46097   1.58413   2.12284   2.69105   3.19916   3.45031
   3.69895   4.07455   4.14376   4.70203   4.98503   6.63107


           BETA EIGENVALUES 
 -36.55514 -36.48046 -32.50468 -30.46405 -27.84151 -25.82479 -22.18815 -21.25960
 -19.05095 -18.83067 -17.79087 -17.48252 -16.52086 -15.32686 -15.03237 -14.83753
 -14.62983 -13.51410 -12.76813 -11.28871 -11.27233  -3.85352  -0.60595   0.01510
   0.33994   0.50873   1.50569   1.66154   2.26087   2.79253   3.24578   3.60871
   3.70269   4.11159   4.20962   4.73724   5.00741   6.62925


              NET ATOMIC CHARGES AND DIPOLE CONTRIBUTIONS

  ATOM NO.   TYPE          CHARGE      No. of ELECS.   s-Pop       p-Pop       
    1          N          -0.616992        5.6170     1.68360     3.93339
    2          C           0.459830        3.5402     1.07764     2.46253
    3          C          -0.451607        4.4516     1.08081     3.37079
    4          C           0.388800        3.6112     1.14600     2.46520
    5          N          -0.223351        5.2234     1.81402     3.40933
    6          O           0.117439        5.8826     1.91273     3.96983
    7          C          -0.109298        4.1093     1.09895     3.01035
    8          O          -0.354478        6.3545     1.87956     4.47492
    9          H           0.355574        0.6444     0.64443
   10          H           0.270451        0.7295     0.72955
   11          H           0.271600        0.7284     0.72840
   12          H           0.401877        0.5981     0.59812
   13          H           0.244971        0.7550     0.75503
   14          H           0.245184        0.7548     0.75482
 DIPOLE           X         Y         Z       TOTAL
 POINT-CHG.     9.990    -3.045     1.994    10.632
 HYBRID         0.657     0.617     1.145     1.457
 SUM           10.647    -2.428     3.139    11.363


          ATOMIC ORBITAL ELECTRON POPULATIONS

     Atom    s        px        py        pz   
    1  N   1.68360   1.36183   1.21511   1.35646
    2  C   1.07764   0.82725   0.82961   0.80568
    3  C   1.08081   1.08773   1.14038   1.14268
    4  C   1.14600   0.86954   0.74131   0.85435
    5  N   1.81402   1.04636   1.21433   1.14864
    6  O   1.91273   1.28576   1.42497   1.25910
    7  C   1.09895   0.85859   1.07415   1.07761
    8  O   1.87956   1.38925   1.58246   1.50321
    9  H   0.64443
   10  H   0.72955
   11  H   0.72840
   12  H   0.59812
   13  H   0.75503
   14  H   0.75482


                    (SZ)    =    0.500000
                    (S**2)  =    0.757718


          ATOMIC ORBITAL SPIN POPULATIONS

    Atom   Total    s     px     py     pz   
         Atomic
    1  N -0.0038 -0.000 -0.001 -0.002 -0.001
    2  C  0.0010 -0.000  0.000  0.001  0.000
    3  C  0.0012 -0.002 -0.000  0.003 -0.000
    4  C  0.2193  0.004  0.024  0.115  0.076
    5  N  0.2126  0.006  0.027  0.113  0.067
    6  O  0.5280  0.010  0.074  0.258  0.185
    7  C  0.0014 -0.002 -0.002  0.006 -0.000
    8  O  0.0058  0.000  0.000  0.003  0.002
    9  H  0.0001  0.000
   10  H  0.0123  0.012
   11  H  0.0124  0.012
   12  H -0.0257 -0.026
   13  H  0.0178  0.018
   14  H  0.0177  0.018

 **********************
 *                    *
 * JOB ENDED NORMALLY *
 *                    *
 **********************



 TOTAL JOB TIME:             2.00 SECONDS

 == MOPAC DONE ==
