 *******************************************************************************
 **                                                                           **
 **                              MOPAC v23.2                                  **
 **                                                                           **
 *******************************************************************************
 **          Digital Object Identifier (DOI): 10.5281/zenodo.6511958          **
 **    Visit the DOI location for information on how to cite this program.    **
 *******************************************************************************

                              PM7 CALCULATION RESULTS

 *******************************************************************************
 *  CALCULATION DONE: (MAX THREADS = 40)             Fri Sep 19 21:32:26 2025  *
 *  PM7        - The PM7 Hamiltonian to be used
 *
 *
 *
 *                 CHARGE ON SYSTEM = +1
 *
 *
 *
 *  EPS=37.5   - USE ANDREAS KLAMT'S COSMO IMPLICIT SOLVATION MODEL
 *  1SCF       - DO 1 SCF AND THEN STOP 
 *  T=         - A TIME OF 172800.0 SECONDS REQUESTED
 *  DUMP=N     - RESTART FILE WRITTEN EVERY 7200.0 SECONDS REQUESTED
 *  RELSCF     - DEFAULT SCF CRITERION MULTIPLIED BY 0.0001
 *              (DEFAULT SCF CRITERION = 0.00010)
 *  GRADIENTS  - ALL GRADIENTS TO BE PRINTED
 *  DISP       - PRINT DISPERSION AND HYDROGEN BOND ENERGIES
 *******************************************************************************
PM7 1SCF GRADIENTS EPS=37.5 DISP RELSCF=0.0001 CHARGE=1
 Title: ASE calculation

   ATOM   CHEMICAL          X               Y               Z
  NUMBER   SYMBOL      (ANGSTROMS)     (ANGSTROMS)     (ANGSTROMS)

     1       C          2.03493617  *  -1.22001549  *   1.46883820  *
     2       C          2.02883805  *   0.04828633  *   0.73061113  *
     3       C          0.87126677  *   1.55695415  *  -0.86697139  *
     4       C         -0.43374414  *   1.06660635  *  -1.42030291  *
     5       C         -0.20879735  *  -0.20486932  *  -0.56820344  *
     6       C         -0.48639044  *  -1.63297887  *  -0.91033469  *
     7       C         -1.22802913  *  -1.00846410  *   0.24805778  *
     8       O         -2.52390441  *  -0.66889234  *  -0.06481999  *
     9       N          1.06713425  *   0.40630397  *  -0.10033174  *
    10       H          1.67609889  *  -1.08634874  *   2.51392668  *
    11       H          1.43047143  *  -2.02896474  *   1.02886628  *
    12       H          3.06376476  *  -1.63158755  *   1.57497541  *
    13       H          2.87281713  *   0.74716701  *   0.89350307  *
    14       H          1.47845708  *   2.42587075  *  -0.97969605  *
    15       H         -0.47094328  *   0.90995315  *  -2.51392668  *
    16       H         -1.33532953  *   1.65016730  *  -1.15256432  *
    17       H         -1.03637698  *  -1.84945179  *  -1.84039190  *
    18       H          0.24234778  *  -2.42587075  *  -0.75463753  *
    19       H         -1.04666513  *  -1.29045087  *   1.28454957  *
    20       H         -3.06376476  *  -0.48916497  *   0.74823032  *



          CARTESIAN COORDINATES 

    NO.       ATOM           X           Y           Z

     1         C          2.0349     -1.2200      1.4688
     2         C          2.0288      0.0483      0.7306
     3         C          0.8713      1.5570     -0.8670
     4         C         -0.4337      1.0666     -1.4203
     5         C         -0.2088     -0.2049     -0.5682
     6         C         -0.4864     -1.6330     -0.9103
     7         C         -1.2280     -1.0085      0.2481
     8         O         -2.5239     -0.6689     -0.0648
     9         N          1.0671      0.4063     -0.1003
    10         H          1.6761     -1.0863      2.5139
    11         H          1.4305     -2.0290      1.0289
    12         H          3.0638     -1.6316      1.5750
    13         H          2.8728      0.7472      0.8935
    14         H          1.4785      2.4259     -0.9797
    15         H         -0.4709      0.9100     -2.5139
    16         H         -1.3353      1.6502     -1.1526
    17         H         -1.0364     -1.8495     -1.8404
    18         H          0.2423     -2.4259     -0.7546
    19         H         -1.0467     -1.2905      1.2845
    20         H         -3.0638     -0.4892      0.7482

 General Reference for PM7:
 "Optimization of Parameters for Semiempirical Methods VI: More Modifications to the 
 NDDO Approximations and Re-optimization of Parameters", J. J. P. Stewart, J. Mol. Mod., 1:32, 19 (2013)
 https://link.springer.com/article/10.1007/s00894-012-1667-x

           Empirical Formula: C7 H11 N O  =    20 atoms



      MOLECULAR POINT GROUP   :   C1  


          UHF CALCULATION, NO. OF ALPHA ELECTRONS =   25
                           NO. OF BETA  ELECTRONS =   24
  SCF CRITERION =    0.1000E-07

 -------------------------------------------------------------------------------
 PM7 1SCF GRADIENTS EPS=37.5 DISP RELSCF=0.0001 CHARGE=1
 Title: ASE calculation



     1SCF WAS SPECIFIED, SO BFGS WAS NOT USED                 
     SCF FIELD WAS ACHIEVED                                   


                              PM7 CALCULATION
                                                       MOPAC v23.2 Linux
                                                       Fri Sep 19 21:32:27 2025




          FINAL HEAT OF FORMATION =        135.18997 KCAL/MOL =     565.63483 KJ/MOL

          TOTAL ENERGY            =     -34186.55154 KCAL/MOL = ELECTRONIC ENERGY + CORE-CORE REPULSION + SOLVATION ENERGY
          ENERGY OF ATOMS         =      34323.93363 KCAL/MOL
                              SUM =        137.38209 KCAL/MOL
          DISPERSION ENERGY       =         -2.19212 KCAL/MOL
                              SUM =        135.18997 KCAL/MOL = FINAL HEAT OF FORMATION

          VAN DER WAALS AREA      =        168.12 SQUARE ANGSTROMS


          TOTAL ENERGY            =      -1482.46918 EV
          ELECTRONIC ENERGY       =      -2247.59472 EV 
          CORE-CORE REPULSION     =        765.12553 EV

          DIELECTRIC ENERGY       =         -2.31293 EV
          COSMO AREA              =        168.12 SQUARE ANGSTROMS
          COSMO VOLUME            =        167.90 CUBIC ANGSTROMS

          GRADIENT NORM           =         14.74471          =       3.29702 PER ATOM
          IONIZATION POTENTIAL    =          9.727719 EV
          ALPHA SOMO LUMO (EV)    =         -9.728 -1.031
          BETA  SOMO LUMO (EV)    =        -10.884 -1.565
          NO. OF ALPHA ELECTRONS  =         25
          NO. OF BETA  ELECTRONS  =         24
          MOLECULAR WEIGHT        =        125.1700         POINT GROUP:  C1  

          MOLECULAR DIMENSIONS (Angstroms)

            Atom       Atom       Distance
            H    20    H    12     6.28771
            H    18    H    14     5.00319
            H    15    H    10     4.56858


          SCF CALCULATIONS        =          2

          WALL-CLOCK TIME         =      1.141 SECONDS
          COMPUTATION TIME        =      0.753 SECONDS

          LARGEST ATOMIC GRADIENTS

          Atom     Label                     Cartesian Gradients           Cartesian Coordinates       |Gradient|
                                           X          Y          Z        X          Y          Z

             7       C                  -7.710     -2.258      2.829   -1.22803   -1.00846    0.24806      8.517
             9       N                  -2.610      3.625     -4.093    1.06713    0.40630   -0.10033      6.059
             2       C                   4.258      0.959      1.544    2.02884    0.04829    0.73061      4.629
             8       O                   4.247      1.251      1.185   -2.52390   -0.66889   -0.06482      4.584
             6       C                   2.792      0.622      3.020   -0.48639   -1.63298   -0.91033      4.160
             4       C                   2.476      0.365      1.450   -0.43374    1.06661   -1.42030      2.892
            17       H                  -1.973     -0.825     -1.115   -1.03638   -1.84945   -1.84039      2.412
            20       H                  -0.455     -0.999     -2.121   -3.06376   -0.48916    0.74823      2.388
             3       C                   0.137     -2.033      1.214    0.87127    1.55695   -0.86697      2.372
             5       C                   0.233      1.052     -1.653   -0.20880   -0.20487   -0.56820      1.973



       FINAL  POINT  AND  DERIVATIVES

   PARAMETER     ATOM    TYPE            VALUE        GRADIENT
      1          1  C    CARTESIAN X     2.034936     -0.621981  KCAL/ANGSTROM
      2          1  C    CARTESIAN Y    -1.220015      0.991674  KCAL/ANGSTROM
      3          1  C    CARTESIAN Z     1.468838      1.190756  KCAL/ANGSTROM
      4          2  C    CARTESIAN X     2.028838      4.257709  KCAL/ANGSTROM
      5          2  C    CARTESIAN Y     0.048286      0.959271  KCAL/ANGSTROM
      6          2  C    CARTESIAN Z     0.730611      1.543764  KCAL/ANGSTROM
      7          3  C    CARTESIAN X     0.871267      0.137230  KCAL/ANGSTROM
      8          3  C    CARTESIAN Y     1.556954     -2.033022  KCAL/ANGSTROM
      9          3  C    CARTESIAN Z    -0.866971      1.213528  KCAL/ANGSTROM
     10          4  C    CARTESIAN X    -0.433744      2.475907  KCAL/ANGSTROM
     11          4  C    CARTESIAN Y     1.066606      0.364615  KCAL/ANGSTROM
     12          4  C    CARTESIAN Z    -1.420303      1.450035  KCAL/ANGSTROM
     13          5  C    CARTESIAN X    -0.208797      0.232576  KCAL/ANGSTROM
     14          5  C    CARTESIAN Y    -0.204869      1.051658  KCAL/ANGSTROM
     15          5  C    CARTESIAN Z    -0.568203     -1.652882  KCAL/ANGSTROM
     16          6  C    CARTESIAN X    -0.486390      2.791893  KCAL/ANGSTROM
     17          6  C    CARTESIAN Y    -1.632979      0.622326  KCAL/ANGSTROM
     18          6  C    CARTESIAN Z    -0.910335      3.019889  KCAL/ANGSTROM
     19          7  C    CARTESIAN X    -1.228029     -7.710085  KCAL/ANGSTROM
     20          7  C    CARTESIAN Y    -1.008464     -2.257882  KCAL/ANGSTROM
     21          7  C    CARTESIAN Z     0.248058      2.828663  KCAL/ANGSTROM
     22          8  O    CARTESIAN X    -2.523904      4.247472  KCAL/ANGSTROM
     23          8  O    CARTESIAN Y    -0.668892      1.251195  KCAL/ANGSTROM
     24          8  O    CARTESIAN Z    -0.064820      1.185481  KCAL/ANGSTROM
     25          9  N    CARTESIAN X     1.067134     -2.610402  KCAL/ANGSTROM
     26          9  N    CARTESIAN Y     0.406304      3.625339  KCAL/ANGSTROM
     27          9  N    CARTESIAN Z    -0.100332     -4.093222  KCAL/ANGSTROM
     28         10  H    CARTESIAN X     1.676099      0.389918  KCAL/ANGSTROM
     29         10  H    CARTESIAN Y    -1.086349     -0.619898  KCAL/ANGSTROM
     30         10  H    CARTESIAN Z     2.513927      0.534056  KCAL/ANGSTROM
     31         11  H    CARTESIAN X     1.430471      0.527420  KCAL/ANGSTROM
     32         11  H    CARTESIAN Y    -2.028965     -0.529007  KCAL/ANGSTROM
     33         11  H    CARTESIAN Z     1.028866     -0.258390  KCAL/ANGSTROM
     34         12  H    CARTESIAN X     3.063765      0.959823  KCAL/ANGSTROM
     35         12  H    CARTESIAN Y    -1.631588     -1.021699  KCAL/ANGSTROM
     36         12  H    CARTESIAN Z     1.574975      0.403952  KCAL/ANGSTROM
     37         13  H    CARTESIAN X     2.872817     -0.180765  KCAL/ANGSTROM
     38         13  H    CARTESIAN Y     0.747167     -1.121414  KCAL/ANGSTROM
     39         13  H    CARTESIAN Z     0.893503      0.621312  KCAL/ANGSTROM
     40         14  H    CARTESIAN X     1.478457     -0.044286  KCAL/ANGSTROM
     41         14  H    CARTESIAN Y     2.425871      0.622351  KCAL/ANGSTROM
     42         14  H    CARTESIAN Z    -0.979696     -0.771469  KCAL/ANGSTROM
     43         15  H    CARTESIAN X    -0.470943     -0.710679  KCAL/ANGSTROM
     44         15  H    CARTESIAN Y     0.909953      0.154155  KCAL/ANGSTROM
     45         15  H    CARTESIAN Z    -2.513927     -1.136278  KCAL/ANGSTROM
     46         16  H    CARTESIAN X    -1.335330     -1.536413  KCAL/ANGSTROM
     47         16  H    CARTESIAN Y     1.650167     -0.046907  KCAL/ANGSTROM
     48         16  H    CARTESIAN Z    -1.152564     -0.300524  KCAL/ANGSTROM
     49         17  H    CARTESIAN X    -1.036377     -1.973218  KCAL/ANGSTROM
     50         17  H    CARTESIAN Y    -1.849452     -0.824958  KCAL/ANGSTROM
     51         17  H    CARTESIAN Z    -1.840392     -1.114623  KCAL/ANGSTROM
     52         18  H    CARTESIAN X     0.242348     -1.165384  KCAL/ANGSTROM
     53         18  H    CARTESIAN Y    -2.425871      0.032118  KCAL/ANGSTROM
     54         18  H    CARTESIAN Z    -0.754638     -1.061133  KCAL/ANGSTROM
     55         19  H    CARTESIAN X    -1.046665      0.987931  KCAL/ANGSTROM
     56         19  H    CARTESIAN Y    -1.290451     -0.220865  KCAL/ANGSTROM
     57         19  H    CARTESIAN Z     1.284550     -1.482006  KCAL/ANGSTROM
     58         20  H    CARTESIAN X    -3.063765     -0.454669  KCAL/ANGSTROM
     59         20  H    CARTESIAN Y    -0.489165     -0.999053  KCAL/ANGSTROM
     60         20  H    CARTESIAN Z     0.748230     -2.120909  KCAL/ANGSTROM




   ATOM   CHEMICAL          X               Y               Z
  NUMBER   SYMBOL      (ANGSTROMS)     (ANGSTROMS)     (ANGSTROMS)

     1       C          2.03493617  *  -1.22001549  *   1.46883820  *
     2       C          2.02883805  *   0.04828633  *   0.73061113  *
     3       C          0.87126677  *   1.55695415  *  -0.86697139  *
     4       C         -0.43374414  *   1.06660635  *  -1.42030291  *
     5       C         -0.20879735  *  -0.20486932  *  -0.56820344  *
     6       C         -0.48639044  *  -1.63297887  *  -0.91033469  *
     7       C         -1.22802913  *  -1.00846410  *   0.24805778  *
     8       O         -2.52390441  *  -0.66889234  *  -0.06481999  *
     9       N          1.06713425  *   0.40630397  *  -0.10033174  *
    10       H          1.67609889  *  -1.08634874  *   2.51392668  *
    11       H          1.43047143  *  -2.02896474  *   1.02886628  *
    12       H          3.06376476  *  -1.63158755  *   1.57497541  *
    13       H          2.87281713  *   0.74716701  *   0.89350307  *
    14       H          1.47845708  *   2.42587075  *  -0.97969605  *
    15       H         -0.47094328  *   0.90995315  *  -2.51392668  *
    16       H         -1.33532953  *   1.65016730  *  -1.15256432  *
    17       H         -1.03637698  *  -1.84945179  *  -1.84039190  *
    18       H          0.24234778  *  -2.42587075  *  -0.75463753  *
    19       H         -1.04666513  *  -1.29045087  *   1.28454957  *
    20       H         -3.06376476  *  -0.48916497  *   0.74823032  *

                             CARTESIAN COORDINATES

   1    C        2.034936173    -1.220015486     1.468838203
   2    C        2.028838045     0.048286331     0.730611127
   3    C        0.871266774     1.556954148    -0.866971386
   4    C       -0.433744137     1.066606355    -1.420302912
   5    C       -0.208797345    -0.204869322    -0.568203442
   6    C       -0.486390442    -1.632978866    -0.910334692
   7    C       -1.228029134    -1.008464097     0.248057783
   8    O       -2.523904413    -0.668892339    -0.064819988
   9    N        1.067134253     0.406303969    -0.100331743
  10    H        1.676098894    -1.086348742     2.513926676
  11    H        1.430471432    -2.028964737     1.028866277
  12    H        3.063764759    -1.631587551     1.574975407
  13    H        2.872817134     0.747167010     0.893503068
  14    H        1.478457084     2.425870751    -0.979696049
  15    H       -0.470943276     0.909953145    -2.513926676
  16    H       -1.335329532     1.650167297    -1.152564317
  17    H       -1.036376982    -1.849451790    -1.840391897
  18    H        0.242347782    -2.425870751    -0.754637526
  19    H       -1.046665125    -1.290450866     1.284549570
  20    H       -3.063764759    -0.489164971     0.748230316


           Empirical Formula: C7 H11 N O  =    20 atoms



      MOLECULAR POINT GROUP   :   C1  


          ALPHA EIGENVALUES  
 -38.88252 -31.60550 -29.80105 -29.09303 -26.23273 -22.92621 -22.19785 -21.54274
 -19.38457 -18.87939 -18.24530 -17.35463 -16.96307 -15.56213 -15.25433 -14.78797
 -14.46200 -14.32308 -13.87598 -13.48271 -13.29752 -13.06782 -12.31350 -10.94878
  -9.72772  -1.03107   0.26564   1.53222   2.00321   2.01509   2.50861   2.69814
   2.84718   3.14554   3.35327   4.27086   4.41863   4.76663   4.86012   4.93821
   4.96857   5.10837   5.17437   5.55960   5.63678   5.78770   6.13226


           BETA EIGENVALUES 
 -39.26926 -31.62249 -29.73775 -29.07216 -26.20384 -22.86476 -22.06308 -21.54839
 -19.35573 -18.84837 -18.15034 -17.32392 -16.82641 -15.54448 -15.04028 -14.74466
 -14.41258 -14.25475 -13.81250 -13.50329 -13.28090 -13.06647 -12.22025 -10.88368
  -1.56469   0.20005   0.24587   1.51166   2.01724   2.10667   2.56367   2.69489
   2.96467   3.13109   3.45347   4.35642   4.46709   4.77095   4.91083   4.99951
   5.01797   5.12617   5.27321   5.55907   5.68027   5.78893   6.14799


              NET ATOMIC CHARGES AND DIPOLE CONTRIBUTIONS

  ATOM NO.   TYPE          CHARGE      No. of ELECS.   s-Pop       p-Pop       
    1          C          -0.501443        4.5014     1.05265     3.44879
    2          C           0.154709        3.8453     1.12339     2.72190
    3          C           0.017762        3.9822     1.14457     2.83767
    4          C          -0.275462        4.2755     1.07446     3.20100
    5          C           0.019214        3.9808     1.07431     2.90648
    6          C          -0.369445        4.3694     1.06701     3.30244
    7          C           0.148675        3.8513     1.07678     2.77455
    8          O          -0.552379        6.5524     1.83901     4.71337
    9          N          -0.103512        5.1035     1.52548     3.57803
   10          H           0.221309        0.7787     0.77869
   11          H           0.188723        0.8113     0.81128
   12          H           0.215602        0.7844     0.78440
   13          H           0.223793        0.7762     0.77621
   14          H           0.218154        0.7818     0.78185
   15          H           0.207401        0.7926     0.79260
   16          H           0.211666        0.7883     0.78833
   17          H           0.213349        0.7867     0.78665
   18          H           0.200162        0.7998     0.79984
   19          H           0.181342        0.8187     0.81866
   20          H           0.380382        0.6196     0.61962
 DIPOLE           X         Y         Z       TOTAL
 POINT-CHG.     4.751     1.459     2.811     5.710
 HYBRID        -0.071     0.002     0.156     0.172
 SUM            4.680     1.460     2.967     5.730


          ATOMIC ORBITAL ELECTRON POPULATIONS

     Atom    s        px        py        pz   
    1  C   1.05265   1.23920   1.04853   1.16106
    2  C   1.12339   0.90114   1.00921   0.81155
    3  C   1.14457   0.99717   0.92833   0.91217
    4  C   1.07446   1.06294   1.00232   1.13574
    5  C   1.07431   0.85298   0.97631   1.07718
    6  C   1.06701   1.15202   1.01121   1.13921
    7  C   1.07678   0.76638   0.98903   1.01913
    8  O   1.83901   1.31414   1.90177   1.49746
    9  N   1.52548   1.16351   1.19078   1.22375
   10  H   0.77869
   11  H   0.81128
   12  H   0.78440
   13  H   0.77621
   14  H   0.78185
   15  H   0.79260
   16  H   0.78833
   17  H   0.78665
   18  H   0.79984
   19  H   0.81866
   20  H   0.61962


                    (SZ)    =    0.500000
                    (S**2)  =    0.817542


          ATOMIC ORBITAL SPIN POPULATIONS

    Atom   Total    s     px     py     pz   
         Atomic
    1  C -0.0135 -0.003  0.000 -0.008 -0.003
    2  C  0.4517  0.012  0.114  0.086  0.240
    3  C  0.8401  0.023  0.197  0.162  0.458
    4  C -0.0347 -0.005 -0.019 -0.007 -0.003
    5  C  0.0297  0.003  0.013  0.004  0.009
    6  C -0.0105 -0.001 -0.001 -0.008  0.000
    7  C -0.0144 -0.001 -0.003 -0.010 -0.001
    8  O -0.0017 -0.000 -0.000 -0.001  0.000
    9  N -0.2841 -0.016 -0.067 -0.064 -0.137
   10  H  0.0196  0.020
   11  H  0.0033  0.003
   12  H  0.0078  0.008
   13  H -0.0131 -0.013
   14  H -0.0216 -0.022
   15  H  0.0204  0.020
   16  H  0.0204  0.020
   17  H  0.0004  0.000
   18  H  0.0003  0.000
   19  H  0.0001  0.000
   20  H  0.0000  0.000

 **********************
 *                    *
 * JOB ENDED NORMALLY *
 *                    *
 **********************



 TOTAL JOB TIME:             1.62 SECONDS

 == MOPAC DONE ==
