 *******************************************************************************
 **                                                                           **
 **                              MOPAC v23.2                                  **
 **                                                                           **
 *******************************************************************************
 **          Digital Object Identifier (DOI): 10.5281/zenodo.6511958          **
 **    Visit the DOI location for information on how to cite this program.    **
 *******************************************************************************

                              PM7 CALCULATION RESULTS

 *******************************************************************************
 *  CALCULATION DONE: (MAX THREADS = 40)             Fri Sep 19 21:56:51 2025  *
 *  PM7        - The PM7 Hamiltonian to be used
 *  1SCF       - DO 1 SCF AND THEN STOP 
 *  T=         - A TIME OF 172800.0 SECONDS REQUESTED
 *  DUMP=N     - RESTART FILE WRITTEN EVERY 7200.0 SECONDS REQUESTED
 *  RELSCF     - DEFAULT SCF CRITERION MULTIPLIED BY 0.0001
 *              (DEFAULT SCF CRITERION = 0.00010)
 *  GRADIENTS  - ALL GRADIENTS TO BE PRINTED
 *  DISP       - PRINT DISPERSION AND HYDROGEN BOND ENERGIES
 *******************************************************************************
PM7 1SCF GRADIENTS DISP RELSCF=0.0001
 Title: ASE calculation

   ATOM   CHEMICAL          X               Y               Z
  NUMBER   SYMBOL      (ANGSTROMS)     (ANGSTROMS)     (ANGSTROMS)

     1       C          2.69527642  *   0.63098987  *  -0.26470204  *
     2       O          1.79384445  *  -0.46091139  *  -0.18570448  *
     3       C          0.57548715  *  -0.14667843  *   0.44084807  *
     4       C         -0.28215671  *  -1.41034585  *   0.29930387  *
     5       C         -1.71578054  *  -1.09180065  *   0.64764151  *
     6       C         -2.64084042  *  -0.60501873  *  -0.44832392  *
     7       C         -2.18115418  *   0.35822645  *   0.62156311  *
     8       C         -1.17854725  *   1.43435821  *   0.27490098  *
     9       O         -0.00035811  *   0.91844961  *  -0.30983739  *
    10       H          2.97222629  *   0.97917611  *   0.73456601  *
    11       H          3.55953596  *   0.19772465  *  -0.78309281  *
    12       H          2.26597575  *   1.44693274  *  -0.85662438  *
    13       H          0.73958850  *   0.18506112  *   1.48556896  *
    14       H          0.12662587  *  -2.22128909  *   0.92957230  *
    15       H         -0.20552542  *  -1.78342146  *  -0.74566257  *
    16       H         -2.12819936  *  -1.74744732  *   1.42105474  *
    17       H         -2.25122892  *  -0.49603068  *  -1.45957419  *
    18       H         -3.67449690  *  -0.93336956  *  -0.47340064  *
    19       H         -2.90869746  *   0.68626613  *   1.37003821  *
    20       H         -0.89693994  *   2.03108796  *   1.16348698  *
    21       H         -1.55593452  *   2.10863924  *  -0.52048347  *



          CARTESIAN COORDINATES 

    NO.       ATOM           X           Y           Z

     1         C          2.6953      0.6310     -0.2647
     2         O          1.7938     -0.4609     -0.1857
     3         C          0.5755     -0.1467      0.4408
     4         C         -0.2822     -1.4103      0.2993
     5         C         -1.7158     -1.0918      0.6476
     6         C         -2.6408     -0.6050     -0.4483
     7         C         -2.1812      0.3582      0.6216
     8         C         -1.1785      1.4344      0.2749
     9         O         -0.0004      0.9184     -0.3098
    10         H          2.9722      0.9792      0.7346
    11         H          3.5595      0.1977     -0.7831
    12         H          2.2660      1.4469     -0.8566
    13         H          0.7396      0.1851      1.4856
    14         H          0.1266     -2.2213      0.9296
    15         H         -0.2055     -1.7834     -0.7457
    16         H         -2.1282     -1.7474      1.4211
    17         H         -2.2512     -0.4960     -1.4596
    18         H         -3.6745     -0.9334     -0.4734
    19         H         -2.9087      0.6863      1.3700
    20         H         -0.8969      2.0311      1.1635
    21         H         -1.5559      2.1086     -0.5205

 General Reference for PM7:
 "Optimization of Parameters for Semiempirical Methods VI: More Modifications to the 
 NDDO Approximations and Re-optimization of Parameters", J. J. P. Stewart, J. Mol. Mod., 1:32, 19 (2013)
 https://link.springer.com/article/10.1007/s00894-012-1667-x

           Empirical Formula: C7 H12 O2  =    21 atoms



      MOLECULAR POINT GROUP   :   C1  


      RHF CALCULATION, NO. OF DOUBLY OCCUPIED LEVELS = 26

  SCF CRITERION =    0.1000E-07

 -------------------------------------------------------------------------------
 PM7 1SCF GRADIENTS DISP RELSCF=0.0001
 Title: ASE calculation



     1SCF WAS SPECIFIED, SO BFGS WAS NOT USED                 
     SCF FIELD WAS ACHIEVED                                   


                              PM7 CALCULATION
                                                       MOPAC v23.2 Linux
                                                       Fri Sep 19 21:56:52 2025




          FINAL HEAT OF FORMATION =        -66.66966 KCAL/MOL =    -278.94586 KJ/MOL

          TOTAL ENERGY            =     -37161.97295 KCAL/MOL = ELECTRONIC ENERGY + CORE-CORE REPULSION
          ENERGY OF ATOMS         =      37097.27293 KCAL/MOL
                              SUM =        -64.70002 KCAL/MOL
          DISPERSION ENERGY       =         -1.96964 KCAL/MOL
                              SUM =        -66.66966 KCAL/MOL = FINAL HEAT OF FORMATION



          TOTAL ENERGY            =      -1611.49567 EV
          ELECTRONIC ENERGY       =      -8155.61098 EV 
          CORE-CORE REPULSION     =       6544.11531 EV
          COSMO AREA              =        165.64 SQUARE ANGSTROMS
          COSMO VOLUME            =        164.31 CUBIC ANGSTROMS

          GRADIENT NORM           =          1.25694          =       0.27429 PER ATOM
          IONIZATION POTENTIAL    =          9.918112 EV
          HOMO LUMO ENERGIES (EV) =         -9.918  2.038
          NO. OF FILLED LEVELS    =         26
          MOLECULAR WEIGHT        =        128.1706         POINT GROUP:  C1  

          MOLECULAR DIMENSIONS (Angstroms)

            Atom       Atom       Distance
            H    18    H    11     7.32847
            H    21    H    14     4.77646
            H    20    H    17     3.27316


          SCF CALCULATIONS        =          1

          WALL-CLOCK TIME         =      0.883 SECONDS
          COMPUTATION TIME        =      0.209 SECONDS

          LARGEST ATOMIC GRADIENTS

          Atom     Label                     Cartesian Gradients           Cartesian Coordinates       |Gradient|
                                           X          Y          Z        X          Y          Z

             2       O                   0.224     -0.342     -0.211    1.79384   -0.46091   -0.18570      0.460
            13       H                  -0.415     -0.002      0.194    0.73959    0.18506    1.48557      0.458
            14       H                   0.190     -0.379     -0.164    0.12663   -2.22129    0.92957      0.454
            20       H                   0.276     -0.056      0.151   -0.89694    2.03109    1.16349      0.319
            21       H                  -0.005     -0.115     -0.279   -1.55593    2.10864   -0.52048      0.302
            16       H                   0.090     -0.029      0.285   -2.12820   -1.74745    1.42105      0.300
            10       H                   0.002      0.215      0.202    2.97223    0.97918    0.73457      0.295
             8       C                  -0.125      0.252      0.044   -1.17855    1.43436    0.27490      0.285
             7       C                  -0.091      0.156     -0.186   -2.18115    0.35823    0.62156      0.259
            15       H                  -0.064      0.155     -0.190   -0.20553   -1.78342   -0.74566      0.253



       FINAL  POINT  AND  DERIVATIVES

   PARAMETER     ATOM    TYPE            VALUE        GRADIENT
      1          1  C    CARTESIAN X     2.695276      0.114796  KCAL/ANGSTROM
      2          1  C    CARTESIAN Y     0.630990     -0.052269  KCAL/ANGSTROM
      3          1  C    CARTESIAN Z    -0.264702      0.064662  KCAL/ANGSTROM
      4          2  O    CARTESIAN X     1.793844      0.224336  KCAL/ANGSTROM
      5          2  O    CARTESIAN Y    -0.460911     -0.342100  KCAL/ANGSTROM
      6          2  O    CARTESIAN Z    -0.185704     -0.211337  KCAL/ANGSTROM
      7          3  C    CARTESIAN X     0.575487      0.144056  KCAL/ANGSTROM
      8          3  C    CARTESIAN Y    -0.146678     -0.049929  KCAL/ANGSTROM
      9          3  C    CARTESIAN Z     0.440848     -0.136354  KCAL/ANGSTROM
     10          4  C    CARTESIAN X    -0.282157     -0.063947  KCAL/ANGSTROM
     11          4  C    CARTESIAN Y    -1.410346     -0.080864  KCAL/ANGSTROM
     12          4  C    CARTESIAN Z     0.299304      0.034471  KCAL/ANGSTROM
     13          5  C    CARTESIAN X    -1.715781     -0.086658  KCAL/ANGSTROM
     14          5  C    CARTESIAN Y    -1.091801      0.100985  KCAL/ANGSTROM
     15          5  C    CARTESIAN Z     0.647642      0.207465  KCAL/ANGSTROM
     16          6  C    CARTESIAN X    -2.640840     -0.087267  KCAL/ANGSTROM
     17          6  C    CARTESIAN Y    -0.605019     -0.123802  KCAL/ANGSTROM
     18          6  C    CARTESIAN Z    -0.448324      0.013376  KCAL/ANGSTROM
     19          7  C    CARTESIAN X    -2.181154     -0.091046  KCAL/ANGSTROM
     20          7  C    CARTESIAN Y     0.358226      0.155651  KCAL/ANGSTROM
     21          7  C    CARTESIAN Z     0.621563     -0.186403  KCAL/ANGSTROM
     22          8  C    CARTESIAN X    -1.178547     -0.125247  KCAL/ANGSTROM
     23          8  C    CARTESIAN Y     1.434358      0.252402  KCAL/ANGSTROM
     24          8  C    CARTESIAN Z     0.274901      0.043541  KCAL/ANGSTROM
     25          9  O    CARTESIAN X    -0.000358     -0.040040  KCAL/ANGSTROM
     26          9  O    CARTESIAN Y     0.918450      0.100127  KCAL/ANGSTROM
     27          9  O    CARTESIAN Z    -0.309837      0.047839  KCAL/ANGSTROM
     28         10  H    CARTESIAN X     2.972226      0.001792  KCAL/ANGSTROM
     29         10  H    CARTESIAN Y     0.979176      0.214860  KCAL/ANGSTROM
     30         10  H    CARTESIAN Z     0.734566      0.201829  KCAL/ANGSTROM
     31         11  H    CARTESIAN X     3.559536     -0.008981  KCAL/ANGSTROM
     32         11  H    CARTESIAN Y     0.197725      0.156291  KCAL/ANGSTROM
     33         11  H    CARTESIAN Z    -0.783093     -0.149529  KCAL/ANGSTROM
     34         12  H    CARTESIAN X     2.265976     -0.073248  KCAL/ANGSTROM
     35         12  H    CARTESIAN Y     1.446933      0.017209  KCAL/ANGSTROM
     36         12  H    CARTESIAN Z    -0.856624      0.119415  KCAL/ANGSTROM
     37         13  H    CARTESIAN X     0.739588     -0.415474  KCAL/ANGSTROM
     38         13  H    CARTESIAN Y     0.185061     -0.002300  KCAL/ANGSTROM
     39         13  H    CARTESIAN Z     1.485569      0.193652  KCAL/ANGSTROM
     40         14  H    CARTESIAN X     0.126626      0.190200  KCAL/ANGSTROM
     41         14  H    CARTESIAN Y    -2.221289     -0.378559  KCAL/ANGSTROM
     42         14  H    CARTESIAN Z     0.929572     -0.164316  KCAL/ANGSTROM
     43         15  H    CARTESIAN X    -0.205525     -0.064291  KCAL/ANGSTROM
     44         15  H    CARTESIAN Y    -1.783421      0.155248  KCAL/ANGSTROM
     45         15  H    CARTESIAN Z    -0.745663     -0.189783  KCAL/ANGSTROM
     46         16  H    CARTESIAN X    -2.128199      0.089693  KCAL/ANGSTROM
     47         16  H    CARTESIAN Y    -1.747447     -0.029421  KCAL/ANGSTROM
     48         16  H    CARTESIAN Z     1.421055      0.284549  KCAL/ANGSTROM
     49         17  H    CARTESIAN X    -2.251229      0.183607  KCAL/ANGSTROM
     50         17  H    CARTESIAN Y    -0.496031     -0.042582  KCAL/ANGSTROM
     51         17  H    CARTESIAN Z    -1.459574     -0.009789  KCAL/ANGSTROM
     52         18  H    CARTESIAN X    -3.674497     -0.239792  KCAL/ANGSTROM
     53         18  H    CARTESIAN Y    -0.933370     -0.018247  KCAL/ANGSTROM
     54         18  H    CARTESIAN Z    -0.473401      0.056529  KCAL/ANGSTROM
     55         19  H    CARTESIAN X    -2.908697      0.076599  KCAL/ANGSTROM
     56         19  H    CARTESIAN Y     0.686266      0.138521  KCAL/ANGSTROM
     57         19  H    CARTESIAN Z     1.370038     -0.091874  KCAL/ANGSTROM
     58         20  H    CARTESIAN X    -0.896940      0.275514  KCAL/ANGSTROM
     59         20  H    CARTESIAN Y     2.031088     -0.056130  KCAL/ANGSTROM
     60         20  H    CARTESIAN Z     1.163487      0.151309  KCAL/ANGSTROM
     61         21  H    CARTESIAN X    -1.555935     -0.004602  KCAL/ANGSTROM
     62         21  H    CARTESIAN Y     2.108639     -0.115093  KCAL/ANGSTROM
     63         21  H    CARTESIAN Z    -0.520483     -0.279256  KCAL/ANGSTROM




   ATOM   CHEMICAL          X               Y               Z
  NUMBER   SYMBOL      (ANGSTROMS)     (ANGSTROMS)     (ANGSTROMS)

     1       C          2.69527642  *   0.63098987  *  -0.26470204  *
     2       O          1.79384445  *  -0.46091139  *  -0.18570448  *
     3       C          0.57548715  *  -0.14667843  *   0.44084807  *
     4       C         -0.28215671  *  -1.41034585  *   0.29930387  *
     5       C         -1.71578054  *  -1.09180065  *   0.64764151  *
     6       C         -2.64084042  *  -0.60501873  *  -0.44832392  *
     7       C         -2.18115418  *   0.35822645  *   0.62156311  *
     8       C         -1.17854725  *   1.43435821  *   0.27490098  *
     9       O         -0.00035811  *   0.91844961  *  -0.30983739  *
    10       H          2.97222629  *   0.97917611  *   0.73456601  *
    11       H          3.55953596  *   0.19772465  *  -0.78309281  *
    12       H          2.26597575  *   1.44693274  *  -0.85662438  *
    13       H          0.73958850  *   0.18506112  *   1.48556896  *
    14       H          0.12662587  *  -2.22128909  *   0.92957230  *
    15       H         -0.20552542  *  -1.78342146  *  -0.74566257  *
    16       H         -2.12819936  *  -1.74744732  *   1.42105474  *
    17       H         -2.25122892  *  -0.49603068  *  -1.45957419  *
    18       H         -3.67449690  *  -0.93336956  *  -0.47340064  *
    19       H         -2.90869746  *   0.68626613  *   1.37003821  *
    20       H         -0.89693994  *   2.03108796  *   1.16348698  *
    21       H         -1.55593452  *   2.10863924  *  -0.52048347  *

                             CARTESIAN COORDINATES

   1    C        2.695276425     0.630989870    -0.264702044
   2    O        1.793844454    -0.460911386    -0.185704482
   3    C        0.575487152    -0.146678426     0.440848067
   4    C       -0.282156707    -1.410345847     0.299303866
   5    C       -1.715780537    -1.091800652     0.647641509
   6    C       -2.640840418    -0.605018735    -0.448323920
   7    C       -2.181154180     0.358226448     0.621563105
   8    C       -1.178547246     1.434358212     0.274900979
   9    O       -0.000358109     0.918449606    -0.309837391
  10    H        2.972226287     0.979176106     0.734566011
  11    H        3.559535959     0.197724653    -0.783092814
  12    H        2.265975754     1.446932735    -0.856624376
  13    H        0.739588499     0.185061121     1.485568962
  14    H        0.126625870    -2.221289095     0.929572301
  15    H       -0.205525420    -1.783421462    -0.745662568
  16    H       -2.128199359    -1.747447322     1.421054737
  17    H       -2.251228918    -0.496030681    -1.459574192
  18    H       -3.674496904    -0.933369558    -0.473400636
  19    H       -2.908697457     0.686266128     1.370038205
  20    H       -0.896939935     2.031087956     1.163486975
  21    H       -1.555934520     2.108639243    -0.520483472


           Empirical Formula: C7 H12 O2  =    21 atoms



      MOLECULAR POINT GROUP   :   C1  


                  EIGENVALUES  
 -31.45594 -29.71653 -28.52509 -26.45702 -24.26470 -23.67931 -21.80085 -20.42387
 -18.70284 -17.63973 -16.92901 -16.67687 -15.41051 -14.95796 -14.64174 -14.25149
 -13.76048 -13.36838 -13.02368 -12.39936 -12.15763 -11.80853 -11.11315 -10.82736
 -10.21954  -9.91811   2.03803   2.39147   2.54138   3.71976   3.84564   4.10226
   4.33059   4.66307   4.85432   4.90875   5.35762   5.50459   5.59162   5.76247
   5.79944   5.89766   5.98352   6.03461   6.09994   6.45422   6.50058   6.58740


              NET ATOMIC CHARGES AND DIPOLE CONTRIBUTIONS

  ATOM NO.   TYPE          CHARGE      No. of ELECS.   s-Pop       p-Pop       
    1          C          -0.186799        4.1868     1.08230     3.10450
    2          O          -0.397561        6.3976     1.87694     4.52062
    3          C           0.323232        3.6768     1.11022     2.56654
    4          C          -0.334014        4.3340     1.06362     3.27039
    5          C          -0.136547        4.1365     1.04848     3.08807
    6          C          -0.321383        4.3214     1.05546     3.26593
    7          C          -0.224884        4.2249     1.05591     3.16897
    8          C          -0.012880        4.0129     1.08217     2.93071
    9          O          -0.452113        6.4521     1.87727     4.57484
   10          H           0.117842        0.8822     0.88216
   11          H           0.144446        0.8556     0.85555
   12          H           0.140402        0.8596     0.85960
   13          H           0.104022        0.8960     0.89598
   14          H           0.156780        0.8432     0.84322
   15          H           0.177758        0.8222     0.82224
   16          H           0.153134        0.8469     0.84687
   17          H           0.170079        0.8299     0.82992
   18          H           0.153671        0.8463     0.84633
   19          H           0.158042        0.8420     0.84196
   20          H           0.118089        0.8819     0.88191
   21          H           0.148682        0.8513     0.85132
 DIPOLE           X         Y         Z       TOTAL
 POINT-CHG.    -0.841     0.892     1.980     2.329
 HYBRID         0.066    -0.134    -0.301     0.336
 SUM           -0.775     0.758     1.679     1.999


          ATOMIC ORBITAL ELECTRON POPULATIONS

     Atom    s        px        py        pz   
    1  C   1.08230   0.98874   0.98071   1.13505
    2  O   1.87694   1.32515   1.37011   1.82536
    3  C   1.11022   0.78380   0.85367   0.92907
    4  C   1.06362   1.00448   1.07538   1.19054
    5  C   1.04848   0.99177   1.01490   1.08140
    6  C   1.05546   1.10917   1.10674   1.05002
    7  C   1.05591   1.09622   0.96886   1.10389
    8  C   1.08217   0.85608   0.98877   1.08586
    9  O   1.87727   1.44917   1.57027   1.55540
   10  H   0.88216
   11  H   0.85555
   12  H   0.85960
   13  H   0.89598
   14  H   0.84322
   15  H   0.82224
   16  H   0.84687
   17  H   0.82992
   18  H   0.84633
   19  H   0.84196
   20  H   0.88191
   21  H   0.85132

 **********************
 *                    *
 * JOB ENDED NORMALLY *
 *                    *
 **********************



 TOTAL JOB TIME:             1.30 SECONDS

 == MOPAC DONE ==
