 *******************************************************************************
 **                                                                           **
 **                              MOPAC v23.2                                  **
 **                                                                           **
 *******************************************************************************
 **          Digital Object Identifier (DOI): 10.5281/zenodo.6511958          **
 **    Visit the DOI location for information on how to cite this program.    **
 *******************************************************************************

                              PM7 CALCULATION RESULTS

 *******************************************************************************
 *  CALCULATION DONE: (MAX THREADS = 40)             Fri Sep 19 22:01:30 2025  *
 *  PM7        - The PM7 Hamiltonian to be used
 *  1SCF       - DO 1 SCF AND THEN STOP 
 *  T=         - A TIME OF 172800.0 SECONDS REQUESTED
 *  DUMP=N     - RESTART FILE WRITTEN EVERY 7200.0 SECONDS REQUESTED
 *  RELSCF     - DEFAULT SCF CRITERION MULTIPLIED BY 0.0001
 *              (DEFAULT SCF CRITERION = 0.00010)
 *  GRADIENTS  - ALL GRADIENTS TO BE PRINTED
 *  DISP       - PRINT DISPERSION AND HYDROGEN BOND ENERGIES
 *******************************************************************************
PM7 1SCF GRADIENTS DISP RELSCF=0.0001
 Title: ASE calculation

   ATOM   CHEMICAL          X               Y               Z
  NUMBER   SYMBOL      (ANGSTROMS)     (ANGSTROMS)     (ANGSTROMS)

     1       C         -1.20357263  *  -1.63261013  *   0.73221629  *
     2       N         -0.28862470  *  -0.96403596  *  -0.19203749  *
     3       C         -0.65066180  *   0.36912888  *  -0.72428855  *
     4       C         -1.94355075  *   1.07412898  *  -0.37523977  *
     5       O         -1.96933050  *   1.48743249  *   0.97484635  *
     6       C          0.44940371  *   0.21343795  *   0.31068494  *
     7       C          1.90411725  *   0.29362867  *  -0.11083396  *
     8       O          2.44063956  *   1.54225947  *   0.27238657  *
     9       H         -1.74593879  *  -0.97198917  *   1.42967007  *
    10       H         -1.94439793  *  -2.19756129  *   0.13828309  *
    11       H         -0.62385923  *  -2.36146920  *   1.32611107  *
    12       H         -0.37098302  *   0.49286352  *  -1.78388866  *
    13       H         -2.11659707  *   1.95283004  *  -1.02464219  *
    14       H         -2.81647718  *   0.39369976  *  -0.44482365  *
    15       H         -1.29592018  *   2.18123020  *   1.13310678  *
    16       H          0.27574066  *   0.57130408  *   1.33430193  *
    17       H          2.49885195  *  -0.52962118  *   0.32614294  *
    18       H          2.03451798  *   0.29058381  *  -1.21092527  *
    19       H          2.51686828  *   1.60829953  *   1.24357166  *



          CARTESIAN COORDINATES 

    NO.       ATOM           X           Y           Z

     1         C         -1.2036     -1.6326      0.7322
     2         N         -0.2886     -0.9640     -0.1920
     3         C         -0.6507      0.3691     -0.7243
     4         C         -1.9436      1.0741     -0.3752
     5         O         -1.9693      1.4874      0.9748
     6         C          0.4494      0.2134      0.3107
     7         C          1.9041      0.2936     -0.1108
     8         O          2.4406      1.5423      0.2724
     9         H         -1.7459     -0.9720      1.4297
    10         H         -1.9444     -2.1976      0.1383
    11         H         -0.6239     -2.3615      1.3261
    12         H         -0.3710      0.4929     -1.7839
    13         H         -2.1166      1.9528     -1.0246
    14         H         -2.8165      0.3937     -0.4448
    15         H         -1.2959      2.1812      1.1331
    16         H          0.2757      0.5713      1.3343
    17         H          2.4989     -0.5296      0.3261
    18         H          2.0345      0.2906     -1.2109
    19         H          2.5169      1.6083      1.2436

 General Reference for PM7:
 "Optimization of Parameters for Semiempirical Methods VI: More Modifications to the 
 NDDO Approximations and Re-optimization of Parameters", J. J. P. Stewart, J. Mol. Mod., 1:32, 19 (2013)
 https://link.springer.com/article/10.1007/s00894-012-1667-x

           Empirical Formula: C5 H11 N O2  =    19 atoms



      MOLECULAR POINT GROUP   :   C1  


      RHF CALCULATION, NO. OF DOUBLY OCCUPIED LEVELS = 24

  SCF CRITERION =    0.1000E-07

 -------------------------------------------------------------------------------
 PM7 1SCF GRADIENTS DISP RELSCF=0.0001
 Title: ASE calculation



     1SCF WAS SPECIFIED, SO BFGS WAS NOT USED                 
     SCF FIELD WAS ACHIEVED                                   


                              PM7 CALCULATION
                                                       MOPAC v23.2 Linux
                                                       Fri Sep 19 22:01:30 2025




          FINAL HEAT OF FORMATION =        -63.17357 KCAL/MOL =    -264.31821 KJ/MOL

          TOTAL ENERGY            =     -35476.17288 KCAL/MOL = ELECTRONIC ENERGY + CORE-CORE REPULSION
          ENERGY OF ATOMS         =      35414.96735 KCAL/MOL
                              SUM =        -61.20553 KCAL/MOL
          DISPERSION ENERGY       =         -1.78758 KCAL/MOL
          H-BOND ENERGY           =         -0.18046 KCAL/MOL
                              SUM =        -63.17357 KCAL/MOL = FINAL HEAT OF FORMATION



          TOTAL ENERGY            =      -1538.39246 EV
          ELECTRONIC ENERGY       =      -6997.65007 EV 
          CORE-CORE REPULSION     =       5459.25761 EV
          COSMO AREA              =        157.41 SQUARE ANGSTROMS
          COSMO VOLUME            =        153.90 CUBIC ANGSTROMS

          GRADIENT NORM           =          1.16473          =       0.26721 PER ATOM
          IONIZATION POTENTIAL    =          9.758140 EV
          HOMO LUMO ENERGIES (EV) =         -9.758  2.036
          NO. OF FILLED LEVELS    =         24
          MOLECULAR WEIGHT        =        117.1474         POINT GROUP:  C1  

          MOLECULAR DIMENSIONS (Angstroms)

            Atom       Atom       Distance
            H    19    H    10     5.96734
            H    13    H    11     4.99270
            H    18    H    15     4.05526


          SCF CALCULATIONS        =          1

          WALL-CLOCK TIME         =      0.617 SECONDS
          COMPUTATION TIME        =      0.688 SECONDS

          LARGEST ATOMIC GRADIENTS

          Atom     Label                     Cartesian Gradients           Cartesian Coordinates       |Gradient|
                                           X          Y          Z        X          Y          Z

             5       O                   0.192     -0.090     -0.404   -1.96933    1.48743    0.97485      0.456
            10       H                  -0.026     -0.245     -0.311   -1.94440   -2.19756    0.13828      0.397
            16       H                   0.139     -0.134      0.291    0.27574    0.57130    1.33430      0.349
            15       H                  -0.090      0.170      0.274   -1.29592    2.18123    1.13311      0.335
            18       H                  -0.131     -0.156     -0.260    2.03452    0.29058   -1.21093      0.331
            13       H                  -0.106      0.187      0.241   -2.11660    1.95283   -1.02464      0.322
             4       C                  -0.081     -0.086     -0.300   -1.94355    1.07413   -0.37524      0.322
             2       N                  -0.075      0.268     -0.147   -0.28862   -0.96404   -0.19204      0.315
             9       H                   0.143     -0.046      0.274   -1.74594   -0.97199    1.42967      0.313
            14       H                   0.188      0.124     -0.114   -2.81648    0.39370   -0.44482      0.252



       FINAL  POINT  AND  DERIVATIVES

   PARAMETER     ATOM    TYPE            VALUE        GRADIENT
      1          1  C    CARTESIAN X    -1.203573     -0.061794  KCAL/ANGSTROM
      2          1  C    CARTESIAN Y    -1.632610      0.105707  KCAL/ANGSTROM
      3          1  C    CARTESIAN Z     0.732216      0.082869  KCAL/ANGSTROM
      4          2  N    CARTESIAN X    -0.288625     -0.074570  KCAL/ANGSTROM
      5          2  N    CARTESIAN Y    -0.964036      0.267934  KCAL/ANGSTROM
      6          2  N    CARTESIAN Z    -0.192037     -0.147308  KCAL/ANGSTROM
      7          3  C    CARTESIAN X    -0.650662     -0.008424  KCAL/ANGSTROM
      8          3  C    CARTESIAN Y     0.369129     -0.033485  KCAL/ANGSTROM
      9          3  C    CARTESIAN Z    -0.724289      0.072293  KCAL/ANGSTROM
     10          4  C    CARTESIAN X    -1.943551     -0.080940  KCAL/ANGSTROM
     11          4  C    CARTESIAN Y     1.074129     -0.086322  KCAL/ANGSTROM
     12          4  C    CARTESIAN Z    -0.375240     -0.299814  KCAL/ANGSTROM
     13          5  O    CARTESIAN X    -1.969330      0.191760  KCAL/ANGSTROM
     14          5  O    CARTESIAN Y     1.487432     -0.090053  KCAL/ANGSTROM
     15          5  O    CARTESIAN Z     0.974846     -0.404297  KCAL/ANGSTROM
     16          6  C    CARTESIAN X     0.449404     -0.014678  KCAL/ANGSTROM
     17          6  C    CARTESIAN Y     0.213438     -0.043374  KCAL/ANGSTROM
     18          6  C    CARTESIAN Z     0.310685      0.115893  KCAL/ANGSTROM
     19          7  C    CARTESIAN X     1.904117      0.097284  KCAL/ANGSTROM
     20          7  C    CARTESIAN Y     0.293629      0.031335  KCAL/ANGSTROM
     21          7  C    CARTESIAN Z    -0.110834      0.006411  KCAL/ANGSTROM
     22          8  O    CARTESIAN X     2.440640     -0.089394  KCAL/ANGSTROM
     23          8  O    CARTESIAN Y     1.542259      0.077383  KCAL/ANGSTROM
     24          8  O    CARTESIAN Z     0.272387      0.063316  KCAL/ANGSTROM
     25          9  H    CARTESIAN X    -1.745939      0.143082  KCAL/ANGSTROM
     26          9  H    CARTESIAN Y    -0.971989     -0.046452  KCAL/ANGSTROM
     27          9  H    CARTESIAN Z     1.429670      0.274058  KCAL/ANGSTROM
     28         10  H    CARTESIAN X    -1.944398     -0.025729  KCAL/ANGSTROM
     29         10  H    CARTESIAN Y    -2.197561     -0.244686  KCAL/ANGSTROM
     30         10  H    CARTESIAN Z     0.138283     -0.311350  KCAL/ANGSTROM
     31         11  H    CARTESIAN X    -0.623859      0.028581  KCAL/ANGSTROM
     32         11  H    CARTESIAN Y    -2.361469     -0.003446  KCAL/ANGSTROM
     33         11  H    CARTESIAN Z     1.326111      0.088869  KCAL/ANGSTROM
     34         12  H    CARTESIAN X    -0.370983      0.029835  KCAL/ANGSTROM
     35         12  H    CARTESIAN Y     0.492864     -0.139412  KCAL/ANGSTROM
     36         12  H    CARTESIAN Z    -1.783889      0.046611  KCAL/ANGSTROM
     37         13  H    CARTESIAN X    -2.116597     -0.106218  KCAL/ANGSTROM
     38         13  H    CARTESIAN Y     1.952830      0.186574  KCAL/ANGSTROM
     39         13  H    CARTESIAN Z    -1.024642      0.240517  KCAL/ANGSTROM
     40         14  H    CARTESIAN X    -2.816477      0.187586  KCAL/ANGSTROM
     41         14  H    CARTESIAN Y     0.393700      0.123604  KCAL/ANGSTROM
     42         14  H    CARTESIAN Z    -0.444824     -0.114331  KCAL/ANGSTROM
     43         15  H    CARTESIAN X    -1.295920     -0.090149  KCAL/ANGSTROM
     44         15  H    CARTESIAN Y     2.181230      0.169862  KCAL/ANGSTROM
     45         15  H    CARTESIAN Z     1.133107      0.274128  KCAL/ANGSTROM
     46         16  H    CARTESIAN X     0.275741      0.139387  KCAL/ANGSTROM
     47         16  H    CARTESIAN Y     0.571304     -0.133578  KCAL/ANGSTROM
     48         16  H    CARTESIAN Z     1.334302      0.290519  KCAL/ANGSTROM
     49         17  H    CARTESIAN X     2.498852     -0.055248  KCAL/ANGSTROM
     50         17  H    CARTESIAN Y    -0.529621     -0.094821  KCAL/ANGSTROM
     51         17  H    CARTESIAN Z     0.326143      0.141831  KCAL/ANGSTROM
     52         18  H    CARTESIAN X     2.034518     -0.131273  KCAL/ANGSTROM
     53         18  H    CARTESIAN Y     0.290584     -0.156203  KCAL/ANGSTROM
     54         18  H    CARTESIAN Z    -1.210925     -0.260185  KCAL/ANGSTROM
     55         19  H    CARTESIAN X     2.516868     -0.079089  KCAL/ANGSTROM
     56         19  H    CARTESIAN Y     1.608300      0.109427  KCAL/ANGSTROM
     57         19  H    CARTESIAN Z     1.243572     -0.160029  KCAL/ANGSTROM




   ATOM   CHEMICAL          X               Y               Z
  NUMBER   SYMBOL      (ANGSTROMS)     (ANGSTROMS)     (ANGSTROMS)

     1       C         -1.20357263  *  -1.63261013  *   0.73221629  *
     2       N         -0.28862470  *  -0.96403596  *  -0.19203749  *
     3       C         -0.65066180  *   0.36912888  *  -0.72428855  *
     4       C         -1.94355075  *   1.07412898  *  -0.37523977  *
     5       O         -1.96933050  *   1.48743249  *   0.97484635  *
     6       C          0.44940371  *   0.21343795  *   0.31068494  *
     7       C          1.90411725  *   0.29362867  *  -0.11083396  *
     8       O          2.44063956  *   1.54225947  *   0.27238657  *
     9       H         -1.74593879  *  -0.97198917  *   1.42967007  *
    10       H         -1.94439793  *  -2.19756129  *   0.13828309  *
    11       H         -0.62385923  *  -2.36146920  *   1.32611107  *
    12       H         -0.37098302  *   0.49286352  *  -1.78388866  *
    13       H         -2.11659707  *   1.95283004  *  -1.02464219  *
    14       H         -2.81647718  *   0.39369976  *  -0.44482365  *
    15       H         -1.29592018  *   2.18123020  *   1.13310678  *
    16       H          0.27574066  *   0.57130408  *   1.33430193  *
    17       H          2.49885195  *  -0.52962118  *   0.32614294  *
    18       H          2.03451798  *   0.29058381  *  -1.21092527  *
    19       H          2.51686828  *   1.60829953  *   1.24357166  *

                             CARTESIAN COORDINATES

   1    C       -1.203572627    -1.632610130     0.732216285
   2    N       -0.288624700    -0.964035960    -0.192037490
   3    C       -0.650661802     0.369128881    -0.724288550
   4    C       -1.943550747     1.074128980    -0.375239771
   5    O       -1.969330495     1.487432487     0.974846349
   6    C        0.449403709     0.213437952     0.310684937
   7    C        1.904117253     0.293628673    -0.110833958
   8    O        2.440639557     1.542259468     0.272386566
   9    H       -1.745938794    -0.971989165     1.429670074
  10    H       -1.944397925    -2.197561287     0.138283087
  11    H       -0.623859234    -2.361469195     1.326111067
  12    H       -0.370983023     0.492863523    -1.783888661
  13    H       -2.116597070     1.952830043    -1.024642187
  14    H       -2.816477181     0.393699764    -0.444823646
  15    H       -1.295920179     2.181230201     1.133106784
  16    H        0.275740663     0.571304078     1.334301926
  17    H        2.498851946    -0.529621183     0.326142942
  18    H        2.034517980     0.290583807    -1.210925270
  19    H        2.516868281     1.608299532     1.243571655


           Empirical Formula: C5 H11 N O2  =    19 atoms



      MOLECULAR POINT GROUP   :   C1  


                  EIGENVALUES  
 -36.43143 -29.72242 -29.64613 -26.44739 -25.32854 -23.77312 -20.97611 -20.18176
 -17.93065 -17.53403 -16.74074 -16.02641 -15.46754 -14.94358 -14.55288 -13.80591
 -13.73897 -13.04689 -12.52997 -11.77349 -11.65478 -11.12169 -10.85603  -9.75814
   2.03553   2.28575   2.67680   2.95201   3.50666   3.93841   4.04572   4.68905
   5.03230   5.15649   5.32330   5.47899   5.54238   5.63201   5.71331   5.76020
   5.92182   6.11063   6.40848


              NET ATOMIC CHARGES AND DIPOLE CONTRIBUTIONS

  ATOM NO.   TYPE          CHARGE      No. of ELECS.   s-Pop       p-Pop       
    1          C          -0.291448        4.2914     1.06224     3.22921
    2          N          -0.347089        5.3471     1.74513     3.60196
    3          C          -0.132204        4.1322     1.07828     3.05392
    4          C          -0.014954        4.0150     1.08443     2.93052
    5          O          -0.546181        6.5462     1.85047     4.69571
    6          C          -0.118864        4.1189     1.07603     3.04284
    7          C           0.007044        3.9930     1.08281     2.91015
    8          O          -0.539019        6.5390     1.84923     4.68979
    9          H           0.148725        0.8513     0.85127
   10          H           0.154781        0.8452     0.84522
   11          H           0.154035        0.8460     0.84597
   12          H           0.174541        0.8255     0.82546
   13          H           0.128230        0.8718     0.87177
   14          H           0.154021        0.8460     0.84598
   15          H           0.317169        0.6828     0.68283
   16          H           0.158750        0.8412     0.84125
   17          H           0.128734        0.8713     0.87127
   18          H           0.155332        0.8447     0.84467
   19          H           0.308396        0.6916     0.69160
 DIPOLE           X         Y         Z       TOTAL
 POINT-CHG.    -0.451    -0.564    -0.128     0.733
 HYBRID        -0.193     0.670     1.086     1.291
 SUM           -0.644     0.106     0.958     1.159


          ATOMIC ORBITAL ELECTRON POPULATIONS

     Atom    s        px        py        pz   
    1  C   1.06224   1.06609   1.10045   1.06267
    2  N   1.74513   1.22665   1.10327   1.27204
    3  C   1.07828   1.01815   0.96460   1.07117
    4  C   1.08443   1.03422   1.07533   0.82097
    5  O   1.85047   1.67315   1.66936   1.35320
    6  C   1.07603   0.97326   1.00495   1.06462
    7  C   1.08281   0.94339   0.86180   1.10496
    8  O   1.84923   1.87330   1.43325   1.38325
    9  H   0.85127
   10  H   0.84522
   11  H   0.84597
   12  H   0.82546
   13  H   0.87177
   14  H   0.84598
   15  H   0.68283
   16  H   0.84125
   17  H   0.87127
   18  H   0.84467
   19  H   0.69160

 **********************
 *                    *
 * JOB ENDED NORMALLY *
 *                    *
 **********************



 TOTAL JOB TIME:             1.02 SECONDS

 == MOPAC DONE ==
