 *******************************************************************************
 **                                                                           **
 **                              MOPAC v23.2                                  **
 **                                                                           **
 *******************************************************************************
 **          Digital Object Identifier (DOI): 10.5281/zenodo.6511958          **
 **    Visit the DOI location for information on how to cite this program.    **
 *******************************************************************************

                              PM7 CALCULATION RESULTS

 *******************************************************************************
 *  CALCULATION DONE: (MAX THREADS = 40)             Fri Sep 19 21:45:04 2025  *
 *  PM7        - The PM7 Hamiltonian to be used
 *
 *
 *
 *                 CHARGE ON SYSTEM = +1
 *
 *
 *
 *  EPS=37.5   - USE ANDREAS KLAMT'S COSMO IMPLICIT SOLVATION MODEL
 *  1SCF       - DO 1 SCF AND THEN STOP 
 *  T=         - A TIME OF 172800.0 SECONDS REQUESTED
 *  DUMP=N     - RESTART FILE WRITTEN EVERY 7200.0 SECONDS REQUESTED
 *  RELSCF     - DEFAULT SCF CRITERION MULTIPLIED BY 0.0001
 *              (DEFAULT SCF CRITERION = 0.00010)
 *  GRADIENTS  - ALL GRADIENTS TO BE PRINTED
 *  DISP       - PRINT DISPERSION AND HYDROGEN BOND ENERGIES
 *******************************************************************************
PM7 1SCF GRADIENTS EPS=37.5 DISP RELSCF=0.0001 CHARGE=1
 Title: ASE calculation

   ATOM   CHEMICAL          X               Y               Z
  NUMBER   SYMBOL      (ANGSTROMS)     (ANGSTROMS)     (ANGSTROMS)

     1       C          3.30865232  *   0.50054773  *  -0.56108870  *
     2       C          1.92203958  *   0.42858381  *  -0.33563297  *
     3       C          0.63628256  *   0.35398463  *  -0.12714951  *
     4       C         -0.68003734  *   0.23261718  *   0.07275187  *
     5       C         -1.64344450  *   1.31748922  *   0.45100412  *
     6       C         -2.96926530  *   0.62034604  *   0.53302018  *
     7       N         -2.85509908  *  -0.65685802  *   0.26386171  *
     8       C         -1.39505420  *  -1.03001807  *  -0.05417561  *
     9       O         -1.17425841  *  -2.16196072  *  -0.31267474  *
    10       H          3.66501257  *   1.53132413  *  -0.78452679  *
    11       H          3.63790222  *  -0.13892932  *  -1.41443358  *
    12       H          3.90315450  *   0.15471861  *   0.31916034  *
    13       H         -1.36018485  *   1.81406088  *   1.41443358  *
    14       H         -1.64507506  *   2.16196072  *  -0.28495572  *
    15       H         -3.90315450  *   1.13872070  *   0.79071861  *
    16       H         -3.59406798  *  -1.35942968  *   0.24954010  *



          CARTESIAN COORDINATES 

    NO.       ATOM           X           Y           Z

     1         C          3.3087      0.5005     -0.5611
     2         C          1.9220      0.4286     -0.3356
     3         C          0.6363      0.3540     -0.1271
     4         C         -0.6800      0.2326      0.0728
     5         C         -1.6434      1.3175      0.4510
     6         C         -2.9693      0.6203      0.5330
     7         N         -2.8551     -0.6569      0.2639
     8         C         -1.3951     -1.0300     -0.0542
     9         O         -1.1743     -2.1620     -0.3127
    10         H          3.6650      1.5313     -0.7845
    11         H          3.6379     -0.1389     -1.4144
    12         H          3.9032      0.1547      0.3192
    13         H         -1.3602      1.8141      1.4144
    14         H         -1.6451      2.1620     -0.2850
    15         H         -3.9032      1.1387      0.7907
    16         H         -3.5941     -1.3594      0.2495

 General Reference for PM7:
 "Optimization of Parameters for Semiempirical Methods VI: More Modifications to the 
 NDDO Approximations and Re-optimization of Parameters", J. J. P. Stewart, J. Mol. Mod., 1:32, 19 (2013)
 https://link.springer.com/article/10.1007/s00894-012-1667-x

           Empirical Formula: C7 H7 N O  =    16 atoms



      MOLECULAR POINT GROUP   :   C1  


          UHF CALCULATION, NO. OF ALPHA ELECTRONS =   23
                           NO. OF BETA  ELECTRONS =   22
  SCF CRITERION =    0.1000E-07

 -------------------------------------------------------------------------------
 PM7 1SCF GRADIENTS EPS=37.5 DISP RELSCF=0.0001 CHARGE=1
 Title: ASE calculation



     1SCF WAS SPECIFIED, SO BFGS WAS NOT USED                 
     SCF FIELD WAS ACHIEVED                                   


                              PM7 CALCULATION
                                                       MOPAC v23.2 Linux
                                                       Fri Sep 19 21:45:06 2025




          FINAL HEAT OF FORMATION =        144.24416 KCAL/MOL =     603.51756 KJ/MOL

          TOTAL ENERGY            =     -32950.35610 KCAL/MOL = ELECTRONIC ENERGY + CORE-CORE REPULSION + SOLVATION ENERGY
          ENERGY OF ATOMS         =      33094.39424 KCAL/MOL
                              SUM =        144.03814 KCAL/MOL
          DISPERSION ENERGY       =         -1.40925 KCAL/MOL
                              SUM =        142.62890 KCAL/MOL = FINAL HEAT OF FORMATION

     *    WARNING - An energy term is incorrect or missing!

     *    FINAL HEAT OF FORMATION     =    144.24416 KCAL/MOL
     *    SUM OF CONTRIBUTIONS TO HoF =    142.62890 KCAL/MOL
     *                     DIFFERENCE =      1.61527 KCAL/MOL

          VAN DER WAALS AREA      =        165.77 SQUARE ANGSTROMS


          TOTAL ENERGY            =      -1428.86268 EV
          ELECTRONIC ENERGY       =      -1825.06568 EV 
          CORE-CORE REPULSION     =        396.20301 EV

          DIELECTRIC ENERGY       =         -2.55599 EV
          COSMO AREA              =        165.77 SQUARE ANGSTROMS
          COSMO VOLUME            =        152.51 CUBIC ANGSTROMS

          GRADIENT NORM           =         44.04477          =       11.01119 PER ATOM
          IONIZATION POTENTIAL    =          9.592165 EV
          ALPHA SOMO LUMO (EV)    =         -9.592 -1.464
          BETA  SOMO LUMO (EV)    =        -10.696 -2.355
          NO. OF ALPHA ELECTRONS  =         23
          NO. OF BETA  ELECTRONS  =         22
          MOLECULAR WEIGHT        =        121.1384         POINT GROUP:  C1  

          MOLECULAR DIMENSIONS (Angstroms)

            Atom       Atom       Distance
            H    15    H    11     7.96006
            H    10    O     9     4.50410
            H    12    H    14     2.32531


          SCF CALCULATIONS        =          2

          WALL-CLOCK TIME         =      1.680 SECONDS
          COMPUTATION TIME        =      0.659 SECONDS

          LARGEST ATOMIC GRADIENTS

          Atom     Label                     Cartesian Gradients           Cartesian Coordinates       |Gradient|
                                           X          Y          Z        X          Y          Z

             8       C                  29.574    -17.486     -8.469   -1.39505   -1.03002   -0.05418     35.385
             7       N                 -16.056      4.609      3.739   -2.85510   -0.65686    0.26386     17.117
             9       O                  -7.193     13.087      3.809   -1.17426   -2.16196   -0.31267     15.411
             3       C                  -7.743     -0.015      1.567    0.63628    0.35398   -0.12715      7.900
             5       C                  -3.165      4.145      1.412   -1.64344    1.31749    0.45100      5.403
             2       C                   4.615     -0.133     -0.961    1.92204    0.42858   -0.33563      4.716
             6       C                  -4.395     -1.391      0.205   -2.96927    0.62035    0.53302      4.614
             4       C                  -1.151     -2.167     -0.180   -0.68004    0.23262    0.07275      2.460
             1       C                  -1.896      0.346      0.459    3.30865    0.50055   -0.56109      1.981
            16       H                   1.607      0.637     -0.157   -3.59407   -1.35943    0.24954      1.736



       FINAL  POINT  AND  DERIVATIVES

   PARAMETER     ATOM    TYPE            VALUE        GRADIENT
      1          1  C    CARTESIAN X     3.308652     -1.895841  KCAL/ANGSTROM
      2          1  C    CARTESIAN Y     0.500548      0.346455  KCAL/ANGSTROM
      3          1  C    CARTESIAN Z    -0.561089      0.459332  KCAL/ANGSTROM
      4          2  C    CARTESIAN X     1.922040      4.614741  KCAL/ANGSTROM
      5          2  C    CARTESIAN Y     0.428584     -0.132771  KCAL/ANGSTROM
      6          2  C    CARTESIAN Z    -0.335633     -0.960762  KCAL/ANGSTROM
      7          3  C    CARTESIAN X     0.636283     -7.743142  KCAL/ANGSTROM
      8          3  C    CARTESIAN Y     0.353985     -0.015013  KCAL/ANGSTROM
      9          3  C    CARTESIAN Z    -0.127150      1.566994  KCAL/ANGSTROM
     10          4  C    CARTESIAN X    -0.680037     -1.151011  KCAL/ANGSTROM
     11          4  C    CARTESIAN Y     0.232617     -2.166907  KCAL/ANGSTROM
     12          4  C    CARTESIAN Z     0.072752     -0.180113  KCAL/ANGSTROM
     13          5  C    CARTESIAN X    -1.643444     -3.164936  KCAL/ANGSTROM
     14          5  C    CARTESIAN Y     1.317489      4.144655  KCAL/ANGSTROM
     15          5  C    CARTESIAN Z     0.451004      1.412178  KCAL/ANGSTROM
     16          6  C    CARTESIAN X    -2.969265     -4.395067  KCAL/ANGSTROM
     17          6  C    CARTESIAN Y     0.620346     -1.390639  KCAL/ANGSTROM
     18          6  C    CARTESIAN Z     0.533020      0.204838  KCAL/ANGSTROM
     19          7  N    CARTESIAN X    -2.855099    -16.055564  KCAL/ANGSTROM
     20          7  N    CARTESIAN Y    -0.656858      4.609059  KCAL/ANGSTROM
     21          7  N    CARTESIAN Z     0.263862      3.739136  KCAL/ANGSTROM
     22          8  C    CARTESIAN X    -1.395054     29.573825  KCAL/ANGSTROM
     23          8  C    CARTESIAN Y    -1.030018    -17.485905  KCAL/ANGSTROM
     24          8  C    CARTESIAN Z    -0.054176     -8.469419  KCAL/ANGSTROM
     25          9  O    CARTESIAN X    -1.174258     -7.192639  KCAL/ANGSTROM
     26          9  O    CARTESIAN Y    -2.161961     13.086644  KCAL/ANGSTROM
     27          9  O    CARTESIAN Z    -0.312675      3.808951  KCAL/ANGSTROM
     28         10  H    CARTESIAN X     3.665013      0.635967  KCAL/ANGSTROM
     29         10  H    CARTESIAN Y     1.531324      0.405323  KCAL/ANGSTROM
     30         10  H    CARTESIAN Z    -0.784527     -0.261560  KCAL/ANGSTROM
     31         11  H    CARTESIAN X     3.637902      0.393229  KCAL/ANGSTROM
     32         11  H    CARTESIAN Y    -0.138929     -0.537126  KCAL/ANGSTROM
     33         11  H    CARTESIAN Z    -1.414434     -0.649626  KCAL/ANGSTROM
     34         12  H    CARTESIAN X     3.903155      0.692803  KCAL/ANGSTROM
     35         12  H    CARTESIAN Y     0.154719     -0.343306  KCAL/ANGSTROM
     36         12  H    CARTESIAN Z     0.319160      0.474249  KCAL/ANGSTROM
     37         13  H    CARTESIAN X    -1.360185      1.263566  KCAL/ANGSTROM
     38         13  H    CARTESIAN Y     1.814061     -0.837859  KCAL/ANGSTROM
     39         13  H    CARTESIAN Z     1.414434     -0.521133  KCAL/ANGSTROM
     40         14  H    CARTESIAN X    -1.645075      1.133812  KCAL/ANGSTROM
     41         14  H    CARTESIAN Y     2.161961     -0.291247  KCAL/ANGSTROM
     42         14  H    CARTESIAN Z    -0.284956     -0.283998  KCAL/ANGSTROM
     43         15  H    CARTESIAN X    -3.903155      1.683016  KCAL/ANGSTROM
     44         15  H    CARTESIAN Y     1.138721     -0.028736  KCAL/ANGSTROM
     45         15  H    CARTESIAN Z     0.790719     -0.181683  KCAL/ANGSTROM
     46         16  H    CARTESIAN X    -3.594068      1.607233  KCAL/ANGSTROM
     47         16  H    CARTESIAN Y    -1.359430      0.637368  KCAL/ANGSTROM
     48         16  H    CARTESIAN Z     0.249540     -0.157386  KCAL/ANGSTROM




   ATOM   CHEMICAL          X               Y               Z
  NUMBER   SYMBOL      (ANGSTROMS)     (ANGSTROMS)     (ANGSTROMS)

     1       C          3.30865232  *   0.50054773  *  -0.56108870  *
     2       C          1.92203958  *   0.42858381  *  -0.33563297  *
     3       C          0.63628256  *   0.35398463  *  -0.12714951  *
     4       C         -0.68003734  *   0.23261718  *   0.07275187  *
     5       C         -1.64344450  *   1.31748922  *   0.45100412  *
     6       C         -2.96926530  *   0.62034604  *   0.53302018  *
     7       N         -2.85509908  *  -0.65685802  *   0.26386171  *
     8       C         -1.39505420  *  -1.03001807  *  -0.05417561  *
     9       O         -1.17425841  *  -2.16196072  *  -0.31267474  *
    10       H          3.66501257  *   1.53132413  *  -0.78452679  *
    11       H          3.63790222  *  -0.13892932  *  -1.41443358  *
    12       H          3.90315450  *   0.15471861  *   0.31916034  *
    13       H         -1.36018485  *   1.81406088  *   1.41443358  *
    14       H         -1.64507506  *   2.16196072  *  -0.28495572  *
    15       H         -3.90315450  *   1.13872070  *   0.79071861  *
    16       H         -3.59406798  *  -1.35942968  *   0.24954010  *

                             CARTESIAN COORDINATES

   1    C        3.308652319     0.500547734    -0.561088701
   2    C        1.922039577     0.428583808    -0.335632970
   3    C        0.636282555     0.353984634    -0.127149513
   4    C       -0.680037341     0.232617182     0.072751866
   5    C       -1.643444498     1.317489223     0.451004123
   6    C       -2.969265299     0.620346035     0.533020177
   7    N       -2.855099081    -0.656858023     0.263861707
   8    C       -1.395054198    -1.030018072    -0.054175612
   9    O       -1.174258407    -2.161960722    -0.312674744
  10    H        3.665012572     1.531324126    -0.784526788
  11    H        3.637902222    -0.138929315    -1.414433584
  12    H        3.903154501     0.154718610     0.319160337
  13    H       -1.360184846     1.814060883     1.414433584
  14    H       -1.645075061     2.161960722    -0.284955724
  15    H       -3.903154501     1.138720704     0.790718613
  16    H       -3.594067978    -1.359429680     0.249540096


           Empirical Formula: C7 H7 N O  =    16 atoms



      MOLECULAR POINT GROUP   :   C1  


          ALPHA EIGENVALUES  
 -38.68493 -33.07919 -29.67576 -27.78822 -26.26300 -24.75456 -22.14151 -21.72217
 -19.32955 -17.45816 -17.27248 -16.52097 -16.09367 -15.44814 -15.35245 -15.21428
 -14.96317 -14.60873 -13.41240 -12.49197 -12.28862 -10.70997  -9.59216  -1.46430
  -0.15444  -0.09850   0.68703   0.85737   1.82834   2.37392   2.64074   3.22934
   3.38437   3.79715   4.23434   4.47305   4.54411   4.93372   4.99969   5.12289
   5.31474   5.52347   6.21510


           BETA EIGENVALUES 
 -38.69658 -32.71616 -29.58196 -27.63289 -26.19761 -24.66361 -22.11039 -21.59980
 -19.25631 -17.38774 -16.96060 -16.43346 -15.98833 -15.36408 -15.05134 -14.86997
 -14.85701 -14.59104 -13.24673 -12.40838 -11.66646 -10.69620  -2.35512  -1.09747
   0.06219   0.29662   0.69085   1.63431   1.86290   2.43606   2.71535   3.31510
   3.52265   3.91018   4.25558   4.51605   4.69699   5.02583   5.04169   5.18014
   5.33220   5.51847   6.25616


              NET ATOMIC CHARGES AND DIPOLE CONTRIBUTIONS

  ATOM NO.   TYPE          CHARGE      No. of ELECS.   s-Pop       p-Pop       
    1          C          -0.447821        4.4478     1.03862     3.40920
    2          C           0.140004        3.8600     1.13461     2.72538
    3          C          -0.172832        4.1728     1.06961     3.10323
    4          C          -0.068219        4.0682     1.05402     3.01420
    5          C          -0.329775        4.3298     1.06743     3.26235
    6          C           0.290580        3.7094     1.14838     2.56104
    7          N          -0.358308        5.3583     1.56994     3.78836
    8          C           0.587892        3.4121     1.12049     2.29162
    9          O          -0.383232        6.3832     1.86955     4.51368
   10          H           0.209082        0.7909     0.79092
   11          H           0.214369        0.7856     0.78563
   12          H           0.216833        0.7832     0.78317
   13          H           0.241753        0.7582     0.75825
   14          H           0.241063        0.7589     0.75894
   15          H           0.236836        0.7632     0.76316
   16          H           0.381774        0.6182     0.61823
 DIPOLE           X         Y         Z       TOTAL
 POINT-CHG.    -4.865     5.160     1.869     7.334
 HYBRID        -0.576    -0.781    -0.050     0.972
 SUM           -5.441     4.379     1.819     7.218


          ATOMIC ORBITAL ELECTRON POPULATIONS

     Atom    s        px        py        pz   
    1  C   1.03862   0.98943   1.21440   1.20536
    2  C   1.13461   0.94738   0.90594   0.87207
    3  C   1.06961   0.95650   1.12624   1.02048
    4  C   1.05402   0.97112   0.95831   1.08477
    5  C   1.06743   0.95518   1.08569   1.22148
    6  C   1.14838   1.05623   0.84368   0.66113
    7  N   1.56994   1.25615   1.16326   1.36895
    8  C   1.12049   0.74965   0.84652   0.69544
    9  O   1.86955   1.78303   1.28617   1.44448
   10  H   0.79092
   11  H   0.78563
   12  H   0.78317
   13  H   0.75825
   14  H   0.75894
   15  H   0.76316
   16  H   0.61823


                    (SZ)    =    0.500000
                    (S**2)  =    0.842605


          ATOMIC ORBITAL SPIN POPULATIONS

    Atom   Total    s     px     py     pz   
         Atomic
    1  C -0.0197 -0.004 -0.018 -0.002  0.004
    2  C  0.6641  0.019  0.032  0.145  0.468
    3  C -0.3832 -0.018 -0.027 -0.134 -0.204
    4  C  0.6117  0.017  0.036  0.043  0.516
    5  C -0.0289 -0.004 -0.011 -0.012 -0.001
    6  C  0.0184  0.001  0.002  0.001  0.015
    7  N -0.0145 -0.002 -0.004 -0.001 -0.007
    8  C -0.0411 -0.011 -0.004 -0.012 -0.014
    9  O  0.1208  0.004  0.007  0.003  0.107
   10  H  0.0092  0.009
   11  H  0.0158  0.016
   12  H  0.0290  0.029
   13  H  0.0100  0.010
   14  H  0.0098  0.010
   15  H -0.0011 -0.001
   16  H -0.0004 -0.000

 **********************
 *                    *
 * JOB ENDED NORMALLY *
 *                    *
 **********************



 TOTAL JOB TIME:             2.24 SECONDS

 == MOPAC DONE ==
