 *******************************************************************************
 **                                                                           **
 **                              MOPAC v23.2                                  **
 **                                                                           **
 *******************************************************************************
 **          Digital Object Identifier (DOI): 10.5281/zenodo.6511958          **
 **    Visit the DOI location for information on how to cite this program.    **
 *******************************************************************************

                              PM7 CALCULATION RESULTS

 *******************************************************************************
 *  CALCULATION DONE: (MAX THREADS = 40)             Fri Sep 19 21:34:23 2025  *
 *  PM7        - The PM7 Hamiltonian to be used
 *
 *
 *
 *                 CHARGE ON SYSTEM = +1
 *
 *
 *
 *  1SCF       - DO 1 SCF AND THEN STOP 
 *  T=         - A TIME OF 172800.0 SECONDS REQUESTED
 *  DUMP=N     - RESTART FILE WRITTEN EVERY 7200.0 SECONDS REQUESTED
 *  RELSCF     - DEFAULT SCF CRITERION MULTIPLIED BY 0.0001
 *              (DEFAULT SCF CRITERION = 0.00010)
 *  GRADIENTS  - ALL GRADIENTS TO BE PRINTED
 *  DISP       - PRINT DISPERSION AND HYDROGEN BOND ENERGIES
 *******************************************************************************
PM7 1SCF GRADIENTS DISP RELSCF=0.0001 CHARGE=1
 Title: ASE calculation

   ATOM   CHEMICAL          X               Y               Z
  NUMBER   SYMBOL      (ANGSTROMS)     (ANGSTROMS)     (ANGSTROMS)

     1       C         -2.13477925  *  -0.41412611  *   0.59191868  *
     2       C         -1.33336095  *   0.00881991  *  -0.65076891  *
     3       C         -0.00357602  *  -0.56528598  *  -0.54482135  *
     4       O          0.23917261  *  -1.76151135  *  -1.05769058  *
     5       N          1.59778971  *  -2.13177622  *  -0.78953194  *
     6       C          2.18216292  *  -1.16054481  *  -0.12101289  *
     7       C          1.23653872  *  -0.07987928  *   0.10125844  *
     8       C          1.43967394  *   1.12579676  *   0.75472606  *
     9       N          1.62218526  *   2.13429823  *   1.30609859  *
    10       H         -2.25102732  *  -1.50467344  *   0.67444754  *
    11       H         -1.70800944  *  -0.03528014  *   1.53014611  *
    12       H         -3.16266288  *  -0.00440440  *   0.53502385  *
    13       H         -1.31700499  *   1.12977796  *  -0.72228991  *
    14       H         -1.88094528  *  -0.32512517  *  -1.57579355  *
    15       H          3.23447548  *  -1.18845278  *   0.20653344  *



          CARTESIAN COORDINATES 

    NO.       ATOM           X           Y           Z

     1         C         -2.1348     -0.4141      0.5919
     2         C         -1.3334      0.0088     -0.6508
     3         C         -0.0036     -0.5653     -0.5448
     4         O          0.2392     -1.7615     -1.0577
     5         N          1.5978     -2.1318     -0.7895
     6         C          2.1822     -1.1605     -0.1210
     7         C          1.2365     -0.0799      0.1013
     8         C          1.4397      1.1258      0.7547
     9         N          1.6222      2.1343      1.3061
    10         H         -2.2510     -1.5047      0.6744
    11         H         -1.7080     -0.0353      1.5301
    12         H         -3.1627     -0.0044      0.5350
    13         H         -1.3170      1.1298     -0.7223
    14         H         -1.8809     -0.3251     -1.5758
    15         H          3.2345     -1.1885      0.2065

 General Reference for PM7:
 "Optimization of Parameters for Semiempirical Methods VI: More Modifications to the 
 NDDO Approximations and Re-optimization of Parameters", J. J. P. Stewart, J. Mol. Mod., 1:32, 19 (2013)
 https://link.springer.com/article/10.1007/s00894-012-1667-x

           Empirical Formula: C6 H6 N2 O  =    15 atoms



      MOLECULAR POINT GROUP   :   C1  


          UHF CALCULATION, NO. OF ALPHA ELECTRONS =   23
                           NO. OF BETA  ELECTRONS =   22
  SCF CRITERION =    0.1000E-07

 -------------------------------------------------------------------------------
 PM7 1SCF GRADIENTS DISP RELSCF=0.0001 CHARGE=1
 Title: ASE calculation



     1SCF WAS SPECIFIED, SO BFGS WAS NOT USED                 
     SCF FIELD WAS ACHIEVED                                   


                              PM7 CALCULATION
                                                       MOPAC v23.2 Linux
                                                       Fri Sep 19 21:34:24 2025




          FINAL HEAT OF FORMATION =        264.94886 KCAL/MOL =    1108.54602 KJ/MOL

          TOTAL ENERGY            =     -33984.15175 KCAL/MOL = ELECTRONIC ENERGY + CORE-CORE REPULSION
          ENERGY OF ATOMS         =      34250.86932 KCAL/MOL
                              SUM =        266.71757 KCAL/MOL
          DISPERSION ENERGY       =         -1.76871 KCAL/MOL
                              SUM =        264.94886 KCAL/MOL = FINAL HEAT OF FORMATION



          TOTAL ENERGY            =      -1473.69230 EV
          ELECTRONIC ENERGY       =      -6434.33927 EV 
          CORE-CORE REPULSION     =       4960.64697 EV
          COSMO AREA              =        159.43 SQUARE ANGSTROMS
          COSMO VOLUME            =        153.79 CUBIC ANGSTROMS

          GRADIENT NORM           =          1.15214          =       0.29748 PER ATOM
          IONIZATION POTENTIAL    =         16.557247 EV
          ALPHA SOMO LUMO (EV)    =        -16.557 -6.879
          BETA  SOMO LUMO (EV)    =        -17.169 -9.010
          NO. OF ALPHA ELECTRONS  =         23
          NO. OF BETA  ELECTRONS  =         22
          MOLECULAR WEIGHT        =        122.1262         POINT GROUP:  C1  

          MOLECULAR DIMENSIONS (Angstroms)

            Atom       Atom       Distance
            H    15    H    12     6.51408
            N     9    O     4     4.73241
            H    13    H    10     2.58048


          SCF CALCULATIONS        =          1

          WALL-CLOCK TIME         =      0.797 SECONDS
          COMPUTATION TIME        =      0.670 SECONDS

          LARGEST ATOMIC GRADIENTS

          Atom     Label                     Cartesian Gradients           Cartesian Coordinates       |Gradient|
                                           X          Y          Z        X          Y          Z

             2       C                  -0.444      0.057      0.085   -1.33336    0.00882   -0.65077      0.456
             6       C                   0.186     -0.380     -0.075    2.18216   -1.16054   -0.12101      0.430
            14       H                   0.218      0.145     -0.315   -1.88095   -0.32513   -1.57579      0.410
             8       C                   0.017      0.362     -0.048    1.43967    1.12580    0.75473      0.366
             7       C                  -0.297      0.070      0.145    1.23654   -0.07988    0.10126      0.338
            12       H                   0.137     -0.177     -0.170   -3.16266   -0.00440    0.53502      0.280
             4       O                  -0.113      0.090      0.228    0.23917   -1.76151   -1.05769      0.270
             9       N                   0.241      0.051      0.097    1.62219    2.13430    1.30610      0.265
            13       H                  -0.143      0.201     -0.072   -1.31700    1.12978   -0.72229      0.258
             1       C                  -0.034     -0.113      0.214   -2.13478   -0.41413    0.59192      0.245



       FINAL  POINT  AND  DERIVATIVES

   PARAMETER     ATOM    TYPE            VALUE        GRADIENT
      1          1  C    CARTESIAN X    -2.134779     -0.033506  KCAL/ANGSTROM
      2          1  C    CARTESIAN Y    -0.414126     -0.113413  KCAL/ANGSTROM
      3          1  C    CARTESIAN Z     0.591919      0.214006  KCAL/ANGSTROM
      4          2  C    CARTESIAN X    -1.333361     -0.444014  KCAL/ANGSTROM
      5          2  C    CARTESIAN Y     0.008820      0.057103  KCAL/ANGSTROM
      6          2  C    CARTESIAN Z    -0.650769      0.084765  KCAL/ANGSTROM
      7          3  C    CARTESIAN X    -0.003576     -0.181574  KCAL/ANGSTROM
      8          3  C    CARTESIAN Y    -0.565286     -0.145831  KCAL/ANGSTROM
      9          3  C    CARTESIAN Z    -0.544821      0.049385  KCAL/ANGSTROM
     10          4  O    CARTESIAN X     0.239173     -0.113422  KCAL/ANGSTROM
     11          4  O    CARTESIAN Y    -1.761511      0.090039  KCAL/ANGSTROM
     12          4  O    CARTESIAN Z    -1.057691      0.227717  KCAL/ANGSTROM
     13          5  N    CARTESIAN X     1.597790      0.096178  KCAL/ANGSTROM
     14          5  N    CARTESIAN Y    -2.131776     -0.157818  KCAL/ANGSTROM
     15          5  N    CARTESIAN Z    -0.789532      0.086447  KCAL/ANGSTROM
     16          6  C    CARTESIAN X     2.182163      0.186316  KCAL/ANGSTROM
     17          6  C    CARTESIAN Y    -1.160545     -0.379996  KCAL/ANGSTROM
     18          6  C    CARTESIAN Z    -0.121013     -0.074917  KCAL/ANGSTROM
     19          7  C    CARTESIAN X     1.236539     -0.296958  KCAL/ANGSTROM
     20          7  C    CARTESIAN Y    -0.079879      0.070071  KCAL/ANGSTROM
     21          7  C    CARTESIAN Z     0.101258      0.145094  KCAL/ANGSTROM
     22          8  C    CARTESIAN X     1.439674      0.016808  KCAL/ANGSTROM
     23          8  C    CARTESIAN Y     1.125797      0.362044  KCAL/ANGSTROM
     24          8  C    CARTESIAN Z     0.754726     -0.047582  KCAL/ANGSTROM
     25          9  N    CARTESIAN X     1.622185      0.241181  KCAL/ANGSTROM
     26          9  N    CARTESIAN Y     2.134298      0.051120  KCAL/ANGSTROM
     27          9  N    CARTESIAN Z     1.306099      0.097067  KCAL/ANGSTROM
     28         10  H    CARTESIAN X    -2.251027      0.069124  KCAL/ANGSTROM
     29         10  H    CARTESIAN Y    -1.504673     -0.051016  KCAL/ANGSTROM
     30         10  H    CARTESIAN Z     0.674448     -0.133600  KCAL/ANGSTROM
     31         11  H    CARTESIAN X    -1.708009      0.143762  KCAL/ANGSTROM
     32         11  H    CARTESIAN Y    -0.035280      0.013053  KCAL/ANGSTROM
     33         11  H    CARTESIAN Z     1.530146      0.028195  KCAL/ANGSTROM
     34         12  H    CARTESIAN X    -3.162663      0.136637  KCAL/ANGSTROM
     35         12  H    CARTESIAN Y    -0.004404     -0.176689  KCAL/ANGSTROM
     36         12  H    CARTESIAN Z     0.535024     -0.169617  KCAL/ANGSTROM
     37         13  H    CARTESIAN X    -1.317005     -0.143422  KCAL/ANGSTROM
     38         13  H    CARTESIAN Y     1.129778      0.201449  KCAL/ANGSTROM
     39         13  H    CARTESIAN Z    -0.722290     -0.071896  KCAL/ANGSTROM
     40         14  H    CARTESIAN X    -1.880945      0.217630  KCAL/ANGSTROM
     41         14  H    CARTESIAN Y    -0.325125      0.145083  KCAL/ANGSTROM
     42         14  H    CARTESIAN Z    -1.575794     -0.315086  KCAL/ANGSTROM
     43         15  H    CARTESIAN X     3.234475      0.105262  KCAL/ANGSTROM
     44         15  H    CARTESIAN Y    -1.188453      0.034799  KCAL/ANGSTROM
     45         15  H    CARTESIAN Z     0.206533     -0.119981  KCAL/ANGSTROM




   ATOM   CHEMICAL          X               Y               Z
  NUMBER   SYMBOL      (ANGSTROMS)     (ANGSTROMS)     (ANGSTROMS)

     1       C         -2.13477925  *  -0.41412611  *   0.59191868  *
     2       C         -1.33336095  *   0.00881991  *  -0.65076891  *
     3       C         -0.00357602  *  -0.56528598  *  -0.54482135  *
     4       O          0.23917261  *  -1.76151135  *  -1.05769058  *
     5       N          1.59778971  *  -2.13177622  *  -0.78953194  *
     6       C          2.18216292  *  -1.16054481  *  -0.12101289  *
     7       C          1.23653872  *  -0.07987928  *   0.10125844  *
     8       C          1.43967394  *   1.12579676  *   0.75472606  *
     9       N          1.62218526  *   2.13429823  *   1.30609859  *
    10       H         -2.25102732  *  -1.50467344  *   0.67444754  *
    11       H         -1.70800944  *  -0.03528014  *   1.53014611  *
    12       H         -3.16266288  *  -0.00440440  *   0.53502385  *
    13       H         -1.31700499  *   1.12977796  *  -0.72228991  *
    14       H         -1.88094528  *  -0.32512517  *  -1.57579355  *
    15       H          3.23447548  *  -1.18845278  *   0.20653344  *

                             CARTESIAN COORDINATES

   1    C       -2.134779247    -0.414126105     0.591918680
   2    C       -1.333360949     0.008819907    -0.650768912
   3    C       -0.003576015    -0.565285984    -0.544821354
   4    O        0.239172615    -1.761511354    -1.057690579
   5    N        1.597789710    -2.131776223    -0.789531943
   6    C        2.182162917    -1.160544814    -0.121012894
   7    C        1.236538720    -0.079879280     0.101258438
   8    C        1.439673938     1.125796763     0.754726064
   9    N        1.622185263     2.134298230     1.306098594
  10    H       -2.251027320    -1.504673436     0.674447544
  11    H       -1.708009444    -0.035280136     1.530146105
  12    H       -3.162662876    -0.004404405     0.535023853
  13    H       -1.317004993     1.129777960    -0.722289912
  14    H       -1.880945285    -0.325125166    -1.575793550
  15    H        3.234475481    -1.188452778     0.206533436


           Empirical Formula: C6 H6 N2 O  =    15 atoms



      MOLECULAR POINT GROUP   :   C1  


          ALPHA EIGENVALUES  
 -42.03405 -39.90859 -37.16035 -34.76555 -32.57202 -28.78347 -27.88939 -26.59540
 -24.66587 -22.63206 -22.29214 -21.41890 -20.46937 -20.09481 -19.82843 -19.26112
 -19.01054 -18.55656 -18.08757 -17.70599 -17.60195 -17.21189 -16.55725  -6.87883
  -5.88024  -5.71069  -4.67187  -3.88156  -3.61657  -3.48809  -2.57785  -2.42398
  -2.24528  -1.36142  -1.33497  -0.22845  -0.21361   0.33140   0.61509   1.03133
   1.04859   2.16533


           BETA EIGENVALUES 
 -41.58765 -39.41701 -36.99892 -34.63324 -32.34009 -28.72170 -27.77508 -26.51950
 -24.53135 -22.43266 -21.89897 -21.23407 -20.47253 -20.03256 -19.22699 -18.85476
 -18.68181 -18.33853 -17.83163 -17.54219 -17.40058 -17.16881  -9.00994  -6.07144
  -5.70916  -5.18163  -4.55210  -3.51835  -3.35969  -3.25917  -2.48900  -2.29561
  -2.11739  -1.33362  -1.20075  -0.26505  -0.20619   0.44520   0.62064   1.03545
   1.05211   2.16610


              NET ATOMIC CHARGES AND DIPOLE CONTRIBUTIONS

  ATOM NO.   TYPE          CHARGE      No. of ELECS.   s-Pop       p-Pop       
    1          C          -0.417031        4.4170     1.05591     3.36113
    2          C          -0.329290        4.3293     1.06277     3.26652
    3          C           0.325035        3.6750     1.19273     2.48224
    4          O           0.104197        5.8958     1.91530     3.98050
    5          N          -0.022805        5.0228     1.82844     3.19436
    6          C          -0.023260        4.0233     1.12839     2.89487
    7          C           0.025588        3.9744     1.10138     2.87303
    8          C           0.011396        3.9886     1.07304     2.91557
    9          N           0.047356        4.9526     1.82983     3.12282
   10          H           0.178197        0.8218     0.82180
   11          H           0.170914        0.8291     0.82909
   12          H           0.206534        0.7935     0.79347
   13          H           0.224066        0.7759     0.77593
   14          H           0.228714        0.7713     0.77129
   15          H           0.270390        0.7296     0.72961
 DIPOLE           X         Y         Z       TOTAL
 POINT-CHG.    -1.368    -0.358    -0.668     1.564
 HYBRID        -0.027    -0.040    -0.200     0.205
 SUM           -1.395    -0.398    -0.868     1.690


          ATOMIC ORBITAL ELECTRON POPULATIONS

     Atom    s        px        py        pz   
    1  C   1.05591   1.14729   1.19421   1.01962
    2  C   1.06277   0.94470   1.17662   1.14520
    3  C   1.19273   0.96137   0.83279   0.68808
    4  O   1.91530   1.22098   1.25915   1.50036
    5  N   1.82844   0.88909   1.19676   1.10851
    6  C   1.12839   1.08349   0.87992   0.93145
    7  C   1.10138   0.95136   0.97535   0.94632
    8  C   1.07304   1.00433   0.93054   0.98070
    9  N   1.82983   0.99297   1.13740   0.99245
   10  H   0.82180
   11  H   0.82909
   12  H   0.79347
   13  H   0.77593
   14  H   0.77129
   15  H   0.72961


                    (SZ)    =    0.500000
                    (S**2)  =    0.831407


          ATOMIC ORBITAL SPIN POPULATIONS

    Atom   Total    s     px     py     pz   
         Atomic
    1  C  0.0172  0.002  0.008  0.001  0.006
    2  C -0.0002 -0.001 -0.004  0.000  0.005
    3  C  0.1062 -0.002  0.005  0.019  0.084
    4  O -0.0263 -0.000 -0.029 -0.001  0.004
    5  N  0.4208  0.004  0.056  0.087  0.274
    6  C -0.2948 -0.013 -0.033 -0.066 -0.183
    7  C  0.6694  0.018  0.068  0.127  0.457
    8  C -0.1897 -0.013 -0.051 -0.035 -0.090
    9  N  0.2859  0.003  0.062  0.049  0.172
   10  H -0.0005 -0.001
   11  H -0.0005 -0.001
   12  H  0.0009  0.001
   13  H  0.0024  0.002
   14  H  0.0015  0.002
   15  H  0.0078  0.008

 **********************
 *                    *
 * JOB ENDED NORMALLY *
 *                    *
 **********************



 TOTAL JOB TIME:             0.95 SECONDS

 == MOPAC DONE ==
