 *******************************************************************************
 **                                                                           **
 **                              MOPAC v23.2                                  **
 **                                                                           **
 *******************************************************************************
 **          Digital Object Identifier (DOI): 10.5281/zenodo.6511958          **
 **    Visit the DOI location for information on how to cite this program.    **
 *******************************************************************************

                              PM7 CALCULATION RESULTS

 *******************************************************************************
 *  CALCULATION DONE: (MAX THREADS = 40)             Fri Sep 19 21:41:56 2025  *
 *  PM7        - The PM7 Hamiltonian to be used
 *  EPS=37.5   - USE ANDREAS KLAMT'S COSMO IMPLICIT SOLVATION MODEL
 *  1SCF       - DO 1 SCF AND THEN STOP 
 *  T=         - A TIME OF 172800.0 SECONDS REQUESTED
 *  DUMP=N     - RESTART FILE WRITTEN EVERY 7200.0 SECONDS REQUESTED
 *  RELSCF     - DEFAULT SCF CRITERION MULTIPLIED BY 0.0001
 *              (DEFAULT SCF CRITERION = 0.00010)
 *  GRADIENTS  - ALL GRADIENTS TO BE PRINTED
 *  DISP       - PRINT DISPERSION AND HYDROGEN BOND ENERGIES
 *******************************************************************************
PM7 1SCF GRADIENTS EPS=37.5 DISP RELSCF=0.0001
 Title: ASE calculation

   ATOM   CHEMICAL          X               Y               Z
  NUMBER   SYMBOL      (ANGSTROMS)     (ANGSTROMS)     (ANGSTROMS)

     1       C         -0.96335760  *   1.78732763  *   0.62201256  *
     2       C         -0.37374914  *   0.51147457  *   0.06779317  *
     3       C         -0.92731364  *   0.06125461  *  -1.28453740  *
     4       C         -1.71792405  *  -1.22864227  *  -1.01176354  *
     5       C         -1.10866405  *  -1.86906111  *   0.24717519  *
     6       C         -0.43936679  *  -0.73270934  *   1.03875623  *
     7       N          0.97588424  *  -1.02028133  *   1.32827945  *
     8       C          1.71436810  *  -0.18801625  *   0.67748181  *
     9       O          1.05254722  *   0.74397033  *  -0.08218117  *
    10       H         -2.05000989  *   1.70799666  *   0.74149680  *
    11       H         -0.53414497  *   2.03831760  *   1.60144890  *
    12       H         -0.75899312  *   2.64176301  *  -0.03877659  *
    13       H         -1.55190580  *   0.83300575  *  -1.76045454  *
    14       H         -0.09303139  *  -0.12741897  *  -1.98869226  *
    15       H         -2.78743394  *  -1.00266889  *  -0.85423459  *
    16       H         -1.67309224  *  -1.91643603  *  -1.87173122  *
    17       H         -0.36322094  *  -2.64176301  *  -0.02165550  *
    18       H         -1.86961307  *  -2.38700484  *   0.85146458  *
    19       H         -0.97057058  *  -0.51836876  *   1.98869226  *
    20       H          2.78743394  *  -0.09210106  *   0.63473045  *



          CARTESIAN COORDINATES 

    NO.       ATOM           X           Y           Z

     1         C         -0.9634      1.7873      0.6220
     2         C         -0.3737      0.5115      0.0678
     3         C         -0.9273      0.0613     -1.2845
     4         C         -1.7179     -1.2286     -1.0118
     5         C         -1.1087     -1.8691      0.2472
     6         C         -0.4394     -0.7327      1.0388
     7         N          0.9759     -1.0203      1.3283
     8         C          1.7144     -0.1880      0.6775
     9         O          1.0525      0.7440     -0.0822
    10         H         -2.0500      1.7080      0.7415
    11         H         -0.5341      2.0383      1.6014
    12         H         -0.7590      2.6418     -0.0388
    13         H         -1.5519      0.8330     -1.7605
    14         H         -0.0930     -0.1274     -1.9887
    15         H         -2.7874     -1.0027     -0.8542
    16         H         -1.6731     -1.9164     -1.8717
    17         H         -0.3632     -2.6418     -0.0217
    18         H         -1.8696     -2.3870      0.8515
    19         H         -0.9706     -0.5184      1.9887
    20         H          2.7874     -0.0921      0.6347

 General Reference for PM7:
 "Optimization of Parameters for Semiempirical Methods VI: More Modifications to the 
 NDDO Approximations and Re-optimization of Parameters", J. J. P. Stewart, J. Mol. Mod., 1:32, 19 (2013)
 https://link.springer.com/article/10.1007/s00894-012-1667-x

           Empirical Formula: C7 H11 N O  =    20 atoms



      MOLECULAR POINT GROUP   :   C1  


      RHF CALCULATION, NO. OF DOUBLY OCCUPIED LEVELS = 25

  SCF CRITERION =    0.1000E-07

 -------------------------------------------------------------------------------
 PM7 1SCF GRADIENTS EPS=37.5 DISP RELSCF=0.0001
 Title: ASE calculation



     1SCF WAS SPECIFIED, SO BFGS WAS NOT USED                 
     SCF FIELD WAS ACHIEVED                                   


                              PM7 CALCULATION
                                                       MOPAC v23.2 Linux
                                                       Fri Sep 19 21:41:57 2025




          FINAL HEAT OF FORMATION =        -47.71483 KCAL/MOL =    -199.63884 KJ/MOL

          TOTAL ENERGY            =     -34369.62595 KCAL/MOL = ELECTRONIC ENERGY + CORE-CORE REPULSION + SOLVATION ENERGY
          ENERGY OF ATOMS         =      34323.93363 KCAL/MOL
                              SUM =        -45.69231 KCAL/MOL
          DISPERSION ENERGY       =         -2.02251 KCAL/MOL
                              SUM =        -47.71483 KCAL/MOL = FINAL HEAT OF FORMATION

          VAN DER WAALS AREA      =        158.53 SQUARE ANGSTROMS


          TOTAL ENERGY            =      -1490.40804 EV
          ELECTRONIC ENERGY       =      -2480.97531 EV 
          CORE-CORE REPULSION     =        990.56727 EV

          DIELECTRIC ENERGY       =         -0.40731 EV
          COSMO AREA              =        158.53 SQUARE ANGSTROMS
          COSMO VOLUME            =        161.97 CUBIC ANGSTROMS

          GRADIENT NORM           =         17.69290          =       3.95625 PER ATOM
          IONIZATION POTENTIAL    =         10.418884 EV
          HOMO LUMO ENERGIES (EV) =        -10.419  0.627
          NO. OF FILLED LEVELS    =         25
          MOLECULAR WEIGHT        =        125.1700         POINT GROUP:  C1  

          MOLECULAR DIMENSIONS (Angstroms)

            Atom       Atom       Distance
            H    20    H    15     5.84169
            H    17    H    12     5.27993
            H    19    H    14     4.07530


          SCF CALCULATIONS        =          2

          WALL-CLOCK TIME         =      1.055 SECONDS
          COMPUTATION TIME        =      1.059 SECONDS

          LARGEST ATOMIC GRADIENTS

          Atom     Label                     Cartesian Gradients           Cartesian Coordinates       |Gradient|
                                           X          Y          Z        X          Y          Z

             8       C                  -1.302     -7.493      6.026    1.71437   -0.18802    0.67748      9.703
             9       O                  -4.992      5.285     -4.307    1.05255    0.74397   -0.08218      8.450
             2       C                   7.458     -0.621     -0.072   -0.37375    0.51147    0.06779      7.484
             7       N                   2.135      2.837     -3.080    0.97588   -1.02028    1.32828      4.701
            20       H                  -4.440     -0.491      0.401    2.78743   -0.09210    0.63473      4.485
             1       C                  -3.975      1.622      0.615   -0.96336    1.78733    0.62201      4.337
             6       C                   2.204      0.448      1.264   -0.43937   -0.73271    1.03876      2.580
             3       C                  -1.952      0.726     -1.068   -0.92731    0.06125   -1.28454      2.340
             5       C                  -1.901     -0.036     -0.190   -1.10866   -1.86906    0.24718      1.911
             4       C                  -1.379     -0.284     -0.938   -1.71792   -1.22864   -1.01176      1.692



       FINAL  POINT  AND  DERIVATIVES

   PARAMETER     ATOM    TYPE            VALUE        GRADIENT
      1          1  C    CARTESIAN X    -0.963358     -3.975143  KCAL/ANGSTROM
      2          1  C    CARTESIAN Y     1.787328      1.622145  KCAL/ANGSTROM
      3          1  C    CARTESIAN Z     0.622013      0.614865  KCAL/ANGSTROM
      4          2  C    CARTESIAN X    -0.373749      7.458374  KCAL/ANGSTROM
      5          2  C    CARTESIAN Y     0.511475     -0.620538  KCAL/ANGSTROM
      6          2  C    CARTESIAN Z     0.067793     -0.072128  KCAL/ANGSTROM
      7          3  C    CARTESIAN X    -0.927314     -1.951519  KCAL/ANGSTROM
      8          3  C    CARTESIAN Y     0.061255      0.726031  KCAL/ANGSTROM
      9          3  C    CARTESIAN Z    -1.284537     -1.067901  KCAL/ANGSTROM
     10          4  C    CARTESIAN X    -1.717924     -1.379324  KCAL/ANGSTROM
     11          4  C    CARTESIAN Y    -1.228642     -0.283641  KCAL/ANGSTROM
     12          4  C    CARTESIAN Z    -1.011764     -0.937509  KCAL/ANGSTROM
     13          5  C    CARTESIAN X    -1.108664     -1.900798  KCAL/ANGSTROM
     14          5  C    CARTESIAN Y    -1.869061     -0.036065  KCAL/ANGSTROM
     15          5  C    CARTESIAN Z     0.247175     -0.189512  KCAL/ANGSTROM
     16          6  C    CARTESIAN X    -0.439367      2.203771  KCAL/ANGSTROM
     17          6  C    CARTESIAN Y    -0.732709      0.448253  KCAL/ANGSTROM
     18          6  C    CARTESIAN Z     1.038756      1.264196  KCAL/ANGSTROM
     19          7  N    CARTESIAN X     0.975884      2.135308  KCAL/ANGSTROM
     20          7  N    CARTESIAN Y    -1.020281      2.837294  KCAL/ANGSTROM
     21          7  N    CARTESIAN Z     1.328279     -3.080230  KCAL/ANGSTROM
     22          8  C    CARTESIAN X     1.714368     -1.302415  KCAL/ANGSTROM
     23          8  C    CARTESIAN Y    -0.188016     -7.493155  KCAL/ANGSTROM
     24          8  C    CARTESIAN Z     0.677482      6.025786  KCAL/ANGSTROM
     25          9  O    CARTESIAN X     1.052547     -4.992080  KCAL/ANGSTROM
     26          9  O    CARTESIAN Y     0.743970      5.285180  KCAL/ANGSTROM
     27          9  O    CARTESIAN Z    -0.082181     -4.306724  KCAL/ANGSTROM
     28         10  H    CARTESIAN X    -2.050010      1.287502  KCAL/ANGSTROM
     29         10  H    CARTESIAN Y     1.707997     -0.085656  KCAL/ANGSTROM
     30         10  H    CARTESIAN Z     0.741497      0.009918  KCAL/ANGSTROM
     31         11  H    CARTESIAN X    -0.534145      0.586358  KCAL/ANGSTROM
     32         11  H    CARTESIAN Y     2.038318     -0.400959  KCAL/ANGSTROM
     33         11  H    CARTESIAN Z     1.601449     -0.868359  KCAL/ANGSTROM
     34         12  H    CARTESIAN X    -0.758993      0.979050  KCAL/ANGSTROM
     35         12  H    CARTESIAN Y     2.641763     -0.481619  KCAL/ANGSTROM
     36         12  H    CARTESIAN Z    -0.038777      0.444487  KCAL/ANGSTROM
     37         13  H    CARTESIAN X    -1.551906      0.738329  KCAL/ANGSTROM
     38         13  H    CARTESIAN Y     0.833006     -0.549595  KCAL/ANGSTROM
     39         13  H    CARTESIAN Z    -1.760455      0.312841  KCAL/ANGSTROM
     40         14  H    CARTESIAN X    -0.093031      0.679472  KCAL/ANGSTROM
     41         14  H    CARTESIAN Y    -0.127419      0.021844  KCAL/ANGSTROM
     42         14  H    CARTESIAN Z    -1.988692      0.688790  KCAL/ANGSTROM
     43         15  H    CARTESIAN X    -2.787434      0.357323  KCAL/ANGSTROM
     44         15  H    CARTESIAN Y    -1.002669     -0.161339  KCAL/ANGSTROM
     45         15  H    CARTESIAN Z    -0.854235      0.005946  KCAL/ANGSTROM
     46         16  H    CARTESIAN X    -1.673092      0.413159  KCAL/ANGSTROM
     47         16  H    CARTESIAN Y    -1.916436      0.231361  KCAL/ANGSTROM
     48         16  H    CARTESIAN Z    -1.871731      0.568293  KCAL/ANGSTROM
     49         17  H    CARTESIAN X    -0.363221      1.006809  KCAL/ANGSTROM
     50         17  H    CARTESIAN Y    -2.641763      0.212671  KCAL/ANGSTROM
     51         17  H    CARTESIAN Z    -0.021656      0.728711  KCAL/ANGSTROM
     52         18  H    CARTESIAN X    -1.869613      0.951958  KCAL/ANGSTROM
     53         18  H    CARTESIAN Y    -2.387005      0.157832  KCAL/ANGSTROM
     54         18  H    CARTESIAN Z     0.851465     -0.118762  KCAL/ANGSTROM
     55         19  H    CARTESIAN X    -0.970571      1.143705  KCAL/ANGSTROM
     56         19  H    CARTESIAN Y    -0.518369     -0.938681  KCAL/ANGSTROM
     57         19  H    CARTESIAN Z     1.988692     -0.423903  KCAL/ANGSTROM
     58         20  H    CARTESIAN X     2.787434     -4.439844  KCAL/ANGSTROM
     59         20  H    CARTESIAN Y    -0.092101     -0.491366  KCAL/ANGSTROM
     60         20  H    CARTESIAN Z     0.634730      0.401191  KCAL/ANGSTROM




   ATOM   CHEMICAL          X               Y               Z
  NUMBER   SYMBOL      (ANGSTROMS)     (ANGSTROMS)     (ANGSTROMS)

     1       C         -0.96335760  *   1.78732763  *   0.62201256  *
     2       C         -0.37374914  *   0.51147457  *   0.06779317  *
     3       C         -0.92731364  *   0.06125461  *  -1.28453740  *
     4       C         -1.71792405  *  -1.22864227  *  -1.01176354  *
     5       C         -1.10866405  *  -1.86906111  *   0.24717519  *
     6       C         -0.43936679  *  -0.73270934  *   1.03875623  *
     7       N          0.97588424  *  -1.02028133  *   1.32827945  *
     8       C          1.71436810  *  -0.18801625  *   0.67748181  *
     9       O          1.05254722  *   0.74397033  *  -0.08218117  *
    10       H         -2.05000989  *   1.70799666  *   0.74149680  *
    11       H         -0.53414497  *   2.03831760  *   1.60144890  *
    12       H         -0.75899312  *   2.64176301  *  -0.03877659  *
    13       H         -1.55190580  *   0.83300575  *  -1.76045454  *
    14       H         -0.09303139  *  -0.12741897  *  -1.98869226  *
    15       H         -2.78743394  *  -1.00266889  *  -0.85423459  *
    16       H         -1.67309224  *  -1.91643603  *  -1.87173122  *
    17       H         -0.36322094  *  -2.64176301  *  -0.02165550  *
    18       H         -1.86961307  *  -2.38700484  *   0.85146458  *
    19       H         -0.97057058  *  -0.51836876  *   1.98869226  *
    20       H          2.78743394  *  -0.09210106  *   0.63473045  *

                             CARTESIAN COORDINATES

   1    C       -0.963357605     1.787327627     0.622012557
   2    C       -0.373749144     0.511474566     0.067793171
   3    C       -0.927313644     0.061254606    -1.284537401
   4    C       -1.717924054    -1.228642275    -1.011763542
   5    C       -1.108664050    -1.869061110     0.247175195
   6    C       -0.439366790    -0.732709337     1.038756229
   7    N        0.975884243    -1.020281334     1.328279448
   8    C        1.714368095    -0.188016246     0.677481810
   9    O        1.052547218     0.743970333    -0.082181168
  10    H       -2.050009887     1.707996663     0.741496800
  11    H       -0.534144974     2.038317603     1.601448901
  12    H       -0.758993122     2.641763007    -0.038776595
  13    H       -1.551905798     0.833005749    -1.760454536
  14    H       -0.093031388    -0.127418966    -1.988692264
  15    H       -2.787433944    -1.002668887    -0.854234589
  16    H       -1.673092238    -1.916436033    -1.871731222
  17    H       -0.363220943    -2.641763007    -0.021655505
  18    H       -1.869613073    -2.387004843     0.851464585
  19    H       -0.970570577    -0.518368759     1.988692264
  20    H        2.787433944    -0.092101063     0.634730452


           Empirical Formula: C7 H11 N O  =    20 atoms



      MOLECULAR POINT GROUP   :   C1  


                  EIGENVALUES  
 -36.31901 -30.37529 -29.41816 -26.48746 -24.94750 -23.25033 -21.40134 -20.06938
 -19.67638 -17.38231 -16.41930 -15.99665 -15.50613 -14.91758 -14.46484 -14.04722
 -13.66979 -13.12716 -12.67256 -12.55513 -12.14306 -11.85867 -11.44256 -11.14825
 -10.41888   0.62667   1.64985   2.64431   3.12470   3.42918   3.74868   3.86892
   4.11654   4.32775   4.68506   5.03852   5.25517   5.32334   5.59409   5.62170
   5.67046   5.76735   6.02653   6.33364   6.47837   6.53381   6.81691


              NET ATOMIC CHARGES AND DIPOLE CONTRIBUTIONS

  ATOM NO.   TYPE          CHARGE      No. of ELECS.   s-Pop       p-Pop       
    1          C          -0.498213        4.4982     1.05898     3.43923
    2          C           0.254875        3.7451     1.10776     2.63737
    3          C          -0.325543        4.3255     1.06987     3.25567
    4          C          -0.264742        4.2647     1.06230     3.20244
    5          C          -0.294864        4.2949     1.06707     3.22779
    6          C          -0.003056        4.0031     1.09579     2.90726
    7          N          -0.579825        5.5798     1.77103     3.80880
    8          C           0.321654        3.6783     1.14319     2.53516
    9          O          -0.446650        6.4466     1.87745     4.56920
   10          H           0.174166        0.8258     0.82583
   11          H           0.169946        0.8301     0.83005
   12          H           0.173718        0.8263     0.82628
   13          H           0.162490        0.8375     0.83751
   14          H           0.165485        0.8345     0.83451
   15          H           0.147793        0.8522     0.85221
   16          H           0.150175        0.8498     0.84982
   17          H           0.159041        0.8410     0.84096
   18          H           0.154426        0.8456     0.84557
   19          H           0.167009        0.8330     0.83299
   20          H           0.212115        0.7879     0.78789
 DIPOLE           X         Y         Z       TOTAL
 POINT-CHG.    -2.126     0.882    -1.111     2.556
 HYBRID         0.080     0.640    -0.500     0.816
 SUM           -2.047     1.522    -1.611     3.017


          ATOMIC ORBITAL ELECTRON POPULATIONS

     Atom    s        px        py        pz   
    1  C   1.05898   1.17016   1.08663   1.18244
    2  C   1.10776   0.72409   0.95046   0.96282
    3  C   1.06987   1.12942   1.07302   1.05323
    4  C   1.06230   1.10318   1.03488   1.06439
    5  C   1.06707   1.12702   1.05896   1.04181
    6  C   1.09579   0.87124   0.97750   1.05852
    7  N   1.77103   1.12998   1.34161   1.33721
    8  C   1.14319   0.98700   0.77269   0.77547
    9  O   1.87745   1.31048   1.57623   1.68248
   10  H   0.82583
   11  H   0.83005
   12  H   0.82628
   13  H   0.83751
   14  H   0.83451
   15  H   0.85221
   16  H   0.84982
   17  H   0.84096
   18  H   0.84557
   19  H   0.83299
   20  H   0.78789

 **********************
 *                    *
 * JOB ENDED NORMALLY *
 *                    *
 **********************



 TOTAL JOB TIME:             1.45 SECONDS

 == MOPAC DONE ==
