 *******************************************************************************
 **                                                                           **
 **                              MOPAC v23.2                                  **
 **                                                                           **
 *******************************************************************************
 **          Digital Object Identifier (DOI): 10.5281/zenodo.6511958          **
 **    Visit the DOI location for information on how to cite this program.    **
 *******************************************************************************

                              PM7 CALCULATION RESULTS

 *******************************************************************************
 *  CALCULATION DONE: (MAX THREADS = 40)             Fri Sep 19 21:32:23 2025  *
 *  PM7        - The PM7 Hamiltonian to be used
 *
 *
 *
 *                 CHARGE ON SYSTEM = +1
 *
 *
 *
 *  EPS=37.5   - USE ANDREAS KLAMT'S COSMO IMPLICIT SOLVATION MODEL
 *  1SCF       - DO 1 SCF AND THEN STOP 
 *  T=         - A TIME OF 172800.0 SECONDS REQUESTED
 *  DUMP=N     - RESTART FILE WRITTEN EVERY 7200.0 SECONDS REQUESTED
 *  RELSCF     - DEFAULT SCF CRITERION MULTIPLIED BY 0.0001
 *              (DEFAULT SCF CRITERION = 0.00010)
 *  GRADIENTS  - ALL GRADIENTS TO BE PRINTED
 *  DISP       - PRINT DISPERSION AND HYDROGEN BOND ENERGIES
 *******************************************************************************
PM7 1SCF GRADIENTS EPS=37.5 DISP RELSCF=0.0001 CHARGE=1
 Title: ASE calculation

   ATOM   CHEMICAL          X               Y               Z
  NUMBER   SYMBOL      (ANGSTROMS)     (ANGSTROMS)     (ANGSTROMS)

     1       O         -0.34520493  *   1.91875865  *  -0.19271037  *
     2       C         -0.66225723  *   0.65001522  *   0.18967821  *
     3       C         -2.04910894  *   0.28262981  *   0.76684443  *
     4       O         -2.26290193  *  -0.70610974  *  -0.28759925  *
     5       C         -1.05132046  *  -0.38454387  *  -0.97376986  *
     6       C         -0.01582427  *  -1.54829736  *  -0.93539827  *
     7       N          0.90922893  *  -1.11072426  *   0.06412984  *
     8       C          1.90800504  *  -0.08791019  *   0.10981439  *
     9       C          0.55320545  *   0.03437983  *   0.88270313  *
    10       H         -1.14333147  *   2.50616606  *  -0.29627099  *
    11       H         -2.82409726  *   1.05994140  *   0.70131966  *
    12       H         -2.08394376  *  -0.21360475  *   1.74397243  *
    13       H         -1.25576906  *  -0.00661604  *  -1.98378545  *
    14       H          0.46397664  *  -1.76766854  *  -1.91917099  *
    15       H         -0.52788165  *  -2.50616606  *  -0.61910006  *
    16       H          2.15005139  *   0.48737164  *  -0.80327438  *
    17       H          2.82409726  *  -0.24335157  *   0.71592662  *
    18       H          0.56964149  *   0.02939824  *   1.98378545  *



          CARTESIAN COORDINATES 

    NO.       ATOM           X           Y           Z

     1         O         -0.3452      1.9188     -0.1927
     2         C         -0.6623      0.6500      0.1897
     3         C         -2.0491      0.2826      0.7668
     4         O         -2.2629     -0.7061     -0.2876
     5         C         -1.0513     -0.3845     -0.9738
     6         C         -0.0158     -1.5483     -0.9354
     7         N          0.9092     -1.1107      0.0641
     8         C          1.9080     -0.0879      0.1098
     9         C          0.5532      0.0344      0.8827
    10         H         -1.1433      2.5062     -0.2963
    11         H         -2.8241      1.0599      0.7013
    12         H         -2.0839     -0.2136      1.7440
    13         H         -1.2558     -0.0066     -1.9838
    14         H          0.4640     -1.7677     -1.9192
    15         H         -0.5279     -2.5062     -0.6191
    16         H          2.1501      0.4874     -0.8033
    17         H          2.8241     -0.2434      0.7159
    18         H          0.5696      0.0294      1.9838

 General Reference for PM7:
 "Optimization of Parameters for Semiempirical Methods VI: More Modifications to the 
 NDDO Approximations and Re-optimization of Parameters", J. J. P. Stewart, J. Mol. Mod., 1:32, 19 (2013)
 https://link.springer.com/article/10.1007/s00894-012-1667-x

           Empirical Formula: C6 H9 N O2  =    18 atoms



      MOLECULAR POINT GROUP   :   C1  


          UHF CALCULATION, NO. OF ALPHA ELECTRONS =   25
                           NO. OF BETA  ELECTRONS =   24
  SCF CRITERION =    0.1000E-07

 -------------------------------------------------------------------------------
 PM7 1SCF GRADIENTS EPS=37.5 DISP RELSCF=0.0001 CHARGE=1
 Title: ASE calculation



     1SCF WAS SPECIFIED, SO BFGS WAS NOT USED                 
     SCF FIELD WAS ACHIEVED                                   


                              PM7 CALCULATION
                                                       MOPAC v23.2 Linux
                                                       Fri Sep 19 21:32:24 2025




          FINAL HEAT OF FORMATION =        126.53614 KCAL/MOL =     529.42723 KJ/MOL

          TOTAL ENERGY            =     -37510.86568 KCAL/MOL = ELECTRONIC ENERGY + CORE-CORE REPULSION + SOLVATION ENERGY
          ENERGY OF ATOMS         =      37638.97832 KCAL/MOL
                              SUM =        128.11264 KCAL/MOL
          DISPERSION ENERGY       =         -1.57649 KCAL/MOL
                              SUM =        126.53614 KCAL/MOL = FINAL HEAT OF FORMATION

          VAN DER WAALS AREA      =        150.91 SQUARE ANGSTROMS


          TOTAL ENERGY            =      -1626.62509 EV
          ELECTRONIC ENERGY       =      -2520.23953 EV 
          CORE-CORE REPULSION     =        893.61444 EV

          DIELECTRIC ENERGY       =         -2.54270 EV
          COSMO AREA              =        150.91 SQUARE ANGSTROMS
          COSMO VOLUME            =        150.06 CUBIC ANGSTROMS

          GRADIENT NORM           =         15.01942          =       3.54011 PER ATOM
          IONIZATION POTENTIAL    =         11.178725 EV
          ALPHA SOMO LUMO (EV)    =        -11.179 -0.197
          BETA  SOMO LUMO (EV)    =        -11.237 -3.265
          NO. OF ALPHA ELECTRONS  =         25
          NO. OF BETA  ELECTRONS  =         24
          MOLECULAR WEIGHT        =        127.1426         POINT GROUP:  C1  

          MOLECULAR DIMENSIONS (Angstroms)

            Atom       Atom       Distance
            H    17    H    11     5.79663
            H    15    H    10     4.75689
            H    18    H    13     3.92307


          SCF CALCULATIONS        =          2

          WALL-CLOCK TIME         =      1.000 SECONDS
          COMPUTATION TIME        =      0.939 SECONDS

          LARGEST ATOMIC GRADIENTS

          Atom     Label                     Cartesian Gradients           Cartesian Coordinates       |Gradient|
                                           X          Y          Z        X          Y          Z

             5       C                  -6.799      1.353      3.002   -1.05132   -0.38454   -0.97377      7.555
             6       C                   4.946     -3.937     -3.120   -0.01582   -1.54830   -0.93540      7.050
             2       C                  -2.418      4.532     -0.986   -0.66226    0.65002    0.18968      5.230
             4       O                   4.104      1.026     -1.855   -2.26290   -0.70611   -0.28760      4.619
             8       C                   3.688      0.969     -0.735    1.90801   -0.08791    0.10981      3.884
             7       N                  -2.179     -3.098      0.340    0.90923   -1.11072    0.06413      3.803
             9       C                   0.740     -0.214      3.520    0.55321    0.03438    0.88270      3.603
            10       H                   2.209      0.251      0.308   -1.14333    2.50617   -0.29627      2.244
            15       H                  -1.947      0.195      0.903   -0.52788   -2.50617   -0.61910      2.155
            16       H                  -0.570      1.997      0.201    2.15005    0.48737   -0.80327      2.086



       FINAL  POINT  AND  DERIVATIVES

   PARAMETER     ATOM    TYPE            VALUE        GRADIENT
      1          1  O    CARTESIAN X    -0.345205      0.037550  KCAL/ANGSTROM
      2          1  O    CARTESIAN Y     1.918759     -1.961331  KCAL/ANGSTROM
      3          1  O    CARTESIAN Z    -0.192710     -0.527029  KCAL/ANGSTROM
      4          2  C    CARTESIAN X    -0.662257     -2.417810  KCAL/ANGSTROM
      5          2  C    CARTESIAN Y     0.650015      4.532141  KCAL/ANGSTROM
      6          2  C    CARTESIAN Z     0.189678     -0.985715  KCAL/ANGSTROM
      7          3  C    CARTESIAN X    -2.049109      1.083198  KCAL/ANGSTROM
      8          3  C    CARTESIAN Y     0.282630     -1.563809  KCAL/ANGSTROM
      9          3  C    CARTESIAN Z     0.766844      0.056854  KCAL/ANGSTROM
     10          4  O    CARTESIAN X    -2.262902      4.103618  KCAL/ANGSTROM
     11          4  O    CARTESIAN Y    -0.706110      1.026404  KCAL/ANGSTROM
     12          4  O    CARTESIAN Z    -0.287599     -1.854959  KCAL/ANGSTROM
     13          5  C    CARTESIAN X    -1.051320     -6.799461  KCAL/ANGSTROM
     14          5  C    CARTESIAN Y    -0.384544      1.353294  KCAL/ANGSTROM
     15          5  C    CARTESIAN Z    -0.973770      3.001590  KCAL/ANGSTROM
     16          6  C    CARTESIAN X    -0.015824      4.946197  KCAL/ANGSTROM
     17          6  C    CARTESIAN Y    -1.548297     -3.936671  KCAL/ANGSTROM
     18          6  C    CARTESIAN Z    -0.935398     -3.119976  KCAL/ANGSTROM
     19          7  N    CARTESIAN X     0.909229     -2.178830  KCAL/ANGSTROM
     20          7  N    CARTESIAN Y    -1.110724     -3.098305  KCAL/ANGSTROM
     21          7  N    CARTESIAN Z     0.064130      0.339925  KCAL/ANGSTROM
     22          8  C    CARTESIAN X     1.908005      3.688414  KCAL/ANGSTROM
     23          8  C    CARTESIAN Y    -0.087910      0.968763  KCAL/ANGSTROM
     24          8  C    CARTESIAN Z     0.109814     -0.734812  KCAL/ANGSTROM
     25          9  C    CARTESIAN X     0.553205      0.739598  KCAL/ANGSTROM
     26          9  C    CARTESIAN Y     0.034380     -0.213577  KCAL/ANGSTROM
     27          9  C    CARTESIAN Z     0.882703      3.519717  KCAL/ANGSTROM
     28         10  H    CARTESIAN X    -1.143331      2.208987  KCAL/ANGSTROM
     29         10  H    CARTESIAN Y     2.506166      0.251265  KCAL/ANGSTROM
     30         10  H    CARTESIAN Z    -0.296271      0.307541  KCAL/ANGSTROM
     31         11  H    CARTESIAN X    -2.824097     -1.053076  KCAL/ANGSTROM
     32         11  H    CARTESIAN Y     1.059941     -0.304489  KCAL/ANGSTROM
     33         11  H    CARTESIAN Z     0.701320      0.307554  KCAL/ANGSTROM
     34         12  H    CARTESIAN X    -2.083944     -1.494425  KCAL/ANGSTROM
     35         12  H    CARTESIAN Y    -0.213605     -0.205555  KCAL/ANGSTROM
     36         12  H    CARTESIAN Z     1.743972     -0.031381  KCAL/ANGSTROM
     37         13  H    CARTESIAN X    -1.255769     -0.014907  KCAL/ANGSTROM
     38         13  H    CARTESIAN Y    -0.006616     -0.270079  KCAL/ANGSTROM
     39         13  H    CARTESIAN Z    -1.983785     -0.400300  KCAL/ANGSTROM
     40         14  H    CARTESIAN X     0.463977     -0.595162  KCAL/ANGSTROM
     41         14  H    CARTESIAN Y    -1.767669      0.024850  KCAL/ANGSTROM
     42         14  H    CARTESIAN Z    -1.919171      0.065311  KCAL/ANGSTROM
     43         15  H    CARTESIAN X    -0.527882     -1.947003  KCAL/ANGSTROM
     44         15  H    CARTESIAN Y    -2.506166      0.195264  KCAL/ANGSTROM
     45         15  H    CARTESIAN Z    -0.619100      0.903032  KCAL/ANGSTROM
     46         16  H    CARTESIAN X     2.150051     -0.570168  KCAL/ANGSTROM
     47         16  H    CARTESIAN Y     0.487372      1.996871  KCAL/ANGSTROM
     48         16  H    CARTESIAN Z    -0.803274      0.201361  KCAL/ANGSTROM
     49         17  H    CARTESIAN X     2.824097      0.440728  KCAL/ANGSTROM
     50         17  H    CARTESIAN Y    -0.243352      0.380620  KCAL/ANGSTROM
     51         17  H    CARTESIAN Z     0.715927     -0.371631  KCAL/ANGSTROM
     52         18  H    CARTESIAN X     0.569641     -0.177451  KCAL/ANGSTROM
     53         18  H    CARTESIAN Y     0.029398      0.824339  KCAL/ANGSTROM
     54         18  H    CARTESIAN Z     1.983785     -0.677086  KCAL/ANGSTROM




   ATOM   CHEMICAL          X               Y               Z
  NUMBER   SYMBOL      (ANGSTROMS)     (ANGSTROMS)     (ANGSTROMS)

     1       O         -0.34520493  *   1.91875865  *  -0.19271037  *
     2       C         -0.66225723  *   0.65001522  *   0.18967821  *
     3       C         -2.04910894  *   0.28262981  *   0.76684443  *
     4       O         -2.26290193  *  -0.70610974  *  -0.28759925  *
     5       C         -1.05132046  *  -0.38454387  *  -0.97376986  *
     6       C         -0.01582427  *  -1.54829736  *  -0.93539827  *
     7       N          0.90922893  *  -1.11072426  *   0.06412984  *
     8       C          1.90800504  *  -0.08791019  *   0.10981439  *
     9       C          0.55320545  *   0.03437983  *   0.88270313  *
    10       H         -1.14333147  *   2.50616606  *  -0.29627099  *
    11       H         -2.82409726  *   1.05994140  *   0.70131966  *
    12       H         -2.08394376  *  -0.21360475  *   1.74397243  *
    13       H         -1.25576906  *  -0.00661604  *  -1.98378545  *
    14       H          0.46397664  *  -1.76766854  *  -1.91917099  *
    15       H         -0.52788165  *  -2.50616606  *  -0.61910006  *
    16       H          2.15005139  *   0.48737164  *  -0.80327438  *
    17       H          2.82409726  *  -0.24335157  *   0.71592662  *
    18       H          0.56964149  *   0.02939824  *   1.98378545  *

                             CARTESIAN COORDINATES

   1    O       -0.345204934     1.918758649    -0.192710371
   2    C       -0.662257229     0.650015215     0.189678212
   3    C       -2.049108943     0.282629812     0.766844426
   4    O       -2.262901935    -0.706109736    -0.287599248
   5    C       -1.051320460    -0.384543872    -0.973769861
   6    C       -0.015824270    -1.548297358    -0.935398269
   7    N        0.909228928    -1.110724256     0.064129842
   8    C        1.908005036    -0.087910187     0.109814389
   9    C        0.553205455     0.034379829     0.882703128
  10    H       -1.143331466     2.506166065    -0.296270994
  11    H       -2.824097263     1.059941401     0.701319656
  12    H       -2.083943763    -0.213604755     1.743972430
  13    H       -1.255769055    -0.006616043    -1.983785446
  14    H        0.463976641    -1.767668540    -1.919170994
  15    H       -0.527881651    -2.506166065    -0.619100058
  16    H        2.150051394     0.487371639    -0.803274383
  17    H        2.824097263    -0.243351570     0.715926618
  18    H        0.569641491     0.029398240     1.983785446


           Empirical Formula: C6 H9 N O2  =    18 atoms



      MOLECULAR POINT GROUP   :   C1  


          ALPHA EIGENVALUES  
 -39.99957 -32.27341 -30.43771 -28.42336 -26.70848 -24.88140 -23.22045 -21.85139
 -21.03709 -19.13737 -18.79169 -17.33225 -17.19860 -16.90757 -16.40683 -15.56595
 -14.96800 -14.48680 -14.18886 -13.95047 -13.71384 -12.62566 -12.44431 -11.45496
 -11.17872  -0.19663   0.12405   0.77793   1.32890   1.80093   1.91145   2.08026
   2.30556   2.75892   2.91503   3.02128   4.21568   4.26416   4.54404   4.60686
   4.82179   4.91991   4.94047   5.22671   5.33943


           BETA EIGENVALUES 
 -38.83747 -32.19688 -30.41718 -28.20512 -26.51475 -24.56963 -23.06397 -21.62489
 -20.89268 -18.70386 -18.40154 -17.04126 -17.00230 -16.87440 -16.09348 -15.46624
 -14.68576 -14.32075 -14.12809 -13.74132 -13.44581 -12.56703 -11.47371 -11.23748
  -3.26540   0.32977   0.41411   0.83931   1.43076   1.84728   1.97712   2.22246
   2.41589   2.87750   2.95013   3.39040   4.31625   4.35401   4.58324   4.67248
   4.88228   4.92301   4.95795   5.23291   5.34058


              NET ATOMIC CHARGES AND DIPOLE CONTRIBUTIONS

  ATOM NO.   TYPE          CHARGE      No. of ELECS.   s-Pop       p-Pop       
    1          O          -0.544072        6.5441     1.83562     4.70845
    2          C           0.210697        3.7893     1.10103     2.68827
    3          C          -0.088290        4.0883     1.11680     2.97149
    4          O          -0.408951        6.4090     1.90139     4.50756
    5          C           0.037039        3.9630     1.13779     2.82517
    6          C          -0.195074        4.1951     1.09902     3.09605
    7          N           0.035526        4.9645     1.59773     3.36674
    8          C          -0.123216        4.1232     1.11022     3.01299
    9          C          -0.088798        4.0888     1.11440     2.97440
   10          H           0.391963        0.6080     0.60804
   11          H           0.180931        0.8191     0.81907
   12          H           0.179249        0.8208     0.82075
   13          H           0.196979        0.8030     0.80302
   14          H           0.228906        0.7711     0.77109
   15          H           0.251396        0.7486     0.74860
   16          H           0.235733        0.7643     0.76427
   17          H           0.248951        0.7510     0.75105
   18          H           0.251033        0.7490     0.74897
 DIPOLE           X         Y         Z       TOTAL
 POINT-CHG.     4.708    -0.725     0.622     4.804
 HYBRID        -0.204    -0.335    -0.177     0.430
 SUM            4.504    -1.060     0.444     4.648


          ATOMIC ORBITAL ELECTRON POPULATIONS

     Atom    s        px        py        pz   
    1  O   1.83562   1.50258   1.31347   1.89241
    2  C   1.10103   0.93917   0.80683   0.94226
    3  C   1.11680   1.00508   0.98198   0.98443
    4  O   1.90139   1.43099   1.60890   1.46767
    5  C   1.13779   0.83543   0.92811   1.06163
    6  C   1.09902   0.96445   1.10998   1.02162
    7  N   1.59773   1.19302   1.02366   1.15006
    8  C   1.11022   0.98726   0.86792   1.15781
    9  C   1.11440   0.99167   0.88045   1.10228
   10  H   0.60804
   11  H   0.81907
   12  H   0.82075
   13  H   0.80302
   14  H   0.77109
   15  H   0.74860
   16  H   0.76427
   17  H   0.75105
   18  H   0.74897


                    (SZ)    =    0.500000
                    (S**2)  =    0.757703


          ATOMIC ORBITAL SPIN POPULATIONS

    Atom   Total    s     px     py     pz   
         Atomic
    1  O  0.0019  0.001 -0.001  0.001  0.002
    2  C  0.0106  0.004  0.006  0.001 -0.000
    3  C -0.0009 -0.000 -0.001  0.000 -0.000
    4  O  0.0052  0.000  0.002  0.003  0.001
    5  C  0.0491  0.005  0.018  0.024  0.002
    6  C -0.0138 -0.006 -0.015 -0.012  0.019
    7  N  0.8166  0.065  0.086  0.426  0.240
    8  C  0.0354 -0.005 -0.006  0.059 -0.013
    9  C  0.0078 -0.005  0.009  0.010 -0.007
   10  H  0.0018  0.002
   11  H -0.0000 -0.000
   12  H -0.0001 -0.000
   13  H  0.0053  0.005
   14  H  0.0066  0.007
   15  H  0.0265  0.026
   16  H  0.0179  0.018
   17  H  0.0192  0.019
   18  H  0.0107  0.011

 **********************
 *                    *
 * JOB ENDED NORMALLY *
 *                    *
 **********************



 TOTAL JOB TIME:             1.40 SECONDS

 == MOPAC DONE ==
