 *******************************************************************************
 **                                                                           **
 **                              MOPAC v23.2                                  **
 **                                                                           **
 *******************************************************************************
 **          Digital Object Identifier (DOI): 10.5281/zenodo.6511958          **
 **    Visit the DOI location for information on how to cite this program.    **
 *******************************************************************************

                              PM7 CALCULATION RESULTS

 *******************************************************************************
 *  CALCULATION DONE: (MAX THREADS = 40)             Fri Sep 19 21:31:43 2025  *
 *  PM7        - The PM7 Hamiltonian to be used
 *  EPS=37.5   - USE ANDREAS KLAMT'S COSMO IMPLICIT SOLVATION MODEL
 *  1SCF       - DO 1 SCF AND THEN STOP 
 *  T=         - A TIME OF 172800.0 SECONDS REQUESTED
 *  DUMP=N     - RESTART FILE WRITTEN EVERY 7200.0 SECONDS REQUESTED
 *  RELSCF     - DEFAULT SCF CRITERION MULTIPLIED BY 0.0001
 *              (DEFAULT SCF CRITERION = 0.00010)
 *  GRADIENTS  - ALL GRADIENTS TO BE PRINTED
 *  DISP       - PRINT DISPERSION AND HYDROGEN BOND ENERGIES
 *******************************************************************************
PM7 1SCF GRADIENTS EPS=37.5 DISP RELSCF=0.0001
 Title: ASE calculation

   ATOM   CHEMICAL          X               Y               Z
  NUMBER   SYMBOL      (ANGSTROMS)     (ANGSTROMS)     (ANGSTROMS)

     1       C         -2.92027271  *  -0.72069567  *   0.20801071  *
     2       C         -1.46123138  *  -1.11972817  *   0.45755487  *
     3       N         -0.65493182  *  -0.63916364  *  -0.66825950  *
     4       C          0.00432531  *   0.67941383  *  -0.63612808  *
     5       C         -0.10228749  *   1.64099036  *   0.51557417  *
     6       C          0.82121500  *  -0.60622638  *  -0.55166163  *
     7       C          1.52961745  *  -0.98896777  *   0.70293202  *
     8       C          2.88262404  *  -1.61095170  *   0.63761666  *
     9       O          1.71716463  *  -2.39740321  *   0.89085599  *
    10       H         -3.03897761  *   0.36746810  *   0.17352831  *
    11       H         -3.26939390  *  -1.11288145  *  -0.75745005  *
    12       H         -3.57427070  *  -1.11389141  *   0.99181324  *
    13       H         -1.36159147  *  -2.23223174  *   0.47033474  *
    14       H         -1.12789563  *  -0.76223610  *   1.45318622  *
    15       H         -0.03420670  *   1.19174300  *  -1.61493883  *
    16       H         -0.03333125  *   1.16112056  *   1.49829001  *
    17       H         -1.06536007  *   2.17168106  *   0.48876076  *
    18       H          0.69359695  *   2.39740321  *   0.46755238  *
    19       H          1.32192293  *  -0.97464652  *  -1.46434924  *
    20       H          1.22661482  *  -0.46327854  *   1.61493883  *
    21       H          3.36996546  *  -1.80277139  *  -0.31462595  *
    22       H          3.57427070  *  -1.52762451  *   1.47218422  *



          CARTESIAN COORDINATES 

    NO.       ATOM           X           Y           Z

     1         C         -2.9203     -0.7207      0.2080
     2         C         -1.4612     -1.1197      0.4576
     3         N         -0.6549     -0.6392     -0.6683
     4         C          0.0043      0.6794     -0.6361
     5         C         -0.1023      1.6410      0.5156
     6         C          0.8212     -0.6062     -0.5517
     7         C          1.5296     -0.9890      0.7029
     8         C          2.8826     -1.6110      0.6376
     9         O          1.7172     -2.3974      0.8909
    10         H         -3.0390      0.3675      0.1735
    11         H         -3.2694     -1.1129     -0.7575
    12         H         -3.5743     -1.1139      0.9918
    13         H         -1.3616     -2.2322      0.4703
    14         H         -1.1279     -0.7622      1.4532
    15         H         -0.0342      1.1917     -1.6149
    16         H         -0.0333      1.1611      1.4983
    17         H         -1.0654      2.1717      0.4888
    18         H          0.6936      2.3974      0.4676
    19         H          1.3219     -0.9746     -1.4643
    20         H          1.2266     -0.4633      1.6149
    21         H          3.3700     -1.8028     -0.3146
    22         H          3.5743     -1.5276      1.4722

 General Reference for PM7:
 "Optimization of Parameters for Semiempirical Methods VI: More Modifications to the 
 NDDO Approximations and Re-optimization of Parameters", J. J. P. Stewart, J. Mol. Mod., 1:32, 19 (2013)
 https://link.springer.com/article/10.1007/s00894-012-1667-x

           Empirical Formula: C7 H13 N O  =    22 atoms



      MOLECULAR POINT GROUP   :   C1  


      RHF CALCULATION, NO. OF DOUBLY OCCUPIED LEVELS = 26

  SCF CRITERION =    0.1000E-07

 -------------------------------------------------------------------------------
 PM7 1SCF GRADIENTS EPS=37.5 DISP RELSCF=0.0001
 Title: ASE calculation



     1SCF WAS SPECIFIED, SO BFGS WAS NOT USED                 
     SCF FIELD WAS ACHIEVED                                   


                              PM7 CALCULATION
                                                       MOPAC v23.2 Linux
                                                       Fri Sep 19 21:31:44 2025




          FINAL HEAT OF FORMATION =          0.85468 KCAL/MOL =       3.57600 KJ/MOL

          TOTAL ENERGY            =     -34935.53685 KCAL/MOL = ELECTRONIC ENERGY + CORE-CORE REPULSION + SOLVATION ENERGY
          ENERGY OF ATOMS         =      34938.70333 KCAL/MOL
                              SUM =          3.16648 KCAL/MOL
          DISPERSION ENERGY       =         -2.31180 KCAL/MOL
                              SUM =          0.85468 KCAL/MOL = FINAL HEAT OF FORMATION

          VAN DER WAALS AREA      =        175.43 SQUARE ANGSTROMS


          TOTAL ENERGY            =      -1514.94826 EV
          ELECTRONIC ENERGY       =      -2336.08793 EV 
          CORE-CORE REPULSION     =        821.13967 EV

          DIELECTRIC ENERGY       =         -0.44338 EV
          COSMO AREA              =        175.43 SQUARE ANGSTROMS
          COSMO VOLUME            =        176.58 CUBIC ANGSTROMS

          GRADIENT NORM           =         10.80999          =       2.30470 PER ATOM
          IONIZATION POTENTIAL    =          9.893858 EV
          HOMO LUMO ENERGIES (EV) =         -9.894  1.488
          NO. OF FILLED LEVELS    =         26
          MOLECULAR WEIGHT        =        127.1858         POINT GROUP:  C1  

          MOLECULAR DIMENSIONS (Angstroms)

            Atom       Atom       Distance
            H    22    H    11     7.20965
            H    18    H    13     4.77730
            H    19    H    12     3.76881


          SCF CALCULATIONS        =          2

          WALL-CLOCK TIME         =      1.125 SECONDS
          COMPUTATION TIME        =      0.570 SECONDS

          LARGEST ATOMIC GRADIENTS

          Atom     Label                     Cartesian Gradients           Cartesian Coordinates       |Gradient|
                                           X          Y          Z        X          Y          Z

             9       O                   2.303      4.508     -0.306    1.71716   -2.39740    0.89086      5.071
             5       C                   0.865      3.006      3.038   -0.10229    1.64099    0.51557      4.361
             1       C                  -2.348      1.011      3.060   -2.92027   -0.72070    0.20801      3.988
             7       C                  -0.590     -2.720      1.367    1.52962   -0.98897    0.70293      3.101
             2       C                   1.699      1.531      0.315   -1.46123   -1.11973    0.45755      2.309
            20       H                   0.862     -0.753     -1.698    1.22661   -0.46328    1.61494      2.047
            19       H                  -1.778     -0.535      0.766    1.32192   -0.97465   -1.46435      2.009
             8       C                   0.252     -1.761      0.838    2.88262   -1.61095    0.63762      1.967
             4       C                  -1.037     -1.305     -0.889    0.00433    0.67941   -0.63613      1.889
            21       H                  -0.969      0.108      1.486    3.36997   -1.80277   -0.31463      1.777



       FINAL  POINT  AND  DERIVATIVES

   PARAMETER     ATOM    TYPE            VALUE        GRADIENT
      1          1  C    CARTESIAN X    -2.920273     -2.348186  KCAL/ANGSTROM
      2          1  C    CARTESIAN Y    -0.720696      1.011435  KCAL/ANGSTROM
      3          1  C    CARTESIAN Z     0.208011      3.060125  KCAL/ANGSTROM
      4          2  C    CARTESIAN X    -1.461231      1.698813  KCAL/ANGSTROM
      5          2  C    CARTESIAN Y    -1.119728      1.531377  KCAL/ANGSTROM
      6          2  C    CARTESIAN Z     0.457555      0.314858  KCAL/ANGSTROM
      7          3  N    CARTESIAN X    -0.654932      1.350868  KCAL/ANGSTROM
      8          3  N    CARTESIAN Y    -0.639164      0.668619  KCAL/ANGSTROM
      9          3  N    CARTESIAN Z    -0.668260     -0.630987  KCAL/ANGSTROM
     10          4  C    CARTESIAN X     0.004325     -1.036549  KCAL/ANGSTROM
     11          4  C    CARTESIAN Y     0.679414     -1.305135  KCAL/ANGSTROM
     12          4  C    CARTESIAN Z    -0.636128     -0.888964  KCAL/ANGSTROM
     13          5  C    CARTESIAN X    -0.102287      0.865463  KCAL/ANGSTROM
     14          5  C    CARTESIAN Y     1.640990      3.005944  KCAL/ANGSTROM
     15          5  C    CARTESIAN Z     0.515574      3.038161  KCAL/ANGSTROM
     16          6  C    CARTESIAN X     0.821215     -1.046566  KCAL/ANGSTROM
     17          6  C    CARTESIAN Y    -0.606226      1.126627  KCAL/ANGSTROM
     18          6  C    CARTESIAN Z    -0.551662     -0.273203  KCAL/ANGSTROM
     19          7  C    CARTESIAN X     1.529617     -0.590039  KCAL/ANGSTROM
     20          7  C    CARTESIAN Y    -0.988968     -2.720481  KCAL/ANGSTROM
     21          7  C    CARTESIAN Z     0.702932      1.366859  KCAL/ANGSTROM
     22          8  C    CARTESIAN X     2.882624      0.251731  KCAL/ANGSTROM
     23          8  C    CARTESIAN Y    -1.610952     -1.761127  KCAL/ANGSTROM
     24          8  C    CARTESIAN Z     0.637617      0.838089  KCAL/ANGSTROM
     25          9  O    CARTESIAN X     1.717165      2.302684  KCAL/ANGSTROM
     26          9  O    CARTESIAN Y    -2.397403      4.508243  KCAL/ANGSTROM
     27          9  O    CARTESIAN Z     0.890856     -0.305656  KCAL/ANGSTROM
     28         10  H    CARTESIAN X    -3.038978      0.283591  KCAL/ANGSTROM
     29         10  H    CARTESIAN Y     0.367468     -0.716439  KCAL/ANGSTROM
     30         10  H    CARTESIAN Z     0.173528     -0.898208  KCAL/ANGSTROM
     31         11  H    CARTESIAN X    -3.269394      1.228988  KCAL/ANGSTROM
     32         11  H    CARTESIAN Y    -1.112881     -0.341734  KCAL/ANGSTROM
     33         11  H    CARTESIAN Z    -0.757450     -1.072411  KCAL/ANGSTROM
     34         12  H    CARTESIAN X    -3.574271      0.693837  KCAL/ANGSTROM
     35         12  H    CARTESIAN Y    -1.113891      0.044002  KCAL/ANGSTROM
     36         12  H    CARTESIAN Z     0.991813     -0.760556  KCAL/ANGSTROM
     37         13  H    CARTESIAN X    -1.361591      0.429776  KCAL/ANGSTROM
     38         13  H    CARTESIAN Y    -2.232232      0.004323  KCAL/ANGSTROM
     39         13  H    CARTESIAN Z     0.470335     -1.494697  KCAL/ANGSTROM
     40         14  H    CARTESIAN X    -1.127896     -0.278803  KCAL/ANGSTROM
     41         14  H    CARTESIAN Y    -0.762236     -0.673449  KCAL/ANGSTROM
     42         14  H    CARTESIAN Z     1.453186     -0.359637  KCAL/ANGSTROM
     43         15  H    CARTESIAN X    -0.034207     -0.815221  KCAL/ANGSTROM
     44         15  H    CARTESIAN Y     1.191743     -1.159979  KCAL/ANGSTROM
     45         15  H    CARTESIAN Z    -1.614939      0.814394  KCAL/ANGSTROM
     46         16  H    CARTESIAN X    -0.033331      0.077181  KCAL/ANGSTROM
     47         16  H    CARTESIAN Y     1.161121     -0.116352  KCAL/ANGSTROM
     48         16  H    CARTESIAN Z     1.498290     -1.246799  KCAL/ANGSTROM
     49         17  H    CARTESIAN X    -1.065360      0.388222  KCAL/ANGSTROM
     50         17  H    CARTESIAN Y     2.171681     -0.904375  KCAL/ANGSTROM
     51         17  H    CARTESIAN Z     0.488761     -0.479287  KCAL/ANGSTROM
     52         18  H    CARTESIAN X     0.693597     -0.457458  KCAL/ANGSTROM
     53         18  H    CARTESIAN Y     2.397403     -0.610730  KCAL/ANGSTROM
     54         18  H    CARTESIAN Z     0.467552     -0.372370  KCAL/ANGSTROM
     55         19  H    CARTESIAN X     1.321923     -1.777869  KCAL/ANGSTROM
     56         19  H    CARTESIAN Y    -0.974647     -0.535499  KCAL/ANGSTROM
     57         19  H    CARTESIAN Z    -1.464349      0.765839  KCAL/ANGSTROM
     58         20  H    CARTESIAN X     1.226615      0.861784  KCAL/ANGSTROM
     59         20  H    CARTESIAN Y    -0.463279     -0.753317  KCAL/ANGSTROM
     60         20  H    CARTESIAN Z     1.614939     -1.697526  KCAL/ANGSTROM
     61         21  H    CARTESIAN X     3.369965     -0.969500  KCAL/ANGSTROM
     62         21  H    CARTESIAN Y    -1.802771      0.108359  KCAL/ANGSTROM
     63         21  H    CARTESIAN Z    -0.314626      1.485877  KCAL/ANGSTROM
     64         22  H    CARTESIAN X     3.574271     -1.112747  KCAL/ANGSTROM
     65         22  H    CARTESIAN Y    -1.527625     -0.410312  KCAL/ANGSTROM
     66         22  H    CARTESIAN Z     1.472184     -1.203905  KCAL/ANGSTROM




   ATOM   CHEMICAL          X               Y               Z
  NUMBER   SYMBOL      (ANGSTROMS)     (ANGSTROMS)     (ANGSTROMS)

     1       C         -2.92027271  *  -0.72069567  *   0.20801071  *
     2       C         -1.46123138  *  -1.11972817  *   0.45755487  *
     3       N         -0.65493182  *  -0.63916364  *  -0.66825950  *
     4       C          0.00432531  *   0.67941383  *  -0.63612808  *
     5       C         -0.10228749  *   1.64099036  *   0.51557417  *
     6       C          0.82121500  *  -0.60622638  *  -0.55166163  *
     7       C          1.52961745  *  -0.98896777  *   0.70293202  *
     8       C          2.88262404  *  -1.61095170  *   0.63761666  *
     9       O          1.71716463  *  -2.39740321  *   0.89085599  *
    10       H         -3.03897761  *   0.36746810  *   0.17352831  *
    11       H         -3.26939390  *  -1.11288145  *  -0.75745005  *
    12       H         -3.57427070  *  -1.11389141  *   0.99181324  *
    13       H         -1.36159147  *  -2.23223174  *   0.47033474  *
    14       H         -1.12789563  *  -0.76223610  *   1.45318622  *
    15       H         -0.03420670  *   1.19174300  *  -1.61493883  *
    16       H         -0.03333125  *   1.16112056  *   1.49829001  *
    17       H         -1.06536007  *   2.17168106  *   0.48876076  *
    18       H          0.69359695  *   2.39740321  *   0.46755238  *
    19       H          1.32192293  *  -0.97464652  *  -1.46434924  *
    20       H          1.22661482  *  -0.46327854  *   1.61493883  *
    21       H          3.36996546  *  -1.80277139  *  -0.31462595  *
    22       H          3.57427070  *  -1.52762451  *   1.47218422  *

                             CARTESIAN COORDINATES

   1    C       -2.920272713    -0.720695669     0.208010709
   2    C       -1.461231379    -1.119728169     0.457554870
   3    N       -0.654931825    -0.639163641    -0.668259504
   4    C        0.004325308     0.679413830    -0.636128085
   5    C       -0.102287485     1.640990357     0.515574173
   6    C        0.821215000    -0.606226380    -0.551661633
   7    C        1.529617446    -0.988967767     0.702932017
   8    C        2.882624041    -1.610951696     0.637616658
   9    O        1.717164634    -2.397403212     0.890855995
  10    H       -3.038977611     0.367468104     0.173528311
  11    H       -3.269393898    -1.112881446    -0.757450054
  12    H       -3.574270703    -1.113891414     0.991813244
  13    H       -1.361591468    -2.232231741     0.470334743
  14    H       -1.127895634    -0.762236103     1.453186220
  15    H       -0.034206698     1.191743003    -1.614938828
  16    H       -0.033331255     1.161120561     1.498290006
  17    H       -1.065360073     2.171681056     0.488760761
  18    H        0.693596949     2.397403212     0.467552385
  19    H        1.321922934    -0.974646518    -1.464349240
  20    H        1.226614817    -0.463278544     1.614938828
  21    H        3.369965464    -1.802771389    -0.314625955
  22    H        3.574270703    -1.527624514     1.472184218


           Empirical Formula: C7 H13 N O  =    22 atoms



      MOLECULAR POINT GROUP   :   C1  


                  EIGENVALUES  
 -36.64474 -32.07168 -27.62002 -26.24509 -24.91325 -23.03135 -22.60183 -19.93423
 -19.43522 -17.79586 -16.95628 -16.31896 -15.38599 -15.25382 -14.56216 -14.20206
 -14.16086 -13.43990 -13.31050 -12.65979 -12.52390 -12.32256 -11.76509 -11.38092
 -10.90946  -9.89386   1.48826   2.02572   2.36265   2.73295   3.46825   3.52719
   3.98444   4.05482   4.18573   4.84605   5.05099   5.34765   5.49202   5.57256
   5.61774   5.63646   5.71366   5.83179   5.87142   5.95913   6.05858   6.79527
   6.96545


              NET ATOMIC CHARGES AND DIPOLE CONTRIBUTIONS

  ATOM NO.   TYPE          CHARGE      No. of ELECS.   s-Pop       p-Pop       
    1          C          -0.449058        4.4491     1.05506     3.39400
    2          C          -0.101419        4.1014     1.06393     3.03748
    3          N          -0.443871        5.4439     1.74223     3.70164
    4          C          -0.014844        4.0148     1.06825     2.94659
    5          C          -0.473020        4.4730     1.05227     3.42075
    6          C          -0.132159        4.1322     1.06960     3.06256
    7          C           0.010209        3.9898     1.08442     2.90537
    8          C          -0.118194        4.1182     1.09532     3.02288
    9          O          -0.405834        6.4058     1.91819     4.48764
   10          H           0.153708        0.8463     0.84629
   11          H           0.156122        0.8439     0.84388
   12          H           0.157173        0.8428     0.84283
   13          H           0.153112        0.8469     0.84689
   14          H           0.135192        0.8648     0.86481
   15          H           0.173468        0.8265     0.82653
   16          H           0.163128        0.8369     0.83687
   17          H           0.170132        0.8299     0.82987
   18          H           0.171063        0.8289     0.82894
   19          H           0.186545        0.8135     0.81346
   20          H           0.172805        0.8272     0.82720
   21          H           0.167930        0.8321     0.83207
   22          H           0.167815        0.8322     0.83218
 DIPOLE           X         Y         Z       TOTAL
 POINT-CHG.     1.528     3.773     1.085     4.213
 HYBRID        -0.181    -0.502     0.788     0.952
 SUM            1.347     3.271     1.873     4.003


          ATOMIC ORBITAL ELECTRON POPULATIONS

     Atom    s        px        py        pz   
    1  C   1.05506   1.03509   1.17810   1.18081
    2  C   1.06393   0.95337   1.10802   0.97610
    3  N   1.74223   1.08303   1.18352   1.43509
    4  C   1.06825   0.99464   0.87091   1.08104
    5  C   1.05227   1.19662   1.12661   1.09751
    6  C   1.06960   0.90444   1.08540   1.07271
    7  C   1.08442   1.01430   0.83706   1.05402
    8  C   1.09532   0.90471   0.95966   1.15850
    9  O   1.91819   1.33765   1.20543   1.94456
   10  H   0.84629
   11  H   0.84388
   12  H   0.84283
   13  H   0.84689
   14  H   0.86481
   15  H   0.82653
   16  H   0.83687
   17  H   0.82987
   18  H   0.82894
   19  H   0.81346
   20  H   0.82720
   21  H   0.83207
   22  H   0.83218

 **********************
 *                    *
 * JOB ENDED NORMALLY *
 *                    *
 **********************



 TOTAL JOB TIME:             1.75 SECONDS

 == MOPAC DONE ==
