 *******************************************************************************
 **                                                                           **
 **                              MOPAC v23.2                                  **
 **                                                                           **
 *******************************************************************************
 **          Digital Object Identifier (DOI): 10.5281/zenodo.6511958          **
 **    Visit the DOI location for information on how to cite this program.    **
 *******************************************************************************

                              PM7 CALCULATION RESULTS

 *******************************************************************************
 *  CALCULATION DONE: (MAX THREADS = 40)             Fri Sep 19 21:31:11 2025  *
 *  PM7        - The PM7 Hamiltonian to be used
 *  1SCF       - DO 1 SCF AND THEN STOP 
 *  T=         - A TIME OF 172800.0 SECONDS REQUESTED
 *  DUMP=N     - RESTART FILE WRITTEN EVERY 7200.0 SECONDS REQUESTED
 *  RELSCF     - DEFAULT SCF CRITERION MULTIPLIED BY 0.0001
 *              (DEFAULT SCF CRITERION = 0.00010)
 *  GRADIENTS  - ALL GRADIENTS TO BE PRINTED
 *  DISP       - PRINT DISPERSION AND HYDROGEN BOND ENERGIES
 *******************************************************************************
PM7 1SCF GRADIENTS DISP RELSCF=0.0001
 Title: ASE calculation

   ATOM   CHEMICAL          X               Y               Z
  NUMBER   SYMBOL      (ANGSTROMS)     (ANGSTROMS)     (ANGSTROMS)

     1       C         -2.45414570  *  -1.10934396  *  -0.83400568  *
     2       C         -1.16239035  *  -0.57199940  *  -0.28545294  *
     3       C         -1.07583046  *   0.73402455  *   0.01692198  *
     4       C          0.04106564  *   1.50803973  *   0.51935425  *
     5       C          1.31814456  *   1.14919549  *   0.70728838  *
     6       C          1.93745595  *  -0.18952429  *   0.46367964  *
     7       C          2.41624419  *  -0.26687521  *  -0.99319985  *
     8       C          0.99108615  *  -1.33890384  *   0.85154048  *
     9       C         -0.10825948  *  -1.62309982  *  -0.17239298  *
    10       H         -2.29818434  *  -1.59841790  *  -1.80587211  *
    11       H         -3.21077400  *  -0.32846745  *  -0.98666758  *
    12       H         -2.89527686  *  -1.85209311  *  -0.15442030  *
    13       H         -1.97468471  *   1.35044689  *  -0.12937905  *
    14       H         -0.23607201  *   2.54654814  *   0.75553736  *
    15       H          2.03075063  *   1.89229455  *   1.07398524  *
    16       H          2.84226333  *  -0.28276738  *   1.12437563  *
    17       H          3.16586488  *   0.50435531  *  -1.20156322  *
    18       H          1.58637346  *  -0.10521645  *  -1.69250688  *
    19       H          2.86441335  *  -1.24023207  *  -1.21287041  *
    20       H          0.52920208  *  -1.10426432  *   1.83198637  *
    21       H          1.58541417  *  -2.26096844  *   1.00470221  *
    22       H          0.34326224  *  -1.78555968  *  -1.17643426  *
    23       H         -0.58066348  *  -2.59724347  *   0.08712172  *



          CARTESIAN COORDINATES 

    NO.       ATOM           X           Y           Z

     1         C         -2.4541     -1.1093     -0.8340
     2         C         -1.1624     -0.5720     -0.2855
     3         C         -1.0758      0.7340      0.0169
     4         C          0.0411      1.5080      0.5194
     5         C          1.3181      1.1492      0.7073
     6         C          1.9375     -0.1895      0.4637
     7         C          2.4162     -0.2669     -0.9932
     8         C          0.9911     -1.3389      0.8515
     9         C         -0.1083     -1.6231     -0.1724
    10         H         -2.2982     -1.5984     -1.8059
    11         H         -3.2108     -0.3285     -0.9867
    12         H         -2.8953     -1.8521     -0.1544
    13         H         -1.9747      1.3504     -0.1294
    14         H         -0.2361      2.5465      0.7555
    15         H          2.0308      1.8923      1.0740
    16         H          2.8423     -0.2828      1.1244
    17         H          3.1659      0.5044     -1.2016
    18         H          1.5864     -0.1052     -1.6925
    19         H          2.8644     -1.2402     -1.2129
    20         H          0.5292     -1.1043      1.8320
    21         H          1.5854     -2.2610      1.0047
    22         H          0.3433     -1.7856     -1.1764
    23         H         -0.5807     -2.5972      0.0871

 General Reference for PM7:
 "Optimization of Parameters for Semiempirical Methods VI: More Modifications to the 
 NDDO Approximations and Re-optimization of Parameters", J. J. P. Stewart, J. Mol. Mod., 1:32, 19 (2013)
 https://link.springer.com/article/10.1007/s00894-012-1667-x

           Empirical Formula: C9 H14  =    23 atoms



      MOLECULAR POINT GROUP   :   C1  


      RHF CALCULATION, NO. OF DOUBLY OCCUPIED LEVELS = 25

  SCF CRITERION =    0.1000E-07

 -------------------------------------------------------------------------------
 PM7 1SCF GRADIENTS DISP RELSCF=0.0001
 Title: ASE calculation



     1SCF WAS SPECIFIED, SO BFGS WAS NOT USED                 
     SCF FIELD WAS ACHIEVED                                   


                              PM7 CALCULATION
                                                       MOPAC v23.2 Linux
                                                       Fri Sep 19 21:31:12 2025




          FINAL HEAT OF FORMATION =          3.80685 KCAL/MOL =      15.92787 KJ/MOL

          TOTAL ENERGY            =     -29845.96602 KCAL/MOL = ELECTRONIC ENERGY + CORE-CORE REPULSION
          ENERGY OF ATOMS         =      29852.41387 KCAL/MOL
                              SUM =          6.44785 KCAL/MOL
          DISPERSION ENERGY       =         -2.64100 KCAL/MOL
                              SUM =          3.80685 KCAL/MOL = FINAL HEAT OF FORMATION



          TOTAL ENERGY            =      -1294.24358 EV
          ELECTRONIC ENERGY       =      -7198.45838 EV 
          CORE-CORE REPULSION     =       5904.21480 EV
          COSMO AREA              =        173.16 SQUARE ANGSTROMS
          COSMO VOLUME            =        179.22 CUBIC ANGSTROMS

          GRADIENT NORM           =          1.30693          =       0.27251 PER ATOM
          IONIZATION POTENTIAL    =          8.641255 EV
          HOMO LUMO ENERGIES (EV) =         -8.641  0.525
          NO. OF FILLED LEVELS    =         25
          MOLECULAR WEIGHT        =        122.2096         POINT GROUP:  C1  

          MOLECULAR DIMENSIONS (Angstroms)

            Atom       Atom       Distance
            H    17    H    12     6.58687
            H    14    H    21     5.14637
            H    10    H    20     4.00846


          SCF CALCULATIONS        =          1

          WALL-CLOCK TIME         =      0.563 SECONDS
          COMPUTATION TIME        =      0.499 SECONDS

          LARGEST ATOMIC GRADIENTS

          Atom     Label                     Cartesian Gradients           Cartesian Coordinates       |Gradient|
                                           X          Y          Z        X          Y          Z

            14       H                  -0.102      0.432     -0.046   -0.23607    2.54655    0.75554      0.446
            13       H                  -0.334      0.114      0.248   -1.97468    1.35045   -0.12938      0.431
            10       H                   0.091     -0.001     -0.368   -2.29818   -1.59842   -1.80587      0.379
            19       H                   0.257      0.193      0.120    2.86441   -1.24023   -1.21287      0.343
             2       C                   0.316     -0.078     -0.087   -1.16239   -0.57200   -0.28545      0.337
            18       H                  -0.217     -0.219     -0.121    1.58637   -0.10522   -1.69251      0.331
             9       C                   0.240     -0.101      0.175   -0.10826   -1.62310   -0.17239      0.314
             5       C                  -0.081     -0.203      0.181    1.31814    1.14920    0.70729      0.284
             6       C                   0.017     -0.187     -0.201    1.93746   -0.18952    0.46368      0.275
            11       H                  -0.078      0.228      0.092   -3.21077   -0.32847   -0.98667      0.258



       FINAL  POINT  AND  DERIVATIVES

   PARAMETER     ATOM    TYPE            VALUE        GRADIENT
      1          1  C    CARTESIAN X    -2.454146      0.151974  KCAL/ANGSTROM
      2          1  C    CARTESIAN Y    -1.109344     -0.063761  KCAL/ANGSTROM
      3          1  C    CARTESIAN Z    -0.834006     -0.044098  KCAL/ANGSTROM
      4          2  C    CARTESIAN X    -1.162390      0.315948  KCAL/ANGSTROM
      5          2  C    CARTESIAN Y    -0.571999     -0.078438  KCAL/ANGSTROM
      6          2  C    CARTESIAN Z    -0.285453     -0.086723  KCAL/ANGSTROM
      7          3  C    CARTESIAN X    -1.075830      0.076222  KCAL/ANGSTROM
      8          3  C    CARTESIAN Y     0.734025      0.099622  KCAL/ANGSTROM
      9          3  C    CARTESIAN Z     0.016922     -0.193779  KCAL/ANGSTROM
     10          4  C    CARTESIAN X     0.041066      0.144552  KCAL/ANGSTROM
     11          4  C    CARTESIAN Y     1.508040      0.056639  KCAL/ANGSTROM
     12          4  C    CARTESIAN Z     0.519354      0.107092  KCAL/ANGSTROM
     13          5  C    CARTESIAN X     1.318145     -0.080546  KCAL/ANGSTROM
     14          5  C    CARTESIAN Y     1.149195     -0.203095  KCAL/ANGSTROM
     15          5  C    CARTESIAN Z     0.707288      0.181265  KCAL/ANGSTROM
     16          6  C    CARTESIAN X     1.937456      0.017478  KCAL/ANGSTROM
     17          6  C    CARTESIAN Y    -0.189524     -0.187142  KCAL/ANGSTROM
     18          6  C    CARTESIAN Z     0.463680     -0.201262  KCAL/ANGSTROM
     19          7  C    CARTESIAN X     2.416244     -0.091449  KCAL/ANGSTROM
     20          7  C    CARTESIAN Y    -0.266875     -0.009118  KCAL/ANGSTROM
     21          7  C    CARTESIAN Z    -0.993200     -0.222416  KCAL/ANGSTROM
     22          8  C    CARTESIAN X     0.991086      0.179766  KCAL/ANGSTROM
     23          8  C    CARTESIAN Y    -1.338904     -0.111803  KCAL/ANGSTROM
     24          8  C    CARTESIAN Z     0.851540      0.083689  KCAL/ANGSTROM
     25          9  C    CARTESIAN X    -0.108259      0.240280  KCAL/ANGSTROM
     26          9  C    CARTESIAN Y    -1.623100     -0.100513  KCAL/ANGSTROM
     27          9  C    CARTESIAN Z    -0.172393      0.174933  KCAL/ANGSTROM
     28         10  H    CARTESIAN X    -2.298184      0.090751  KCAL/ANGSTROM
     29         10  H    CARTESIAN Y    -1.598418     -0.000768  KCAL/ANGSTROM
     30         10  H    CARTESIAN Z    -1.805872     -0.367514  KCAL/ANGSTROM
     31         11  H    CARTESIAN X    -3.210774     -0.077701  KCAL/ANGSTROM
     32         11  H    CARTESIAN Y    -0.328467      0.228218  KCAL/ANGSTROM
     33         11  H    CARTESIAN Z    -0.986668      0.091780  KCAL/ANGSTROM
     34         12  H    CARTESIAN X    -2.895277     -0.115349  KCAL/ANGSTROM
     35         12  H    CARTESIAN Y    -1.852093     -0.148843  KCAL/ANGSTROM
     36         12  H    CARTESIAN Z    -0.154420      0.113868  KCAL/ANGSTROM
     37         13  H    CARTESIAN X    -1.974685     -0.333539  KCAL/ANGSTROM
     38         13  H    CARTESIAN Y     1.350447      0.114083  KCAL/ANGSTROM
     39         13  H    CARTESIAN Z    -0.129379      0.248261  KCAL/ANGSTROM
     40         14  H    CARTESIAN X    -0.236072     -0.102175  KCAL/ANGSTROM
     41         14  H    CARTESIAN Y     2.546548      0.432113  KCAL/ANGSTROM
     42         14  H    CARTESIAN Z     0.755537     -0.046293  KCAL/ANGSTROM
     43         15  H    CARTESIAN X     2.030751     -0.095619  KCAL/ANGSTROM
     44         15  H    CARTESIAN Y     1.892295      0.041032  KCAL/ANGSTROM
     45         15  H    CARTESIAN Z     1.073985      0.063599  KCAL/ANGSTROM
     46         16  H    CARTESIAN X     2.842263     -0.182952  KCAL/ANGSTROM
     47         16  H    CARTESIAN Y    -0.282767     -0.021221  KCAL/ANGSTROM
     48         16  H    CARTESIAN Z     1.124376      0.064806  KCAL/ANGSTROM
     49         17  H    CARTESIAN X     3.165865     -0.074318  KCAL/ANGSTROM
     50         17  H    CARTESIAN Y     0.504355     -0.035182  KCAL/ANGSTROM
     51         17  H    CARTESIAN Z    -1.201563     -0.092485  KCAL/ANGSTROM
     52         18  H    CARTESIAN X     1.586373     -0.216603  KCAL/ANGSTROM
     53         18  H    CARTESIAN Y    -0.105216     -0.218704  KCAL/ANGSTROM
     54         18  H    CARTESIAN Z    -1.692507     -0.121009  KCAL/ANGSTROM
     55         19  H    CARTESIAN X     2.864413      0.256715  KCAL/ANGSTROM
     56         19  H    CARTESIAN Y    -1.240232      0.192567  KCAL/ANGSTROM
     57         19  H    CARTESIAN Z    -1.212870      0.120003  KCAL/ANGSTROM
     58         20  H    CARTESIAN X     0.529202      0.059248  KCAL/ANGSTROM
     59         20  H    CARTESIAN Y    -1.104264      0.234629  KCAL/ANGSTROM
     60         20  H    CARTESIAN Z     1.831986     -0.007595  KCAL/ANGSTROM
     61         21  H    CARTESIAN X     1.585414     -0.017170  KCAL/ANGSTROM
     62         21  H    CARTESIAN Y    -2.260968     -0.232055  KCAL/ANGSTROM
     63         21  H    CARTESIAN Z     1.004702      0.010781  KCAL/ANGSTROM
     64         22  H    CARTESIAN X     0.343262      0.071846  KCAL/ANGSTROM
     65         22  H    CARTESIAN Y    -1.785560      0.011787  KCAL/ANGSTROM
     66         22  H    CARTESIAN Z    -1.176434      0.076544  KCAL/ANGSTROM
     67         23  H    CARTESIAN X    -0.580663     -0.217358  KCAL/ANGSTROM
     68         23  H    CARTESIAN Y    -2.597243     -0.000049  KCAL/ANGSTROM
     69         23  H    CARTESIAN Z     0.087122      0.046548  KCAL/ANGSTROM




   ATOM   CHEMICAL          X               Y               Z
  NUMBER   SYMBOL      (ANGSTROMS)     (ANGSTROMS)     (ANGSTROMS)

     1       C         -2.45414570  *  -1.10934396  *  -0.83400568  *
     2       C         -1.16239035  *  -0.57199940  *  -0.28545294  *
     3       C         -1.07583046  *   0.73402455  *   0.01692198  *
     4       C          0.04106564  *   1.50803973  *   0.51935425  *
     5       C          1.31814456  *   1.14919549  *   0.70728838  *
     6       C          1.93745595  *  -0.18952429  *   0.46367964  *
     7       C          2.41624419  *  -0.26687521  *  -0.99319985  *
     8       C          0.99108615  *  -1.33890384  *   0.85154048  *
     9       C         -0.10825948  *  -1.62309982  *  -0.17239298  *
    10       H         -2.29818434  *  -1.59841790  *  -1.80587211  *
    11       H         -3.21077400  *  -0.32846745  *  -0.98666758  *
    12       H         -2.89527686  *  -1.85209311  *  -0.15442030  *
    13       H         -1.97468471  *   1.35044689  *  -0.12937905  *
    14       H         -0.23607201  *   2.54654814  *   0.75553736  *
    15       H          2.03075063  *   1.89229455  *   1.07398524  *
    16       H          2.84226333  *  -0.28276738  *   1.12437563  *
    17       H          3.16586488  *   0.50435531  *  -1.20156322  *
    18       H          1.58637346  *  -0.10521645  *  -1.69250688  *
    19       H          2.86441335  *  -1.24023207  *  -1.21287041  *
    20       H          0.52920208  *  -1.10426432  *   1.83198637  *
    21       H          1.58541417  *  -2.26096844  *   1.00470221  *
    22       H          0.34326224  *  -1.78555968  *  -1.17643426  *
    23       H         -0.58066348  *  -2.59724347  *   0.08712172  *

                             CARTESIAN COORDINATES

   1    C       -2.454145704    -1.109343964    -0.834005682
   2    C       -1.162390350    -0.571999401    -0.285452937
   3    C       -1.075830457     0.734024553     0.016921982
   4    C        0.041065641     1.508039733     0.519354249
   5    C        1.318144558     1.149195489     0.707288375
   6    C        1.937455955    -0.189524291     0.463679638
   7    C        2.416244194    -0.266875215    -0.993199855
   8    C        0.991086147    -1.338903841     0.851540478
   9    C       -0.108259482    -1.623099815    -0.172392978
  10    H       -2.298184337    -1.598417902    -1.805872113
  11    H       -3.210774002    -0.328467451    -0.986667579
  12    H       -2.895276856    -1.852093110    -0.154420305
  13    H       -1.974684713     1.350446893    -0.129379050
  14    H       -0.236072011     2.546548139     0.755537356
  15    H        2.030750627     1.892294547     1.073985241
  16    H        2.842263331    -0.282767376     1.124375627
  17    H        3.165864876     0.504355312    -1.201563217
  18    H        1.586373458    -0.105216447    -1.692506880
  19    H        2.864413350    -1.240232065    -1.212870411
  20    H        0.529202076    -1.104264324     1.831986371
  21    H        1.585414173    -2.260968438     1.004702206
  22    H        0.343262235    -1.785559676    -1.176434258
  23    H       -0.580663482    -2.597243475     0.087121723


           Empirical Formula: C9 H14  =    23 atoms



      MOLECULAR POINT GROUP   :   C1  


                  EIGENVALUES  
 -30.03638 -27.94511 -26.57553 -24.86397 -23.38051 -22.32468 -20.85249 -17.96568
 -17.13438 -16.52370 -15.94996 -14.60445 -14.51999 -14.21398 -13.92279 -13.55400
 -13.20282 -12.65619 -12.28186 -11.93834 -11.59992 -11.08923 -10.93229 -10.84704
  -8.64126   0.52488   2.26259   3.89588   4.27488   4.35240   4.52466   4.57625
   5.04324   5.33990   5.54528   5.65431   5.69776   5.81881   5.92398   5.97293
   6.01534   6.15123   6.31218   6.44109   6.55581   6.58319   6.69615   6.74404
   6.87607   7.16815


              NET ATOMIC CHARGES AND DIPOLE CONTRIBUTIONS

  ATOM NO.   TYPE          CHARGE      No. of ELECS.   s-Pop       p-Pop       
    1          C          -0.468820        4.4688     1.05443     3.41439
    2          C           0.066128        3.9339     1.07848     2.85539
    3          C          -0.232990        4.2330     1.07375     3.15924
    4          C          -0.146101        4.1461     1.07750     3.06860
    5          C          -0.170276        4.1703     1.09282     3.07746
    6          C          -0.082971        4.0830     1.05299     3.02998
    7          C          -0.441880        4.4419     1.05514     3.38674
    8          C          -0.269871        4.2699     1.05996     3.20991
    9          C          -0.285204        4.2852     1.05474     3.23047
   10          H           0.155519        0.8445     0.84448
   11          H           0.154023        0.8460     0.84598
   12          H           0.156937        0.8431     0.84306
   13          H           0.145790        0.8542     0.85421
   14          H           0.138293        0.8617     0.86171
   15          H           0.135970        0.8640     0.86403
   16          H           0.130777        0.8692     0.86922
   17          H           0.143358        0.8566     0.85664
   18          H           0.153068        0.8469     0.84693
   19          H           0.140772        0.8592     0.85923
   20          H           0.147089        0.8529     0.85291
   21          H           0.130971        0.8690     0.86903
   22          H           0.155983        0.8440     0.84402
   23          H           0.143434        0.8566     0.85657
 DIPOLE           X         Y         Z       TOTAL
 POINT-CHG.     0.026    -0.938    -0.282     0.980
 HYBRID        -0.133    -0.103    -0.149     0.225
 SUM           -0.107    -1.042    -0.431     1.132


          ATOMIC ORBITAL ELECTRON POPULATIONS

     Atom    s        px        py        pz   
    1  C   1.05443   1.08507   1.17124   1.15808
    2  C   1.07848   0.94509   0.96977   0.94053
    3  C   1.07375   1.06271   1.01466   1.08188
    4  C   1.07750   0.98768   1.06815   1.01276
    5  C   1.09282   1.02538   1.03315   1.01892
    6  C   1.05299   1.04541   0.97575   1.00882
    7  C   1.05514   1.16258   1.16567   1.05849
    8  C   1.05996   1.04717   1.07791   1.08483
    9  C   1.05474   1.04459   1.07590   1.10998
   10  H   0.84448
   11  H   0.84598
   12  H   0.84306
   13  H   0.85421
   14  H   0.86171
   15  H   0.86403
   16  H   0.86922
   17  H   0.85664
   18  H   0.84693
   19  H   0.85923
   20  H   0.85291
   21  H   0.86903
   22  H   0.84402
   23  H   0.85657

 **********************
 *                    *
 * JOB ENDED NORMALLY *
 *                    *
 **********************



 TOTAL JOB TIME:             1.05 SECONDS

 == MOPAC DONE ==
