 *******************************************************************************
 **                                                                           **
 **                              MOPAC v23.2                                  **
 **                                                                           **
 *******************************************************************************
 **          Digital Object Identifier (DOI): 10.5281/zenodo.6511958          **
 **    Visit the DOI location for information on how to cite this program.    **
 *******************************************************************************

                              PM7 CALCULATION RESULTS

 *******************************************************************************
 *  CALCULATION DONE: (MAX THREADS = 40)             Fri Sep 19 21:29:36 2025  *
 *  PM7        - The PM7 Hamiltonian to be used
 *  1SCF       - DO 1 SCF AND THEN STOP 
 *  T=         - A TIME OF 172800.0 SECONDS REQUESTED
 *  DUMP=N     - RESTART FILE WRITTEN EVERY 7200.0 SECONDS REQUESTED
 *  RELSCF     - DEFAULT SCF CRITERION MULTIPLIED BY 0.0001
 *              (DEFAULT SCF CRITERION = 0.00010)
 *  GRADIENTS  - ALL GRADIENTS TO BE PRINTED
 *  DISP       - PRINT DISPERSION AND HYDROGEN BOND ENERGIES
 *******************************************************************************
PM7 1SCF GRADIENTS DISP RELSCF=0.0001
 Title: ASE calculation

   ATOM   CHEMICAL          X               Y               Z
  NUMBER   SYMBOL      (ANGSTROMS)     (ANGSTROMS)     (ANGSTROMS)

     1       C         -2.09580550  *   1.73604070  *  -0.41344809  *
     2       C         -2.07219877  *   0.24324576  *  -0.09440378  *
     3       C         -0.63665289  *  -0.32660664  *   0.01711114  *
     4       C         -0.71051830  *  -1.78659912  *   0.49204707  *
     5       C          0.14323362  *  -0.20016367  *  -1.30429901  *
     6       C          1.64145323  *  -0.43836858  *  -1.09225158  *
     7       C          2.15912724  *   0.49072008  *   0.00931502  *
     8       C          1.31936155  *   0.28670743  *   1.27273954  *
     9       O         -0.05651531  *   0.48369264  *   1.02662328  *
    10       H         -3.10954550  *   2.14225259  *  -0.32849403  *
    11       H         -1.45242404  *   2.29190705  *   0.28407594  *
    12       H         -1.73892187  *   1.94316900  *  -1.42738151  *
    13       H         -2.59585200  *   0.06924660  *   0.86741827  *
    14       H         -2.62947612  *  -0.32462066  *  -0.86028472  *
    15       H         -1.12287062  *  -1.84005092  *   1.50657479  *
    16       H         -1.34559287  *  -2.38805679  *  -0.16429902  *
    17       H          0.27782839  *  -2.25445036  *   0.51864289  *
    18       H         -0.26131387  *  -0.90511297  *  -2.04934883  *
    19       H         -0.00709470  *   0.81394767  *  -1.72366311  *
    20       H          1.83312930  *  -1.49435675  *  -0.82661924  *
    21       H          2.18939143  *  -0.26023045  *  -2.03553636  *
    22       H          3.22566995  *   0.29743013  *   0.21641900  *
    23       H          2.08908463  *   1.54426814  *  -0.32143158  *
    24       H          1.47758323  *  -0.71196619  *   1.71363510  *
    25       H          1.52056988  *   1.06018639  *   2.03756138  *



          CARTESIAN COORDINATES 

    NO.       ATOM           X           Y           Z

     1         C         -2.0958      1.7360     -0.4134
     2         C         -2.0722      0.2432     -0.0944
     3         C         -0.6367     -0.3266      0.0171
     4         C         -0.7105     -1.7866      0.4920
     5         C          0.1432     -0.2002     -1.3043
     6         C          1.6415     -0.4384     -1.0923
     7         C          2.1591      0.4907      0.0093
     8         C          1.3194      0.2867      1.2727
     9         O         -0.0565      0.4837      1.0266
    10         H         -3.1095      2.1423     -0.3285
    11         H         -1.4524      2.2919      0.2841
    12         H         -1.7389      1.9432     -1.4274
    13         H         -2.5959      0.0692      0.8674
    14         H         -2.6295     -0.3246     -0.8603
    15         H         -1.1229     -1.8401      1.5066
    16         H         -1.3456     -2.3881     -0.1643
    17         H          0.2778     -2.2545      0.5186
    18         H         -0.2613     -0.9051     -2.0493
    19         H         -0.0071      0.8139     -1.7237
    20         H          1.8331     -1.4944     -0.8266
    21         H          2.1894     -0.2602     -2.0355
    22         H          3.2257      0.2974      0.2164
    23         H          2.0891      1.5443     -0.3214
    24         H          1.4776     -0.7120      1.7136
    25         H          1.5206      1.0602      2.0376

 General Reference for PM7:
 "Optimization of Parameters for Semiempirical Methods VI: More Modifications to the 
 NDDO Approximations and Re-optimization of Parameters", J. J. P. Stewart, J. Mol. Mod., 1:32, 19 (2013)
 https://link.springer.com/article/10.1007/s00894-012-1667-x

           Empirical Formula: C8 H16 O  =    25 atoms



      MOLECULAR POINT GROUP   :   C1  


      RHF CALCULATION, NO. OF DOUBLY OCCUPIED LEVELS = 27

  SCF CRITERION =    0.1000E-07

 -------------------------------------------------------------------------------
 PM7 1SCF GRADIENTS DISP RELSCF=0.0001
 Title: ASE calculation



     1SCF WAS SPECIFIED, SO BFGS WAS NOT USED                 
     SCF FIELD WAS ACHIEVED                                   


                              PM7 CALCULATION
                                                       MOPAC v23.2 Linux
                                                       Fri Sep 19 21:29:37 2025




          FINAL HEAT OF FORMATION =        -75.56295 KCAL/MOL =    -316.15540 KJ/MOL

          TOTAL ENERGY            =     -34469.76698 KCAL/MOL = ELECTRONIC ENERGY + CORE-CORE REPULSION
          ENERGY OF ATOMS         =      34396.99794 KCAL/MOL
                              SUM =        -72.76904 KCAL/MOL
          DISPERSION ENERGY       =         -2.79391 KCAL/MOL
                              SUM =        -75.56295 KCAL/MOL = FINAL HEAT OF FORMATION



          TOTAL ENERGY            =      -1494.75057 EV
          ELECTRONIC ENERGY       =      -8519.70746 EV 
          CORE-CORE REPULSION     =       7024.95689 EV
          COSMO AREA              =        173.38 SQUARE ANGSTROMS
          COSMO VOLUME            =        182.76 CUBIC ANGSTROMS

          GRADIENT NORM           =          1.33009          =       0.26602 PER ATOM
          IONIZATION POTENTIAL    =          9.581730 EV
          HOMO LUMO ENERGIES (EV) =         -9.582  2.715
          NO. OF FILLED LEVELS    =         27
          MOLECULAR WEIGHT        =        128.2138         POINT GROUP:  C1  

          MOLECULAR DIMENSIONS (Angstroms)

            Atom       Atom       Distance
            H    22    H    10     6.62082
            H    23    H    16     4.74781
            H    21    H    25     4.20886


          SCF CALCULATIONS        =          1

          WALL-CLOCK TIME         =      0.625 SECONDS
          COMPUTATION TIME        =      1.452 SECONDS

          LARGEST ATOMIC GRADIENTS

          Atom     Label                     Cartesian Gradients           Cartesian Coordinates       |Gradient|
                                           X          Y          Z        X          Y          Z

            22       H                   0.048     -0.320     -0.268    3.22567    0.29743    0.21642      0.420
            24       H                   0.287      0.300      0.001    1.47758   -0.71197    1.71364      0.415
            18       H                   0.241      0.194      0.273   -0.26131   -0.90511   -2.04935      0.412
            11       H                   0.181     -0.128      0.334   -1.45242    2.29191    0.28408      0.400
             5       C                   0.280      0.224      0.124    0.14323   -0.20016   -1.30430      0.379
            12       H                  -0.070     -0.326     -0.134   -1.73892    1.94317   -1.42738      0.359
            25       H                  -0.271     -0.021     -0.168    1.52057    1.06019    2.03756      0.320
             9       O                  -0.003     -0.233     -0.148   -0.05652    0.48369    1.02662      0.277
             6       C                   0.115      0.061      0.242    1.64145   -0.43837   -1.09225      0.275
            21       H                  -0.211     -0.050      0.123    2.18939   -0.26023   -2.03554      0.250



       FINAL  POINT  AND  DERIVATIVES

   PARAMETER     ATOM    TYPE            VALUE        GRADIENT
      1          1  C    CARTESIAN X    -2.095806      0.048171  KCAL/ANGSTROM
      2          1  C    CARTESIAN Y     1.736041      0.201774  KCAL/ANGSTROM
      3          1  C    CARTESIAN Z    -0.413448      0.030102  KCAL/ANGSTROM
      4          2  C    CARTESIAN X    -2.072199      0.059244  KCAL/ANGSTROM
      5          2  C    CARTESIAN Y     0.243246      0.202727  KCAL/ANGSTROM
      6          2  C    CARTESIAN Z    -0.094404      0.064455  KCAL/ANGSTROM
      7          3  C    CARTESIAN X    -0.636653      0.062285  KCAL/ANGSTROM
      8          3  C    CARTESIAN Y    -0.326607     -0.023901  KCAL/ANGSTROM
      9          3  C    CARTESIAN Z     0.017111     -0.149519  KCAL/ANGSTROM
     10          4  C    CARTESIAN X    -0.710518     -0.138715  KCAL/ANGSTROM
     11          4  C    CARTESIAN Y    -1.786599     -0.034481  KCAL/ANGSTROM
     12          4  C    CARTESIAN Z     0.492047     -0.077906  KCAL/ANGSTROM
     13          5  C    CARTESIAN X     0.143234      0.279752  KCAL/ANGSTROM
     14          5  C    CARTESIAN Y    -0.200164      0.223777  KCAL/ANGSTROM
     15          5  C    CARTESIAN Z    -1.304299      0.124425  KCAL/ANGSTROM
     16          6  C    CARTESIAN X     1.641453      0.114901  KCAL/ANGSTROM
     17          6  C    CARTESIAN Y    -0.438369      0.060721  KCAL/ANGSTROM
     18          6  C    CARTESIAN Z    -1.092252      0.242052  KCAL/ANGSTROM
     19          7  C    CARTESIAN X     2.159127      0.116791  KCAL/ANGSTROM
     20          7  C    CARTESIAN Y     0.490720      0.062665  KCAL/ANGSTROM
     21          7  C    CARTESIAN Z     0.009315      0.005527  KCAL/ANGSTROM
     22          8  C    CARTESIAN X     1.319362     -0.059625  KCAL/ANGSTROM
     23          8  C    CARTESIAN Y     0.286707      0.010253  KCAL/ANGSTROM
     24          8  C    CARTESIAN Z     1.272740     -0.215304  KCAL/ANGSTROM
     25          9  O    CARTESIAN X    -0.056515     -0.002905  KCAL/ANGSTROM
     26          9  O    CARTESIAN Y     0.483693     -0.233477  KCAL/ANGSTROM
     27          9  O    CARTESIAN Z     1.026623     -0.148430  KCAL/ANGSTROM
     28         10  H    CARTESIAN X    -3.109545     -0.157074  KCAL/ANGSTROM
     29         10  H    CARTESIAN Y     2.142253     -0.118051  KCAL/ANGSTROM
     30         10  H    CARTESIAN Z    -0.328494     -0.138535  KCAL/ANGSTROM
     31         11  H    CARTESIAN X    -1.452424      0.181159  KCAL/ANGSTROM
     32         11  H    CARTESIAN Y     2.291907     -0.127629  KCAL/ANGSTROM
     33         11  H    CARTESIAN Z     0.284076      0.333585  KCAL/ANGSTROM
     34         12  H    CARTESIAN X    -1.738922     -0.069528  KCAL/ANGSTROM
     35         12  H    CARTESIAN Y     1.943169     -0.326323  KCAL/ANGSTROM
     36         12  H    CARTESIAN Z    -1.427382     -0.133643  KCAL/ANGSTROM
     37         13  H    CARTESIAN X    -2.595852     -0.236645  KCAL/ANGSTROM
     38         13  H    CARTESIAN Y     0.069247      0.001348  KCAL/ANGSTROM
     39         13  H    CARTESIAN Z     0.867418      0.050683  KCAL/ANGSTROM
     40         14  H    CARTESIAN X    -2.629476     -0.097160  KCAL/ANGSTROM
     41         14  H    CARTESIAN Y    -0.324621     -0.106434  KCAL/ANGSTROM
     42         14  H    CARTESIAN Z    -0.860285      0.116801  KCAL/ANGSTROM
     43         15  H    CARTESIAN X    -1.122871     -0.077704  KCAL/ANGSTROM
     44         15  H    CARTESIAN Y    -1.840051     -0.123888  KCAL/ANGSTROM
     45         15  H    CARTESIAN Z     1.506575      0.018855  KCAL/ANGSTROM
     46         16  H    CARTESIAN X    -1.345593     -0.155455  KCAL/ANGSTROM
     47         16  H    CARTESIAN Y    -2.388057     -0.071838  KCAL/ANGSTROM
     48         16  H    CARTESIAN Z    -0.164299     -0.078140  KCAL/ANGSTROM
     49         17  H    CARTESIAN X     0.277828     -0.100055  KCAL/ANGSTROM
     50         17  H    CARTESIAN Y    -2.254450      0.055191  KCAL/ANGSTROM
     51         17  H    CARTESIAN Z     0.518643      0.068882  KCAL/ANGSTROM
     52         18  H    CARTESIAN X    -0.261314      0.240601  KCAL/ANGSTROM
     53         18  H    CARTESIAN Y    -0.905113      0.194464  KCAL/ANGSTROM
     54         18  H    CARTESIAN Z    -2.049349      0.272585  KCAL/ANGSTROM
     55         19  H    CARTESIAN X    -0.007095      0.084723  KCAL/ANGSTROM
     56         19  H    CARTESIAN Y     0.813948      0.170957  KCAL/ANGSTROM
     57         19  H    CARTESIAN Z    -1.723663     -0.064701  KCAL/ANGSTROM
     58         20  H    CARTESIAN X     1.833129      0.006269  KCAL/ANGSTROM
     59         20  H    CARTESIAN Y    -1.494357      0.109192  KCAL/ANGSTROM
     60         20  H    CARTESIAN Z    -0.826619      0.043235  KCAL/ANGSTROM
     61         21  H    CARTESIAN X     2.189391     -0.211410  KCAL/ANGSTROM
     62         21  H    CARTESIAN Y    -0.260230     -0.050108  KCAL/ANGSTROM
     63         21  H    CARTESIAN Z    -2.035536      0.122843  KCAL/ANGSTROM
     64         22  H    CARTESIAN X     3.225670      0.048214  KCAL/ANGSTROM
     65         22  H    CARTESIAN Y     0.297430     -0.320447  KCAL/ANGSTROM
     66         22  H    CARTESIAN Z     0.216419     -0.267553  KCAL/ANGSTROM
     67         23  H    CARTESIAN X     2.089085      0.048331  KCAL/ANGSTROM
     68         23  H    CARTESIAN Y     1.544268     -0.034813  KCAL/ANGSTROM
     69         23  H    CARTESIAN Z    -0.321432     -0.053130  KCAL/ANGSTROM
     70         24  H    CARTESIAN X     1.477583      0.287310  KCAL/ANGSTROM
     71         24  H    CARTESIAN Y    -0.711966      0.299520  KCAL/ANGSTROM
     72         24  H    CARTESIAN Z     1.713635      0.000875  KCAL/ANGSTROM
     73         25  H    CARTESIAN X     1.520570     -0.271471  KCAL/ANGSTROM
     74         25  H    CARTESIAN Y     1.060186     -0.021200  KCAL/ANGSTROM
     75         25  H    CARTESIAN Z     2.037561     -0.168044  KCAL/ANGSTROM




   ATOM   CHEMICAL          X               Y               Z
  NUMBER   SYMBOL      (ANGSTROMS)     (ANGSTROMS)     (ANGSTROMS)

     1       C         -2.09580550  *   1.73604070  *  -0.41344809  *
     2       C         -2.07219877  *   0.24324576  *  -0.09440378  *
     3       C         -0.63665289  *  -0.32660664  *   0.01711114  *
     4       C         -0.71051830  *  -1.78659912  *   0.49204707  *
     5       C          0.14323362  *  -0.20016367  *  -1.30429901  *
     6       C          1.64145323  *  -0.43836858  *  -1.09225158  *
     7       C          2.15912724  *   0.49072008  *   0.00931502  *
     8       C          1.31936155  *   0.28670743  *   1.27273954  *
     9       O         -0.05651531  *   0.48369264  *   1.02662328  *
    10       H         -3.10954550  *   2.14225259  *  -0.32849403  *
    11       H         -1.45242404  *   2.29190705  *   0.28407594  *
    12       H         -1.73892187  *   1.94316900  *  -1.42738151  *
    13       H         -2.59585200  *   0.06924660  *   0.86741827  *
    14       H         -2.62947612  *  -0.32462066  *  -0.86028472  *
    15       H         -1.12287062  *  -1.84005092  *   1.50657479  *
    16       H         -1.34559287  *  -2.38805679  *  -0.16429902  *
    17       H          0.27782839  *  -2.25445036  *   0.51864289  *
    18       H         -0.26131387  *  -0.90511297  *  -2.04934883  *
    19       H         -0.00709470  *   0.81394767  *  -1.72366311  *
    20       H          1.83312930  *  -1.49435675  *  -0.82661924  *
    21       H          2.18939143  *  -0.26023045  *  -2.03553636  *
    22       H          3.22566995  *   0.29743013  *   0.21641900  *
    23       H          2.08908463  *   1.54426814  *  -0.32143158  *
    24       H          1.47758323  *  -0.71196619  *   1.71363510  *
    25       H          1.52056988  *   1.06018639  *   2.03756138  *

                             CARTESIAN COORDINATES

   1    C       -2.095805502     1.736040700    -0.413448087
   2    C       -2.072198767     0.243245761    -0.094403775
   3    C       -0.636652890    -0.326606642     0.017111139
   4    C       -0.710518300    -1.786599116     0.492047067
   5    C        0.143233622    -0.200163671    -1.304299008
   6    C        1.641453227    -0.438368577    -1.092251579
   7    C        2.159127241     0.490720084     0.009315015
   8    C        1.319361555     0.286707428     1.272739539
   9    O       -0.056515313     0.483692642     1.026623280
  10    H       -3.109545496     2.142252593    -0.328494027
  11    H       -1.452424044     2.291907051     0.284075945
  12    H       -1.738921874     1.943169003    -1.427381505
  13    H       -2.595851996     0.069246600     0.867418265
  14    H       -2.629476120    -0.324620659    -0.860284715
  15    H       -1.122870622    -1.840050921     1.506574788
  16    H       -1.345592866    -2.388056794    -0.164299025
  17    H        0.277828389    -2.254450360     0.518642894
  18    H       -0.261313867    -0.905112966    -2.049348828
  19    H       -0.007094697     0.813947672    -1.723663115
  20    H        1.833129304    -1.494356748    -0.826619240
  21    H        2.189391434    -0.260230455    -2.035536358
  22    H        3.225669953     0.297430132     0.216418998
  23    H        2.089084628     1.544268144    -0.321431577
  24    H        1.477583227    -0.711966189     1.713635099
  25    H        1.520569882     1.060186386     2.037561375


           Empirical Formula: C8 H16 O  =    25 atoms



      MOLECULAR POINT GROUP   :   C1  


                  EIGENVALUES  
 -30.62326 -28.10596 -27.41084 -25.60861 -24.44123 -21.98150 -21.61793 -20.00058
 -18.47962 -16.41202 -16.01004 -15.45093 -15.16888 -15.01549 -14.03933 -13.91374
 -13.39018 -12.98601 -12.96276 -12.54957 -12.09638 -11.96182 -11.75807 -11.31628
 -11.10239 -10.61318  -9.58173   2.71479   3.80660   4.07991   4.14920   4.37252
   4.47290   4.82994   4.89516   5.20947   5.60462   5.74190   5.77836   5.87476
   5.93196   5.95892   6.09111   6.13813   6.31884   6.36028   6.52130   6.62891
   6.68655   6.80856   7.12857   7.34538


              NET ATOMIC CHARGES AND DIPOLE CONTRIBUTIONS

  ATOM NO.   TYPE          CHARGE      No. of ELECS.   s-Pop       p-Pop       
    1          C          -0.429457        4.4295     1.05063     3.37883
    2          C          -0.290880        4.2909     1.06446     3.22642
    3          C           0.300034        3.7000     1.08213     2.61784
    4          C          -0.509492        4.5095     1.06379     3.44570
    5          C          -0.333063        4.3331     1.06800     3.26506
    6          C          -0.253782        4.2538     1.05552     3.19826
    7          C          -0.315846        4.3158     1.06311     3.25274
    8          C          -0.026056        4.0261     1.08454     2.94151
    9          O          -0.419860        6.4199     1.87600     4.54386
   10          H           0.139003        0.8610     0.86100
   11          H           0.161340        0.8387     0.83866
   12          H           0.136907        0.8631     0.86309
   13          H           0.149141        0.8509     0.85086
   14          H           0.137934        0.8621     0.86207
   15          H           0.158276        0.8417     0.84172
   16          H           0.149475        0.8505     0.85052
   17          H           0.151110        0.8489     0.84889
   18          H           0.140207        0.8598     0.85979
   19          H           0.152695        0.8473     0.84731
   20          H           0.134854        0.8651     0.86515
   21          H           0.132919        0.8671     0.86708
   22          H           0.138033        0.8620     0.86197
   23          H           0.149020        0.8510     0.85098
   24          H           0.114122        0.8859     0.88588
   25          H           0.133365        0.8666     0.86663
 DIPOLE           X         Y         Z       TOTAL
 POINT-CHG.     0.740    -0.907    -0.824     1.432
 HYBRID        -0.010    -0.015    -0.003     0.018
 SUM            0.730    -0.921    -0.827     1.437


          ATOMIC ORBITAL ELECTRON POPULATIONS

     Atom    s        px        py        pz   
    1  C   1.05063   1.16939   1.04085   1.16860
    2  C   1.06446   1.04329   1.02533   1.15780
    3  C   1.08213   0.90066   0.86890   0.84828
    4  C   1.06379   1.18196   1.08848   1.17527
    5  C   1.06800   1.02040   1.16889   1.07577
    6  C   1.05552   1.01658   1.10021   1.08147
    7  C   1.06311   1.09457   1.12132   1.03685
    8  C   1.08454   0.81378   1.12025   1.00748
    9  O   1.87600   1.28270   1.65400   1.60715
   10  H   0.86100
   11  H   0.83866
   12  H   0.86309
   13  H   0.85086
   14  H   0.86207
   15  H   0.84172
   16  H   0.85052
   17  H   0.84889
   18  H   0.85979
   19  H   0.84731
   20  H   0.86515
   21  H   0.86708
   22  H   0.86197
   23  H   0.85098
   24  H   0.88588
   25  H   0.86663

 **********************
 *                    *
 * JOB ENDED NORMALLY *
 *                    *
 **********************



 TOTAL JOB TIME:             1.03 SECONDS

 == MOPAC DONE ==
