 *******************************************************************************
 **                                                                           **
 **                              MOPAC v23.2                                  **
 **                                                                           **
 *******************************************************************************
 **          Digital Object Identifier (DOI): 10.5281/zenodo.6511958          **
 **    Visit the DOI location for information on how to cite this program.    **
 *******************************************************************************

                              PM7 CALCULATION RESULTS

 *******************************************************************************
 *  CALCULATION DONE: (MAX THREADS = 40)             Fri Sep 19 21:45:27 2025  *
 *  PM7        - The PM7 Hamiltonian to be used
 *
 *
 *
 *                 CHARGE ON SYSTEM = +1
 *
 *
 *
 *  EPS=37.5   - USE ANDREAS KLAMT'S COSMO IMPLICIT SOLVATION MODEL
 *  1SCF       - DO 1 SCF AND THEN STOP 
 *  T=         - A TIME OF 172800.0 SECONDS REQUESTED
 *  DUMP=N     - RESTART FILE WRITTEN EVERY 7200.0 SECONDS REQUESTED
 *  RELSCF     - DEFAULT SCF CRITERION MULTIPLIED BY 0.0001
 *              (DEFAULT SCF CRITERION = 0.00010)
 *  GRADIENTS  - ALL GRADIENTS TO BE PRINTED
 *  DISP       - PRINT DISPERSION AND HYDROGEN BOND ENERGIES
 *******************************************************************************
PM7 1SCF GRADIENTS EPS=37.5 DISP RELSCF=0.0001 CHARGE=1
 Title: ASE calculation

   ATOM   CHEMICAL          X               Y               Z
  NUMBER   SYMBOL      (ANGSTROMS)     (ANGSTROMS)     (ANGSTROMS)

     1       C         -2.14791930  *  -0.13204305  *   0.34183409  *
     2       N         -1.64281756  *  -1.20777756  *   1.10715463  *
     3       C         -0.97823472  *  -1.04317660  *  -0.16703639  *
     4       C          0.39780638  *  -0.61477601  *  -0.10703530  *
     5       C          1.40247311  *   0.14195605  *  -1.00191489  *
     6       C          1.51511493  *   1.21686414  *   0.11286513  *
     7       N          0.97995495  *   0.17618405  *   1.11534414  *
     8       C          2.14536816  *  -0.83222199  *   1.13415848  *
     9       C          1.80927666  *  -1.18591391  *  -0.33976006  *
    10       H         -3.13339702  *  -0.21209296  *  -0.16264188  *
    11       H         -2.00893947  *   0.90623573  *   0.71154726  *
    12       H         -1.42386480  *  -1.41956230  *   2.05483674  *
    13       H         -1.22207070  *  -1.76446292  *  -0.98650330  *
    14       H          1.39904476  *   0.33996126  *  -2.05483674  *
    15       H          2.51815991  *   1.60605734  *   0.33483287  *
    16       H          0.81818720  *   2.06086051  *   0.01285062  *
    17       H          1.95488369  *  -1.63934264  *   1.85499594  *
    18       H          3.13339702  *  -0.39843759  *   1.33937195  *
    19       H          2.14758453  *  -2.06086051  *  -0.85712315  *



          CARTESIAN COORDINATES 

    NO.       ATOM           X           Y           Z

     1         C         -2.1479     -0.1320      0.3418
     2         N         -1.6428     -1.2078      1.1072
     3         C         -0.9782     -1.0432     -0.1670
     4         C          0.3978     -0.6148     -0.1070
     5         C          1.4025      0.1420     -1.0019
     6         C          1.5151      1.2169      0.1129
     7         N          0.9800      0.1762      1.1153
     8         C          2.1454     -0.8322      1.1342
     9         C          1.8093     -1.1859     -0.3398
    10         H         -3.1334     -0.2121     -0.1626
    11         H         -2.0089      0.9062      0.7115
    12         H         -1.4239     -1.4196      2.0548
    13         H         -1.2221     -1.7645     -0.9865
    14         H          1.3990      0.3400     -2.0548
    15         H          2.5182      1.6061      0.3348
    16         H          0.8182      2.0609      0.0129
    17         H          1.9549     -1.6393      1.8550
    18         H          3.1334     -0.3984      1.3394
    19         H          2.1476     -2.0609     -0.8571

 General Reference for PM7:
 "Optimization of Parameters for Semiempirical Methods VI: More Modifications to the 
 NDDO Approximations and Re-optimization of Parameters", J. J. P. Stewart, J. Mol. Mod., 1:32, 19 (2013)
 https://link.springer.com/article/10.1007/s00894-012-1667-x

           Empirical Formula: C7 H10 N2  =    19 atoms



      MOLECULAR POINT GROUP   :   C1  


          UHF CALCULATION, NO. OF ALPHA ELECTRONS =   24
                           NO. OF BETA  ELECTRONS =   23
  SCF CRITERION =    0.1000E-07

 -------------------------------------------------------------------------------
 PM7 1SCF GRADIENTS EPS=37.5 DISP RELSCF=0.0001 CHARGE=1
 Title: ASE calculation



     1SCF WAS SPECIFIED, SO BFGS WAS NOT USED                 
     SCF FIELD WAS ACHIEVED                                   


                              PM7 CALCULATION
                                                       MOPAC v23.2 Linux
                                                       Fri Sep 19 21:45:29 2025




          FINAL HEAT OF FORMATION =        280.31727 KCAL/MOL =    1172.84748 KJ/MOL

          TOTAL ENERGY            =     -31268.41063 KCAL/MOL = ELECTRONIC ENERGY + CORE-CORE REPULSION + SOLVATION ENERGY
          ENERGY OF ATOMS         =      31550.59433 KCAL/MOL
                              SUM =        282.18370 KCAL/MOL
          DISPERSION ENERGY       =         -1.86643 KCAL/MOL
                              SUM =        280.31727 KCAL/MOL = FINAL HEAT OF FORMATION

          VAN DER WAALS AREA      =        158.69 SQUARE ANGSTROMS


          TOTAL ENERGY            =      -1355.92662 EV
          ELECTRONIC ENERGY       =      -2232.99936 EV 
          CORE-CORE REPULSION     =        877.07274 EV

          DIELECTRIC ENERGY       =         -2.58249 EV
          COSMO AREA              =        158.69 SQUARE ANGSTROMS
          COSMO VOLUME            =        159.33 CUBIC ANGSTROMS

          GRADIENT NORM           =         19.32371          =       4.43316 PER ATOM
          IONIZATION POTENTIAL    =         10.797906 EV
          ALPHA SOMO LUMO (EV)    =        -10.800 -0.052
          BETA  SOMO LUMO (EV)    =        -10.798 -2.562
          NO. OF ALPHA ELECTRONS  =         24
          NO. OF BETA  ELECTRONS  =         23
          MOLECULAR WEIGHT        =        122.1694         POINT GROUP:  C1  

          MOLECULAR DIMENSIONS (Angstroms)

            Atom       Atom       Distance
            H    18    H    10     6.44697
            H    12    H    14     4.99415
            H    16    H    19     4.22940


          SCF CALCULATIONS        =          2

          WALL-CLOCK TIME         =      1.305 SECONDS
          COMPUTATION TIME        =      0.528 SECONDS

          LARGEST ATOMIC GRADIENTS

          Atom     Label                     Cartesian Gradients           Cartesian Coordinates       |Gradient|
                                           X          Y          Z        X          Y          Z

             4       C                  -9.076     -3.821      2.181    0.39781   -0.61478   -0.10704     10.087
             3       C                   7.827     -0.867     -5.943   -0.97823   -1.04318   -0.16704      9.866
             2       N                  -1.503     -5.932      4.881   -1.64282   -1.20778    1.10715      7.828
             1       C                  -4.230      2.933      1.162   -2.14792   -0.13204    0.34183      5.277
            12       H                   2.817      4.068     -0.096   -1.42386   -1.41956    2.05484      4.949
             7       N                  -3.825     -1.902     -1.079    0.97995    0.17618    1.11534      4.406
             5       C                   3.425     -1.267     -0.929    1.40247    0.14196   -1.00191      3.769
             9       C                   1.037      1.381     -2.340    1.80928   -1.18591   -0.33976      2.908
            11       H                   0.681      2.084      0.372   -2.00894    0.90624    0.71155      2.224
             6       C                  -1.364      0.422      0.504    1.51511    1.21686    0.11287      1.515



       FINAL  POINT  AND  DERIVATIVES

   PARAMETER     ATOM    TYPE            VALUE        GRADIENT
      1          1  C    CARTESIAN X    -2.147919     -4.229846  KCAL/ANGSTROM
      2          1  C    CARTESIAN Y    -0.132043      2.933221  KCAL/ANGSTROM
      3          1  C    CARTESIAN Z     0.341834      1.162162  KCAL/ANGSTROM
      4          2  N    CARTESIAN X    -1.642818     -1.502986  KCAL/ANGSTROM
      5          2  N    CARTESIAN Y    -1.207778     -5.932095  KCAL/ANGSTROM
      6          2  N    CARTESIAN Z     1.107155      4.881102  KCAL/ANGSTROM
      7          3  C    CARTESIAN X    -0.978235      7.826770  KCAL/ANGSTROM
      8          3  C    CARTESIAN Y    -1.043177     -0.867001  KCAL/ANGSTROM
      9          3  C    CARTESIAN Z    -0.167036     -5.943181  KCAL/ANGSTROM
     10          4  C    CARTESIAN X     0.397806     -9.076231  KCAL/ANGSTROM
     11          4  C    CARTESIAN Y    -0.614776     -3.821255  KCAL/ANGSTROM
     12          4  C    CARTESIAN Z    -0.107035      2.181457  KCAL/ANGSTROM
     13          5  C    CARTESIAN X     1.402473      3.425288  KCAL/ANGSTROM
     14          5  C    CARTESIAN Y     0.141956     -1.267405  KCAL/ANGSTROM
     15          5  C    CARTESIAN Z    -1.001915     -0.929476  KCAL/ANGSTROM
     16          6  C    CARTESIAN X     1.515115     -1.364370  KCAL/ANGSTROM
     17          6  C    CARTESIAN Y     1.216864      0.421826  KCAL/ANGSTROM
     18          6  C    CARTESIAN Z     0.112865      0.504259  KCAL/ANGSTROM
     19          7  N    CARTESIAN X     0.979955     -3.824809  KCAL/ANGSTROM
     20          7  N    CARTESIAN Y     0.176184     -1.901537  KCAL/ANGSTROM
     21          7  N    CARTESIAN Z     1.115344     -1.079029  KCAL/ANGSTROM
     22          8  C    CARTESIAN X     2.145368     -1.113408  KCAL/ANGSTROM
     23          8  C    CARTESIAN Y    -0.832222     -0.726025  KCAL/ANGSTROM
     24          8  C    CARTESIAN Z     1.134158      0.630902  KCAL/ANGSTROM
     25          9  C    CARTESIAN X     1.809277      1.037041  KCAL/ANGSTROM
     26          9  C    CARTESIAN Y    -1.185914      1.381395  KCAL/ANGSTROM
     27          9  C    CARTESIAN Z    -0.339760     -2.339513  KCAL/ANGSTROM
     28         10  H    CARTESIAN X    -3.133397     -0.044969  KCAL/ANGSTROM
     29         10  H    CARTESIAN Y    -0.212093      0.391298  KCAL/ANGSTROM
     30         10  H    CARTESIAN Z    -0.162642     -0.074664  KCAL/ANGSTROM
     31         11  H    CARTESIAN X    -2.008939      0.681407  KCAL/ANGSTROM
     32         11  H    CARTESIAN Y     0.906236      2.084082  KCAL/ANGSTROM
     33         11  H    CARTESIAN Z     0.711547      0.372498  KCAL/ANGSTROM
     34         12  H    CARTESIAN X    -1.423865      2.816692  KCAL/ANGSTROM
     35         12  H    CARTESIAN Y    -1.419562      4.068203  KCAL/ANGSTROM
     36         12  H    CARTESIAN Z     2.054837     -0.095811  KCAL/ANGSTROM
     37         13  H    CARTESIAN X    -1.222071      0.576414  KCAL/ANGSTROM
     38         13  H    CARTESIAN Y    -1.764463      0.958616  KCAL/ANGSTROM
     39         13  H    CARTESIAN Z    -0.986503      0.167336  KCAL/ANGSTROM
     40         14  H    CARTESIAN X     1.399045      0.320570  KCAL/ANGSTROM
     41         14  H    CARTESIAN Y     0.339961      0.379252  KCAL/ANGSTROM
     42         14  H    CARTESIAN Z    -2.054837     -0.869153  KCAL/ANGSTROM
     43         15  H    CARTESIAN X     2.518160      0.912194  KCAL/ANGSTROM
     44         15  H    CARTESIAN Y     1.606057      0.591535  KCAL/ANGSTROM
     45         15  H    CARTESIAN Z     0.334833      0.091190  KCAL/ANGSTROM
     46         16  H    CARTESIAN X     0.818187      0.669685  KCAL/ANGSTROM
     47         16  H    CARTESIAN Y     2.060861      0.648292  KCAL/ANGSTROM
     48         16  H    CARTESIAN Z     0.012851      0.616980  KCAL/ANGSTROM
     49         17  H    CARTESIAN X     1.954884      0.693539  KCAL/ANGSTROM
     50         17  H    CARTESIAN Y    -1.639343      0.759507  KCAL/ANGSTROM
     51         17  H    CARTESIAN Z     1.854996      0.358303  KCAL/ANGSTROM
     52         18  H    CARTESIAN X     3.133397      1.017571  KCAL/ANGSTROM
     53         18  H    CARTESIAN Y    -0.398438      0.170449  KCAL/ANGSTROM
     54         18  H    CARTESIAN Z     1.339372      0.722846  KCAL/ANGSTROM
     55         19  H    CARTESIAN X     2.147585      1.179449  KCAL/ANGSTROM
     56         19  H    CARTESIAN Y    -2.060861     -0.272362  KCAL/ANGSTROM
     57         19  H    CARTESIAN Z    -0.857123     -0.358212  KCAL/ANGSTROM




   ATOM   CHEMICAL          X               Y               Z
  NUMBER   SYMBOL      (ANGSTROMS)     (ANGSTROMS)     (ANGSTROMS)

     1       C         -2.14791930  *  -0.13204305  *   0.34183409  *
     2       N         -1.64281756  *  -1.20777756  *   1.10715463  *
     3       C         -0.97823472  *  -1.04317660  *  -0.16703639  *
     4       C          0.39780638  *  -0.61477601  *  -0.10703530  *
     5       C          1.40247311  *   0.14195605  *  -1.00191489  *
     6       C          1.51511493  *   1.21686414  *   0.11286513  *
     7       N          0.97995495  *   0.17618405  *   1.11534414  *
     8       C          2.14536816  *  -0.83222199  *   1.13415848  *
     9       C          1.80927666  *  -1.18591391  *  -0.33976006  *
    10       H         -3.13339702  *  -0.21209296  *  -0.16264188  *
    11       H         -2.00893947  *   0.90623573  *   0.71154726  *
    12       H         -1.42386480  *  -1.41956230  *   2.05483674  *
    13       H         -1.22207070  *  -1.76446292  *  -0.98650330  *
    14       H          1.39904476  *   0.33996126  *  -2.05483674  *
    15       H          2.51815991  *   1.60605734  *   0.33483287  *
    16       H          0.81818720  *   2.06086051  *   0.01285062  *
    17       H          1.95488369  *  -1.63934264  *   1.85499594  *
    18       H          3.13339702  *  -0.39843759  *   1.33937195  *
    19       H          2.14758453  *  -2.06086051  *  -0.85712315  *

                             CARTESIAN COORDINATES

   1    C       -2.147919300    -0.132043050     0.341834087
   2    N       -1.642817560    -1.207777557     1.107154629
   3    C       -0.978234721    -1.043176601    -0.167036390
   4    C        0.397806376    -0.614776006    -0.107035297
   5    C        1.402473106     0.141956053    -1.001914894
   6    C        1.515114928     1.216864140     0.112865133
   7    N        0.979954950     0.176184048     1.115344141
   8    C        2.145368156    -0.832221986     1.134158478
   9    C        1.809276656    -1.185913912    -0.339760062
  10    H       -3.133397017    -0.212092955    -0.162641876
  11    H       -2.008939468     0.906235731     0.711547258
  12    H       -1.423864805    -1.419562298     2.054836738
  13    H       -1.222070697    -1.764462922    -0.986503300
  14    H        1.399044762     0.339961256    -2.054836738
  15    H        2.518159910     1.606057340     0.334832870
  16    H        0.818187198     2.060860506     0.012850615
  17    H        1.954883692    -1.639342644     1.854995940
  18    H        3.133397017    -0.398437590     1.339371954
  19    H        2.147584532    -2.060860506    -0.857123147


           Empirical Formula: C7 H10 N2  =    19 atoms



      MOLECULAR POINT GROUP   :   C1  


          ALPHA EIGENVALUES  
 -39.62829 -37.56797 -27.97227 -26.66379 -25.58291 -24.37680 -22.43697 -20.33931
 -19.36191 -18.93212 -18.10004 -16.83546 -16.62732 -16.30705 -15.27129 -14.87021
 -14.05776 -13.60334 -13.08270 -12.90894 -12.79220 -12.10309 -11.00576 -10.79955
  -0.05245   0.39343   1.30949   1.48607   1.86917   2.35517   2.44079   2.72296
   2.87644   2.92779   3.78989   3.92350   4.18095   4.48614   4.69850   5.07379
   5.13006   5.34606   5.50493   5.55987   5.61441   5.75029


           BETA EIGENVALUES 
 -38.20060 -37.43519 -27.93127 -26.02070 -25.55575 -24.19650 -22.35480 -19.98865
 -19.35831 -18.57528 -17.84034 -16.62295 -16.37047 -16.12955 -15.02344 -14.53063
 -13.91629 -13.58251 -13.02255 -12.80283 -12.12260 -11.06149 -10.79791  -2.56170
   0.35612   0.77458   1.42405   1.55099   2.04625   2.40943   2.48081   2.72603
   2.87654   2.99069   3.79610   3.92558   4.32098   4.53630   4.78021   5.12898
   5.34574   5.50623   5.52852   5.56057   5.61493   5.75101


              NET ATOMIC CHARGES AND DIPOLE CONTRIBUTIONS

  ATOM NO.   TYPE          CHARGE      No. of ELECS.   s-Pop       p-Pop       
    1          C          -0.176169        4.1762     1.10261     3.07355
    2          N           0.011508        4.9885     1.55400     3.43449
    3          C           0.001926        3.9981     1.07893     2.91915
    4          C          -0.070264        4.0703     1.05748     3.01278
    5          C          -0.144700        4.1447     1.09585     3.04884
    6          C          -0.138330        4.1383     1.09407     3.04426
    7          N          -0.411519        5.4115     1.79835     3.61317
    8          C          -0.138025        4.1380     1.09402     3.04400
    9          C          -0.152430        4.1524     1.09485     3.05758
   10          H           0.255898        0.7441     0.74410
   11          H           0.240626        0.7594     0.75937
   12          H           0.387028        0.6130     0.61297
   13          H           0.257195        0.7428     0.74281
   14          H           0.194030        0.8060     0.80597
   15          H           0.171378        0.8286     0.82862
   16          H           0.172002        0.8280     0.82800
   17          H           0.172815        0.8272     0.82718
   18          H           0.172013        0.8280     0.82799
   19          H           0.195017        0.8050     0.80498
 DIPOLE           X         Y         Z       TOTAL
 POINT-CHG.    -6.894    -2.076    -0.142     7.201
 HYBRID         0.007    -0.487     0.285     0.564
 SUM           -6.886    -2.563     0.144     7.349


          ATOMIC ORBITAL ELECTRON POPULATIONS

     Atom    s        px        py        pz   
    1  C   1.10261   1.08014   1.00397   0.98944
    2  N   1.55400   1.16084   1.11201   1.16164
    3  C   1.07893   0.95050   1.04891   0.91973
    4  C   1.05748   0.93250   1.11529   0.96500
    5  C   1.09585   1.01547   0.95534   1.07804
    6  C   1.09407   1.15050   0.99528   0.89848
    7  N   1.79835   1.21748   1.12753   1.26817
    8  C   1.09402   1.01911   1.02137   1.00352
    9  C   1.09485   0.96345   1.06581   1.02832
   10  H   0.74410
   11  H   0.75937
   12  H   0.61297
   13  H   0.74281
   14  H   0.80597
   15  H   0.82862
   16  H   0.82800
   17  H   0.82718
   18  H   0.82799
   19  H   0.80498


                    (SZ)    =    0.500000
                    (S**2)  =    0.760298


          ATOMIC ORBITAL SPIN POPULATIONS

    Atom   Total    s     px     py     pz   
         Atomic
    1  C -0.0216 -0.006  0.024 -0.002 -0.037
    2  N  0.9766  0.055  0.396  0.449  0.076
    3  C -0.0381 -0.005 -0.004  0.018 -0.047
    4  C  0.0194  0.005  0.009  0.004  0.001
    5  C  0.0087  0.000  0.008  0.001  0.000
    6  C  0.0001 -0.000 -0.000  0.000  0.000
    7  N -0.0035  0.000 -0.001 -0.001 -0.002
    8  C  0.0004  0.000  0.000  0.000  0.000
    9  C -0.0019 -0.000 -0.001 -0.001 -0.000
   10  H  0.0347  0.035
   11  H  0.0311  0.031
   12  H -0.0260 -0.026
   13  H  0.0202  0.020
   14  H -0.0002 -0.000
   15  H  0.0002  0.000
   16  H  0.0000  0.000
   17  H -0.0000 -0.000
   18  H -0.0001 -0.000
   19  H  0.0001  0.000

 **********************
 *                    *
 * JOB ENDED NORMALLY *
 *                    *
 **********************



 TOTAL JOB TIME:             1.84 SECONDS

 == MOPAC DONE ==
