 *******************************************************************************
 **                                                                           **
 **                              MOPAC v23.2                                  **
 **                                                                           **
 *******************************************************************************
 **          Digital Object Identifier (DOI): 10.5281/zenodo.6511958          **
 **    Visit the DOI location for information on how to cite this program.    **
 *******************************************************************************

                              PM7 CALCULATION RESULTS

 *******************************************************************************
 *  CALCULATION DONE: (MAX THREADS = 40)             Fri Sep 19 21:30:49 2025  *
 *  PM7        - The PM7 Hamiltonian to be used
 *
 *
 *
 *                 CHARGE ON SYSTEM = +1
 *
 *
 *
 *  EPS=37.5   - USE ANDREAS KLAMT'S COSMO IMPLICIT SOLVATION MODEL
 *  1SCF       - DO 1 SCF AND THEN STOP 
 *  T=         - A TIME OF 172800.0 SECONDS REQUESTED
 *  DUMP=N     - RESTART FILE WRITTEN EVERY 7200.0 SECONDS REQUESTED
 *  RELSCF     - DEFAULT SCF CRITERION MULTIPLIED BY 0.0001
 *              (DEFAULT SCF CRITERION = 0.00010)
 *  GRADIENTS  - ALL GRADIENTS TO BE PRINTED
 *  DISP       - PRINT DISPERSION AND HYDROGEN BOND ENERGIES
 *******************************************************************************
PM7 1SCF GRADIENTS EPS=37.5 DISP RELSCF=0.0001 CHARGE=1
 Title: ASE calculation

   ATOM   CHEMICAL          X               Y               Z
  NUMBER   SYMBOL      (ANGSTROMS)     (ANGSTROMS)     (ANGSTROMS)

     1       C         -1.46567358  *   1.75156339  *  -0.24005881  *
     2       C         -1.01332156  *   0.43685198  *   0.36377058  *
     3       C         -1.61690831  *  -0.80784011  *  -0.32575733  *
     4       C         -0.49024973  *  -1.83623989  *  -0.30956508  *
     5       O          0.73040093  *  -1.11513302  *   0.04989286  *
     6       C          0.47019665  *   0.15743704  *   0.32557192  *
     7       C          1.48997946  *   0.86010957  *   1.11537140  *
     8       C          1.08207761  *   0.76086243  *  -1.61111313  *
     9       O          2.34601773  *   0.39203696  *  -1.55859822  *
    10       H         -1.37330211  *   1.79291188  *  -1.33211367  *
    11       H         -2.53571543  *   1.93384209  *  -0.02596316  *
    12       H         -0.92790772  *   2.61408097  *   0.18025946  *
    13       H         -1.31371283  *   0.43871590  *   1.45594931  *
    14       H         -2.52216374  *  -1.16742893  *   0.20343481  *
    15       H         -1.96448406  *  -0.58361226  *  -1.35195440  *
    16       H         -0.58718861  *  -2.61408097  *   0.47213319  *
    17       H         -0.27072787  *  -2.30980591  *  -1.28045821  *
    18       H          1.37660099  *   1.95992413  *   1.10428203  *
    19       H          2.53571543  *   0.64052865  *   0.81309705  *
    20       H          1.43865790  *   0.55804682  *   2.18708539  *
    21       H          0.35943363  *   0.20482907  *  -2.18708539  *
    22       H          0.98013341  *   1.83084524  *  -1.44815872  *
    23       H          2.51683687  *  -0.54129074  *  -1.90089224  *



          CARTESIAN COORDINATES 

    NO.       ATOM           X           Y           Z

     1         C         -1.4657      1.7516     -0.2401
     2         C         -1.0133      0.4369      0.3638
     3         C         -1.6169     -0.8078     -0.3258
     4         C         -0.4902     -1.8362     -0.3096
     5         O          0.7304     -1.1151      0.0499
     6         C          0.4702      0.1574      0.3256
     7         C          1.4900      0.8601      1.1154
     8         C          1.0821      0.7609     -1.6111
     9         O          2.3460      0.3920     -1.5586
    10         H         -1.3733      1.7929     -1.3321
    11         H         -2.5357      1.9338     -0.0260
    12         H         -0.9279      2.6141      0.1803
    13         H         -1.3137      0.4387      1.4559
    14         H         -2.5222     -1.1674      0.2034
    15         H         -1.9645     -0.5836     -1.3520
    16         H         -0.5872     -2.6141      0.4721
    17         H         -0.2707     -2.3098     -1.2805
    18         H          1.3766      1.9599      1.1043
    19         H          2.5357      0.6405      0.8131
    20         H          1.4387      0.5580      2.1871
    21         H          0.3594      0.2048     -2.1871
    22         H          0.9801      1.8308     -1.4482
    23         H          2.5168     -0.5413     -1.9009

 General Reference for PM7:
 "Optimization of Parameters for Semiempirical Methods VI: More Modifications to the 
 NDDO Approximations and Re-optimization of Parameters", J. J. P. Stewart, J. Mol. Mod., 1:32, 19 (2013)
 https://link.springer.com/article/10.1007/s00894-012-1667-x

           Empirical Formula: C7 H14 O2  =    23 atoms



      MOLECULAR POINT GROUP   :   C1  


          UHF CALCULATION, NO. OF ALPHA ELECTRONS =   27
                           NO. OF BETA  ELECTRONS =   26
  SCF CRITERION =    0.1000E-07

 -------------------------------------------------------------------------------
 PM7 1SCF GRADIENTS EPS=37.5 DISP RELSCF=0.0001 CHARGE=1
 Title: ASE calculation



     1SCF WAS SPECIFIED, SO BFGS WAS NOT USED                 
     SCF FIELD WAS ACHIEVED                                   


                              PM7 CALCULATION
                                                       MOPAC v23.2 Linux
                                                       Fri Sep 19 21:30:50 2025




          FINAL HEAT OF FORMATION =         36.95999 KCAL/MOL =     154.64061 KJ/MOL

          TOTAL ENERGY            =     -37672.41918 KCAL/MOL = ELECTRONIC ENERGY + CORE-CORE REPULSION + SOLVATION ENERGY
          ENERGY OF ATOMS         =      37712.04263 KCAL/MOL
                              SUM =         39.62344 KCAL/MOL
          DISPERSION ENERGY       =         -2.66345 KCAL/MOL
                              SUM =         36.95999 KCAL/MOL = FINAL HEAT OF FORMATION

          VAN DER WAALS AREA      =        169.54 SQUARE ANGSTROMS


          TOTAL ENERGY            =      -1633.63071 EV
          ELECTRONIC ENERGY       =      -2699.03190 EV 
          CORE-CORE REPULSION     =       1065.40118 EV

          DIELECTRIC ENERGY       =         -2.18557 EV
          COSMO AREA              =        169.54 SQUARE ANGSTROMS
          COSMO VOLUME            =        178.59 CUBIC ANGSTROMS

          GRADIENT NORM           =          9.54055          =       1.98934 PER ATOM
          IONIZATION POTENTIAL    =          9.629174 EV
          ALPHA SOMO LUMO (EV)    =         -9.629 -0.976
          BETA  SOMO LUMO (EV)    =        -11.711 -1.995
          NO. OF ALPHA ELECTRONS  =         27
          NO. OF BETA  ELECTRONS  =         26
          MOLECULAR WEIGHT        =        130.1864         POINT GROUP:  C1  

          MOLECULAR DIMENSIONS (Angstroms)

            Atom       Atom       Distance
            H    23    H    11     5.93042
            H    16    H    22     5.08859
            H    20    H    15     4.82042


          SCF CALCULATIONS        =          2

          WALL-CLOCK TIME         =      1.344 SECONDS
          COMPUTATION TIME        =      0.830 SECONDS

          LARGEST ATOMIC GRADIENTS

          Atom     Label                     Cartesian Gradients           Cartesian Coordinates       |Gradient|
                                           X          Y          Z        X          Y          Z

             8       C                  -1.172     -2.283     -3.339    1.08208    0.76086   -1.61111      4.211
             6       C                   0.078     -3.097      1.987    0.47020    0.15744    0.32557      3.680
            23       H                  -0.032      3.004      0.802    2.51684   -0.54129   -1.90089      3.109
             1       C                   2.697     -1.060     -0.876   -1.46567    1.75156   -0.24006      3.028
             9       O                   2.086     -2.148      0.165    2.34602    0.39204   -1.55860      2.999
            21       H                   0.048      2.200      0.138    0.35943    0.20483   -2.18709      2.205
             5       O                  -0.211      1.775     -0.509    0.73040   -1.11513    0.04989      1.859
            11       H                  -1.531      0.991      0.273   -2.53572    1.93384   -0.02596      1.844
            19       H                   1.838     -0.008      0.062    2.53572    0.64053    0.81310      1.839
             7       C                  -1.483      0.623      0.069    1.48998    0.86011    1.11537      1.611



       FINAL  POINT  AND  DERIVATIVES

   PARAMETER     ATOM    TYPE            VALUE        GRADIENT
      1          1  C    CARTESIAN X    -1.465674      2.697398  KCAL/ANGSTROM
      2          1  C    CARTESIAN Y     1.751563     -1.059928  KCAL/ANGSTROM
      3          1  C    CARTESIAN Z    -0.240059     -0.875821  KCAL/ANGSTROM
      4          2  C    CARTESIAN X    -1.013322     -0.707095  KCAL/ANGSTROM
      5          2  C    CARTESIAN Y     0.436852     -0.041093  KCAL/ANGSTROM
      6          2  C    CARTESIAN Z     0.363771      0.682662  KCAL/ANGSTROM
      7          3  C    CARTESIAN X    -1.616908      0.772795  KCAL/ANGSTROM
      8          3  C    CARTESIAN Y    -0.807840      0.015717  KCAL/ANGSTROM
      9          3  C    CARTESIAN Z    -0.325757     -0.696830  KCAL/ANGSTROM
     10          4  C    CARTESIAN X    -0.490250      0.228674  KCAL/ANGSTROM
     11          4  C    CARTESIAN Y    -1.836240      0.021264  KCAL/ANGSTROM
     12          4  C    CARTESIAN Z    -0.309565     -0.872531  KCAL/ANGSTROM
     13          5  O    CARTESIAN X     0.730401     -0.211317  KCAL/ANGSTROM
     14          5  O    CARTESIAN Y    -1.115133      1.775215  KCAL/ANGSTROM
     15          5  O    CARTESIAN Z     0.049893     -0.509392  KCAL/ANGSTROM
     16          6  C    CARTESIAN X     0.470197      0.077588  KCAL/ANGSTROM
     17          6  C    CARTESIAN Y     0.157437     -3.096672  KCAL/ANGSTROM
     18          6  C    CARTESIAN Z     0.325572      1.986906  KCAL/ANGSTROM
     19          7  C    CARTESIAN X     1.489979     -1.483413  KCAL/ANGSTROM
     20          7  C    CARTESIAN Y     0.860110      0.623434  KCAL/ANGSTROM
     21          7  C    CARTESIAN Z     1.115371      0.069432  KCAL/ANGSTROM
     22          8  C    CARTESIAN X     1.082078     -1.172309  KCAL/ANGSTROM
     23          8  C    CARTESIAN Y     0.760862     -2.283176  KCAL/ANGSTROM
     24          8  C    CARTESIAN Z    -1.611113     -3.338656  KCAL/ANGSTROM
     25          9  O    CARTESIAN X     2.346018      2.085570  KCAL/ANGSTROM
     26          9  O    CARTESIAN Y     0.392037     -2.148283  KCAL/ANGSTROM
     27          9  O    CARTESIAN Z    -1.558598      0.164587  KCAL/ANGSTROM
     28         10  H    CARTESIAN X    -1.373302     -0.959359  KCAL/ANGSTROM
     29         10  H    CARTESIAN Y     1.792912      0.734222  KCAL/ANGSTROM
     30         10  H    CARTESIAN Z    -1.332114      0.249394  KCAL/ANGSTROM
     31         11  H    CARTESIAN X    -2.535715     -1.530702  KCAL/ANGSTROM
     32         11  H    CARTESIAN Y     1.933842      0.991077  KCAL/ANGSTROM
     33         11  H    CARTESIAN Z    -0.025963      0.272723  KCAL/ANGSTROM
     34         12  H    CARTESIAN X    -0.927908     -1.106727  KCAL/ANGSTROM
     35         12  H    CARTESIAN Y     2.614081      0.822925  KCAL/ANGSTROM
     36         12  H    CARTESIAN Z     0.180259      0.277548  KCAL/ANGSTROM
     37         13  H    CARTESIAN X    -1.313713     -0.358885  KCAL/ANGSTROM
     38         13  H    CARTESIAN Y     0.438716      0.531434  KCAL/ANGSTROM
     39         13  H    CARTESIAN Z     1.455949     -0.132916  KCAL/ANGSTROM
     40         14  H    CARTESIAN X    -2.522164     -1.247086  KCAL/ANGSTROM
     41         14  H    CARTESIAN Y    -1.167429     -0.067601  KCAL/ANGSTROM
     42         14  H    CARTESIAN Z     0.203435     -0.020538  KCAL/ANGSTROM
     43         15  H    CARTESIAN X    -1.964484     -0.568854  KCAL/ANGSTROM
     44         15  H    CARTESIAN Y    -0.583612     -0.120159  KCAL/ANGSTROM
     45         15  H    CARTESIAN Z    -1.351954      0.442129  KCAL/ANGSTROM
     46         16  H    CARTESIAN X    -0.587189      0.190364  KCAL/ANGSTROM
     47         16  H    CARTESIAN Y    -2.614081     -1.076584  KCAL/ANGSTROM
     48         16  H    CARTESIAN Z     0.472133      0.295342  KCAL/ANGSTROM
     49         17  H    CARTESIAN X    -0.270728     -0.211867  KCAL/ANGSTROM
     50         17  H    CARTESIAN Y    -2.309806     -0.677811  KCAL/ANGSTROM
     51         17  H    CARTESIAN Z    -1.280458      0.777217  KCAL/ANGSTROM
     52         18  H    CARTESIAN X     1.376601      0.527017  KCAL/ANGSTROM
     53         18  H    CARTESIAN Y     1.959924      0.498624  KCAL/ANGSTROM
     54         18  H    CARTESIAN Z     1.104282      0.296486  KCAL/ANGSTROM
     55         19  H    CARTESIAN X     2.535715      1.837737  KCAL/ANGSTROM
     56         19  H    CARTESIAN Y     0.640529     -0.008379  KCAL/ANGSTROM
     57         19  H    CARTESIAN Z     0.813097      0.062401  KCAL/ANGSTROM
     58         20  H    CARTESIAN X     1.438658      0.763937  KCAL/ANGSTROM
     59         20  H    CARTESIAN Y     0.558047     -0.238803  KCAL/ANGSTROM
     60         20  H    CARTESIAN Z     2.187085      0.802726  KCAL/ANGSTROM
     61         21  H    CARTESIAN X     0.359434      0.048146  KCAL/ANGSTROM
     62         21  H    CARTESIAN Y     0.204829      2.199689  KCAL/ANGSTROM
     63         21  H    CARTESIAN Z    -2.187085      0.137547  KCAL/ANGSTROM
     64         22  H    CARTESIAN X     0.980133      0.359935  KCAL/ANGSTROM
     65         22  H    CARTESIAN Y     1.830845     -0.399274  KCAL/ANGSTROM
     66         22  H    CARTESIAN Z    -1.448159     -0.872133  KCAL/ANGSTROM
     67         23  H    CARTESIAN X     2.516837     -0.031545  KCAL/ANGSTROM
     68         23  H    CARTESIAN Y    -0.541291      3.004161  KCAL/ANGSTROM
     69         23  H    CARTESIAN Z    -1.900892      0.801715  KCAL/ANGSTROM




   ATOM   CHEMICAL          X               Y               Z
  NUMBER   SYMBOL      (ANGSTROMS)     (ANGSTROMS)     (ANGSTROMS)

     1       C         -1.46567358  *   1.75156339  *  -0.24005881  *
     2       C         -1.01332156  *   0.43685198  *   0.36377058  *
     3       C         -1.61690831  *  -0.80784011  *  -0.32575733  *
     4       C         -0.49024973  *  -1.83623989  *  -0.30956508  *
     5       O          0.73040093  *  -1.11513302  *   0.04989286  *
     6       C          0.47019665  *   0.15743704  *   0.32557192  *
     7       C          1.48997946  *   0.86010957  *   1.11537140  *
     8       C          1.08207761  *   0.76086243  *  -1.61111313  *
     9       O          2.34601773  *   0.39203696  *  -1.55859822  *
    10       H         -1.37330211  *   1.79291188  *  -1.33211367  *
    11       H         -2.53571543  *   1.93384209  *  -0.02596316  *
    12       H         -0.92790772  *   2.61408097  *   0.18025946  *
    13       H         -1.31371283  *   0.43871590  *   1.45594931  *
    14       H         -2.52216374  *  -1.16742893  *   0.20343481  *
    15       H         -1.96448406  *  -0.58361226  *  -1.35195440  *
    16       H         -0.58718861  *  -2.61408097  *   0.47213319  *
    17       H         -0.27072787  *  -2.30980591  *  -1.28045821  *
    18       H          1.37660099  *   1.95992413  *   1.10428203  *
    19       H          2.53571543  *   0.64052865  *   0.81309705  *
    20       H          1.43865790  *   0.55804682  *   2.18708539  *
    21       H          0.35943363  *   0.20482907  *  -2.18708539  *
    22       H          0.98013341  *   1.83084524  *  -1.44815872  *
    23       H          2.51683687  *  -0.54129074  *  -1.90089224  *

                             CARTESIAN COORDINATES

   1    C       -1.465673582     1.751563392    -0.240058808
   2    C       -1.013321563     0.436851984     0.363770577
   3    C       -1.616908313    -0.807840108    -0.325757328
   4    C       -0.490249735    -1.836239886    -0.309565081
   5    O        0.730400927    -1.115133022     0.049892857
   6    C        0.470196651     0.157437043     0.325571916
   7    C        1.489979458     0.860109571     1.115371401
   8    C        1.082077610     0.760862433    -1.611113135
   9    O        2.346017728     0.392036964    -1.558598223
  10    H       -1.373302108     1.792911879    -1.332113665
  11    H       -2.535715427     1.933842091    -0.025963157
  12    H       -0.927907719     2.614080965     0.180259462
  13    H       -1.313712832     0.438715898     1.455949307
  14    H       -2.522163736    -1.167428930     0.203434807
  15    H       -1.964484061    -0.583612259    -1.351954405
  16    H       -0.587188610    -2.614080965     0.472133188
  17    H       -0.270727870    -2.309805910    -1.280458205
  18    H        1.376600986     1.959924135     1.104282028
  19    H        2.535715427     0.640528648     0.813097046
  20    H        1.438657896     0.558046819     2.187085385
  21    H        0.359433629     0.204829072    -2.187085385
  22    H        0.980133406     1.830845236    -1.448158724
  23    H        2.516836872    -0.541290744    -1.900892244


           Empirical Formula: C7 H14 O2  =    23 atoms



      MOLECULAR POINT GROUP   :   C1  


          ALPHA EIGENVALUES  
 -33.32178 -31.99784 -29.51184 -28.09471 -25.59996 -24.42130 -23.45302 -21.67066
 -20.16662 -19.25470 -17.96263 -17.30414 -16.83907 -16.16614 -15.78448 -15.51872
 -14.82375 -14.40015 -14.11245 -13.92817 -13.78991 -13.51278 -13.41087 -12.79688
 -12.62380 -11.91363  -9.62917  -0.97575   0.58158   1.79509   2.19830   2.39191
   3.15448   3.41459   3.59423   3.60868   4.43393   4.62288   4.68570   4.79879
   4.91855   4.99318   5.26574   5.26753   5.32959   5.34454   5.41001   5.93772
   6.08910   6.49180


           BETA EIGENVALUES 
 -32.92337 -31.33092 -29.27196 -28.02929 -25.53613 -24.08610 -23.40029 -21.62222
 -20.02404 -19.11103 -17.82345 -17.15224 -16.64275 -16.02319 -15.43491 -15.41721
 -14.76284 -14.15182 -13.94406 -13.77866 -13.54407 -13.33981 -13.25686 -12.71869
 -12.58988 -11.71100  -1.99517   0.38785   0.74639   2.10877   2.26358   2.44256
   3.21354   3.49741   3.61291   3.64657   4.54546   4.67805   4.73083   4.82895
   4.93203   5.00949   5.26847   5.32999   5.34640   5.41260   5.41479   5.93820
   6.09875   6.49241


              NET ATOMIC CHARGES AND DIPOLE CONTRIBUTIONS

  ATOM NO.   TYPE          CHARGE      No. of ELECS.   s-Pop       p-Pop       
    1          C          -0.456292        4.4563     1.05292     3.40337
    2          C          -0.164773        4.1648     1.07319     3.09158
    3          C          -0.333705        4.3337     1.07283     3.26087
    4          C          -0.051906        4.0519     1.11512     2.93679
    5          O          -0.283481        6.2835     1.86903     4.41445
    6          C           0.376127        3.6239     1.16920     2.45468
    7          C          -0.522051        4.5221     1.05734     3.46471
    8          C          -0.001687        4.0017     1.17288     2.82880
    9          O          -0.390173        6.3902     1.82887     4.56130
   10          H           0.165177        0.8348     0.83482
   11          H           0.177979        0.8220     0.82202
   12          H           0.170226        0.8298     0.82977
   13          H           0.208172        0.7918     0.79183
   14          H           0.187351        0.8126     0.81265
   15          H           0.180876        0.8191     0.81912
   16          H           0.176033        0.8240     0.82397
   17          H           0.175100        0.8249     0.82490
   18          H           0.208598        0.7914     0.79140
   19          H           0.213734        0.7863     0.78627
   20          H           0.222988        0.7770     0.77701
   21          H           0.165354        0.8346     0.83465
   22          H           0.185866        0.8141     0.81413
   23          H           0.390487        0.6095     0.60951
 DIPOLE           X         Y         Z       TOTAL
 POINT-CHG.    -1.231     0.079    -0.653     1.396
 HYBRID         0.681    -0.538    -0.213     0.893
 SUM           -0.550    -0.459    -0.866     1.124


          ATOMIC ORBITAL ELECTRON POPULATIONS

     Atom    s        px        py        pz   
    1  C   1.05292   1.19592   1.04102   1.16643
    2  C   1.07319   0.94387   1.00632   1.14139
    3  C   1.07283   1.08278   0.99699   1.18110
    4  C   1.11512   0.80151   0.97813   1.15715
    5  O   1.86903   1.42182   1.28517   1.70746
    6  C   1.16920   0.95831   0.77294   0.72342
    7  C   1.05734   1.13303   1.17810   1.15358
    8  C   1.17288   0.83136   1.08020   0.91724
    9  O   1.82887   1.34414   1.49032   1.72684
   10  H   0.83482
   11  H   0.82202
   12  H   0.82977
   13  H   0.79183
   14  H   0.81265
   15  H   0.81912
   16  H   0.82397
   17  H   0.82490
   18  H   0.79140
   19  H   0.78627
   20  H   0.77701
   21  H   0.83465
   22  H   0.81413
   23  H   0.60951


                    (SZ)    =    0.500000
                    (S**2)  =    0.756971


          ATOMIC ORBITAL SPIN POPULATIONS

    Atom   Total    s     px     py     pz   
         Atomic
    1  C  0.0025  0.000  0.000  0.001  0.001
    2  C  0.0054 -0.000  0.005 -0.001  0.002
    3  C  0.0003 -0.000  0.000  0.000  0.000
    4  C -0.0090 -0.001 -0.004 -0.002 -0.002
    5  O  0.1625  0.006  0.005  0.030  0.122
    6  C  0.1621  0.002  0.012  0.008  0.141
    7  C  0.0121  0.001 -0.001 -0.001  0.013
    8  C  0.4634  0.014  0.020  0.064  0.366
    9  O  0.1873  0.008  0.007  0.030  0.143
   10  H -0.0000 -0.000
   11  H -0.0002 -0.000
   12  H -0.0001 -0.000
   13  H  0.0103  0.010
   14  H -0.0002 -0.000
   15  H -0.0001 -0.000
   16  H  0.0042  0.004
   17  H  0.0010  0.001
   18  H -0.0000 -0.000
   19  H  0.0019  0.002
   20  H  0.0114  0.011
   21  H -0.0046 -0.005
   22  H -0.0016 -0.002
   23  H -0.0086 -0.009

 **********************
 *                    *
 * JOB ENDED NORMALLY *
 *                    *
 **********************



 TOTAL JOB TIME:             1.78 SECONDS

 == MOPAC DONE ==
