 *******************************************************************************
 **                                                                           **
 **                              MOPAC v23.2                                  **
 **                                                                           **
 *******************************************************************************
 **          Digital Object Identifier (DOI): 10.5281/zenodo.6511958          **
 **    Visit the DOI location for information on how to cite this program.    **
 *******************************************************************************

                              PM7 CALCULATION RESULTS

 *******************************************************************************
 *  CALCULATION DONE: (MAX THREADS = 40)             Fri Sep 19 21:31:57 2025  *
 *  PM7        - The PM7 Hamiltonian to be used
 *
 *
 *
 *                 CHARGE ON SYSTEM = +1
 *
 *
 *
 *  1SCF       - DO 1 SCF AND THEN STOP 
 *  T=         - A TIME OF 172800.0 SECONDS REQUESTED
 *  DUMP=N     - RESTART FILE WRITTEN EVERY 7200.0 SECONDS REQUESTED
 *  RELSCF     - DEFAULT SCF CRITERION MULTIPLIED BY 0.0001
 *              (DEFAULT SCF CRITERION = 0.00010)
 *  GRADIENTS  - ALL GRADIENTS TO BE PRINTED
 *  DISP       - PRINT DISPERSION AND HYDROGEN BOND ENERGIES
 *******************************************************************************
PM7 1SCF GRADIENTS DISP RELSCF=0.0001 CHARGE=1
 Title: ASE calculation

   ATOM   CHEMICAL          X               Y               Z
  NUMBER   SYMBOL      (ANGSTROMS)     (ANGSTROMS)     (ANGSTROMS)

     1       C          2.30601854  *  -0.94734528  *  -0.01795210  *
     2       C          1.05968705  *  -0.43448051  *   0.65765810  *
     3       O         -0.05675750  *  -1.10487776  *   0.05604122  *
     4       C         -1.04334588  *  -0.18281160  *  -0.43518968  *
     5       C         -2.35025986  *  -0.57339706  *   0.21868243  *
     6       C         -0.53810191  *   1.20904214  *  -0.11915266  *
     7       O         -0.37896692  *   1.41105382  *   1.28346895  *
     8       C          0.79480915  *   1.05216706  *   0.55332004  *
     9       H          2.43986168  *  -0.54241766  *  -1.03513813  *
    10       H          2.34277051  *  -2.04865314  *  -0.09593463  *
    11       H          3.21465126  *  -0.66162362  *   0.55266263  *
    12       H          0.98914301  *  -0.80774708  *   1.73471549  *
    13       H         -1.06077151  *  -0.40893926  *  -1.54630386  *
    14       H         -2.34183631  *  -0.41328782  *   1.31173764  *
    15       H         -2.63690647  *  -1.62139930  *   0.03219148  *
    16       H         -3.18286436  *   0.04852914  *  -0.17056471  *
    17       H         -0.87890521  *   2.06185413  *  -0.70829731  *
    18       H          1.62026713  *   1.76617652  *   0.54752582  *



          CARTESIAN COORDINATES 

    NO.       ATOM           X           Y           Z

     1         C          2.3060     -0.9473     -0.0180
     2         C          1.0597     -0.4345      0.6577
     3         O         -0.0568     -1.1049      0.0560
     4         C         -1.0433     -0.1828     -0.4352
     5         C         -2.3503     -0.5734      0.2187
     6         C         -0.5381      1.2090     -0.1192
     7         O         -0.3790      1.4111      1.2835
     8         C          0.7948      1.0522      0.5533
     9         H          2.4399     -0.5424     -1.0351
    10         H          2.3428     -2.0487     -0.0959
    11         H          3.2147     -0.6616      0.5527
    12         H          0.9891     -0.8077      1.7347
    13         H         -1.0608     -0.4089     -1.5463
    14         H         -2.3418     -0.4133      1.3117
    15         H         -2.6369     -1.6214      0.0322
    16         H         -3.1829      0.0485     -0.1706
    17         H         -0.8789      2.0619     -0.7083
    18         H          1.6203      1.7662      0.5475

 General Reference for PM7:
 "Optimization of Parameters for Semiempirical Methods VI: More Modifications to the 
 NDDO Approximations and Re-optimization of Parameters", J. J. P. Stewart, J. Mol. Mod., 1:32, 19 (2013)
 https://link.springer.com/article/10.1007/s00894-012-1667-x

           Empirical Formula: C6 H10 O2  =    18 atoms



      MOLECULAR POINT GROUP   :   C1  


          UHF CALCULATION, NO. OF ALPHA ELECTRONS =   23
                           NO. OF BETA  ELECTRONS =   22
  SCF CRITERION =    0.1000E-07

 -------------------------------------------------------------------------------
 PM7 1SCF GRADIENTS DISP RELSCF=0.0001 CHARGE=1
 Title: ASE calculation



     1SCF WAS SPECIFIED, SO BFGS WAS NOT USED                 
     SCF FIELD WAS ACHIEVED                                   


                              PM7 CALCULATION
                                                       MOPAC v23.2 Linux
                                                       Fri Sep 19 21:31:57 2025




          FINAL HEAT OF FORMATION =        151.89676 KCAL/MOL =     635.53603 KJ/MOL

          TOTAL ENERGY            =     -33490.46311 KCAL/MOL = ELECTRONIC ENERGY + CORE-CORE REPULSION
          ENERGY OF ATOMS         =      33643.72257 KCAL/MOL
                              SUM =        153.25946 KCAL/MOL
          DISPERSION ENERGY       =         -1.36271 KCAL/MOL
                              SUM =        151.89676 KCAL/MOL = FINAL HEAT OF FORMATION



          TOTAL ENERGY            =      -1452.28393 EV
          ELECTRONIC ENERGY       =      -6794.52394 EV 
          CORE-CORE REPULSION     =       5342.24000 EV
          COSMO AREA              =        148.87 SQUARE ANGSTROMS
          COSMO VOLUME            =        144.30 CUBIC ANGSTROMS

          GRADIENT NORM           =          1.37457          =       0.32399 PER ATOM
          IONIZATION POTENTIAL    =         15.440203 EV
          ALPHA SOMO LUMO (EV)    =        -15.465 -5.229
          BETA  SOMO LUMO (EV)    =        -15.440 -8.414
          NO. OF ALPHA ELECTRONS  =         23
          NO. OF BETA  ELECTRONS  =         22
          MOLECULAR WEIGHT        =        114.1438         POINT GROUP:  C1  

          MOLECULAR DIMENSIONS (Angstroms)

            Atom       Atom       Distance
            H    16    H    11     6.47731
            H    15    H    17     3.95514
            H    13    O     7     3.11065


          SCF CALCULATIONS        =          1

          WALL-CLOCK TIME         =      0.828 SECONDS
          COMPUTATION TIME        =      0.552 SECONDS

          LARGEST ATOMIC GRADIENTS

          Atom     Label                     Cartesian Gradients           Cartesian Coordinates       |Gradient|
                                           X          Y          Z        X          Y          Z

            15       H                   0.070      0.302     -0.332   -2.63691   -1.62140    0.03219      0.454
            18       H                  -0.002      0.425     -0.124    1.62027    1.76618    0.54753      0.443
            11       H                   0.414     -0.025      0.032    3.21465   -0.66162    0.55266      0.416
             5       C                  -0.347      0.179      0.040   -2.35026   -0.57340    0.21868      0.392
             6       C                   0.149     -0.346     -0.095   -0.53810    1.20904   -0.11915      0.388
             3       O                  -0.317     -0.125     -0.050   -0.05676   -1.10488    0.05604      0.345
            16       H                  -0.172      0.195      0.202   -3.18286    0.04853   -0.17056      0.329
             4       C                  -0.306     -0.059      0.104   -1.04335   -0.18281   -0.43519      0.328
            17       H                   0.021     -0.265      0.191   -0.87891    2.06185   -0.70830      0.328
             8       C                   0.110     -0.147      0.235    0.79481    1.05217    0.55332      0.298



       FINAL  POINT  AND  DERIVATIVES

   PARAMETER     ATOM    TYPE            VALUE        GRADIENT
      1          1  C    CARTESIAN X     2.306019      0.224588  KCAL/ANGSTROM
      2          1  C    CARTESIAN Y    -0.947345     -0.017282  KCAL/ANGSTROM
      3          1  C    CARTESIAN Z    -0.017952      0.082269  KCAL/ANGSTROM
      4          2  C    CARTESIAN X     1.059687      0.061635  KCAL/ANGSTROM
      5          2  C    CARTESIAN Y    -0.434481     -0.242956  KCAL/ANGSTROM
      6          2  C    CARTESIAN Z     0.657658      0.034400  KCAL/ANGSTROM
      7          3  O    CARTESIAN X    -0.056758     -0.317262  KCAL/ANGSTROM
      8          3  O    CARTESIAN Y    -1.104878     -0.124638  KCAL/ANGSTROM
      9          3  O    CARTESIAN Z     0.056041     -0.050078  KCAL/ANGSTROM
     10          4  C    CARTESIAN X    -1.043346     -0.305727  KCAL/ANGSTROM
     11          4  C    CARTESIAN Y    -0.182812     -0.058685  KCAL/ANGSTROM
     12          4  C    CARTESIAN Z    -0.435190      0.104331  KCAL/ANGSTROM
     13          5  C    CARTESIAN X    -2.350260     -0.346798  KCAL/ANGSTROM
     14          5  C    CARTESIAN Y    -0.573397      0.178657  KCAL/ANGSTROM
     15          5  C    CARTESIAN Z     0.218682      0.040500  KCAL/ANGSTROM
     16          6  C    CARTESIAN X    -0.538102      0.149114  KCAL/ANGSTROM
     17          6  C    CARTESIAN Y     1.209042     -0.345851  KCAL/ANGSTROM
     18          6  C    CARTESIAN Z    -0.119153     -0.094738  KCAL/ANGSTROM
     19          7  O    CARTESIAN X    -0.378967     -0.112442  KCAL/ANGSTROM
     20          7  O    CARTESIAN Y     1.411054     -0.006975  KCAL/ANGSTROM
     21          7  O    CARTESIAN Z     1.283469     -0.260073  KCAL/ANGSTROM
     22          8  C    CARTESIAN X     0.794809      0.109532  KCAL/ANGSTROM
     23          8  C    CARTESIAN Y     1.052167     -0.147118  KCAL/ANGSTROM
     24          8  C    CARTESIAN Z     0.553320      0.234973  KCAL/ANGSTROM
     25          9  H    CARTESIAN X     2.439862      0.130979  KCAL/ANGSTROM
     26          9  H    CARTESIAN Y    -0.542418      0.089597  KCAL/ANGSTROM
     27          9  H    CARTESIAN Z    -1.035138      0.016461  KCAL/ANGSTROM
     28         10  H    CARTESIAN X     2.342771      0.208489  KCAL/ANGSTROM
     29         10  H    CARTESIAN Y    -2.048653     -0.029348  KCAL/ANGSTROM
     30         10  H    CARTESIAN Z    -0.095935     -0.059183  KCAL/ANGSTROM
     31         11  H    CARTESIAN X     3.214651      0.413739  KCAL/ANGSTROM
     32         11  H    CARTESIAN Y    -0.661624     -0.024800  KCAL/ANGSTROM
     33         11  H    CARTESIAN Z     0.552663      0.031762  KCAL/ANGSTROM
     34         12  H    CARTESIAN X     0.989143      0.082748  KCAL/ANGSTROM
     35         12  H    CARTESIAN Y    -0.807747      0.258180  KCAL/ANGSTROM
     36         12  H    CARTESIAN Z     1.734715     -0.123775  KCAL/ANGSTROM
     37         13  H    CARTESIAN X    -1.060772     -0.084118  KCAL/ANGSTROM
     38         13  H    CARTESIAN Y    -0.408939     -0.061518  KCAL/ANGSTROM
     39         13  H    CARTESIAN Z    -1.546304      0.233561  KCAL/ANGSTROM
     40         14  H    CARTESIAN X    -2.341836     -0.132144  KCAL/ANGSTROM
     41         14  H    CARTESIAN Y    -0.413288     -0.123800  KCAL/ANGSTROM
     42         14  H    CARTESIAN Z     1.311738     -0.127865  KCAL/ANGSTROM
     43         15  H    CARTESIAN X    -2.636906      0.069938  KCAL/ANGSTROM
     44         15  H    CARTESIAN Y    -1.621399      0.301607  KCAL/ANGSTROM
     45         15  H    CARTESIAN Z     0.032191     -0.332282  KCAL/ANGSTROM
     46         16  H    CARTESIAN X    -3.182864     -0.171794  KCAL/ANGSTROM
     47         16  H    CARTESIAN Y     0.048529      0.194953  KCAL/ANGSTROM
     48         16  H    CARTESIAN Z    -0.170565      0.202228  KCAL/ANGSTROM
     49         17  H    CARTESIAN X    -0.878905      0.021138  KCAL/ANGSTROM
     50         17  H    CARTESIAN Y     2.061854     -0.265252  KCAL/ANGSTROM
     51         17  H    CARTESIAN Z    -0.708297      0.191150  KCAL/ANGSTROM
     52         18  H    CARTESIAN X     1.620267     -0.001619  KCAL/ANGSTROM
     53         18  H    CARTESIAN Y     1.766177      0.425225  KCAL/ANGSTROM
     54         18  H    CARTESIAN Z     0.547526     -0.123643  KCAL/ANGSTROM




   ATOM   CHEMICAL          X               Y               Z
  NUMBER   SYMBOL      (ANGSTROMS)     (ANGSTROMS)     (ANGSTROMS)

     1       C          2.30601854  *  -0.94734528  *  -0.01795210  *
     2       C          1.05968705  *  -0.43448051  *   0.65765810  *
     3       O         -0.05675750  *  -1.10487776  *   0.05604122  *
     4       C         -1.04334588  *  -0.18281160  *  -0.43518968  *
     5       C         -2.35025986  *  -0.57339706  *   0.21868243  *
     6       C         -0.53810191  *   1.20904214  *  -0.11915266  *
     7       O         -0.37896692  *   1.41105382  *   1.28346895  *
     8       C          0.79480915  *   1.05216706  *   0.55332004  *
     9       H          2.43986168  *  -0.54241766  *  -1.03513813  *
    10       H          2.34277051  *  -2.04865314  *  -0.09593463  *
    11       H          3.21465126  *  -0.66162362  *   0.55266263  *
    12       H          0.98914301  *  -0.80774708  *   1.73471549  *
    13       H         -1.06077151  *  -0.40893926  *  -1.54630386  *
    14       H         -2.34183631  *  -0.41328782  *   1.31173764  *
    15       H         -2.63690647  *  -1.62139930  *   0.03219148  *
    16       H         -3.18286436  *   0.04852914  *  -0.17056471  *
    17       H         -0.87890521  *   2.06185413  *  -0.70829731  *
    18       H          1.62026713  *   1.76617652  *   0.54752582  *

                             CARTESIAN COORDINATES

   1    C        2.306018539    -0.947345278    -0.017952102
   2    C        1.059687045    -0.434480510     0.657658102
   3    O       -0.056757502    -1.104877764     0.056041219
   4    C       -1.043345883    -0.182811598    -0.435189681
   5    C       -2.350259862    -0.573397060     0.218682426
   6    C       -0.538101906     1.209042137    -0.119152657
   7    O       -0.378966919     1.411053823     1.283468954
   8    C        0.794809151     1.052167058     0.553320043
   9    H        2.439861682    -0.542417663    -1.035138135
  10    H        2.342770507    -2.048653139    -0.095934632
  11    H        3.214651260    -0.661623622     0.552662630
  12    H        0.989143006    -0.807747079     1.734715488
  13    H       -1.060771509    -0.408939262    -1.546303856
  14    H       -2.341836314    -0.413287817     1.311737643
  15    H       -2.636906469    -1.621399299     0.032191476
  16    H       -3.182864362     0.048529139    -0.170564706
  17    H       -0.878905208     2.061854127    -0.708297313
  18    H        1.620267134     1.766176524     0.547525820


           Empirical Formula: C6 H10 O2  =    18 atoms



      MOLECULAR POINT GROUP   :   C1  


          ALPHA EIGENVALUES  
 -40.09707 -37.14124 -33.29865 -32.42335 -29.36516 -27.70585 -26.44750 -25.77108
 -23.28475 -22.85742 -21.33016 -20.92471 -20.42667 -20.05353 -19.57525 -18.63655
 -18.35903 -18.24178 -17.88365 -17.81790 -17.36132 -16.51939 -15.46549  -5.22851
  -3.51009  -2.78419  -2.73913  -2.19120  -1.97848  -1.55653  -1.40678  -1.14784
  -0.58172  -0.52057   0.67951   0.72757   0.76332   0.77572   0.87607   0.96510
   1.91846   2.06582


           BETA EIGENVALUES 
 -38.40555 -35.69858 -33.16849 -31.80423 -29.31153 -27.58663 -26.23585 -25.48393
 -22.91091 -22.07012 -21.18418 -20.58131 -19.94540 -19.85092 -19.21234 -18.52728
 -18.19073 -17.95708 -17.55626 -17.43807 -16.75763 -15.44020  -8.41373  -4.66169
  -3.36028  -2.74418  -2.57875  -2.16290  -1.91263  -1.51730  -1.30466  -1.14110
  -0.46604  -0.39446   0.67733   0.73463   0.76698   0.78294   0.88634   0.97533
   1.92040   2.06714


              NET ATOMIC CHARGES AND DIPOLE CONTRIBUTIONS

  ATOM NO.   TYPE          CHARGE      No. of ELECS.   s-Pop       p-Pop       
    1          C          -0.465906        4.4659     1.05804     3.40786
    2          C          -0.033654        4.0337     1.12737     2.90628
    3          O           0.182741        5.8173     1.90971     3.90754
    4          C          -0.035569        4.0356     1.12823     2.90734
    5          C          -0.454611        4.4546     1.05940     3.39521
    6          C          -0.038323        4.0383     1.10387     2.93445
    7          O          -0.240364        6.2404     1.92638     4.31398
    8          C          -0.041196        4.0412     1.10498     2.93622
    9          H           0.191713        0.8083     0.80829
   10          H           0.197798        0.8022     0.80220
   11          H           0.215098        0.7849     0.78490
   12          H           0.246722        0.7533     0.75328
   13          H           0.230280        0.7697     0.76972
   14          H           0.198957        0.8010     0.80104
   15          H           0.193951        0.8060     0.80605
   16          H           0.214471        0.7855     0.78553
   17          H           0.218171        0.7818     0.78183
   18          H           0.219722        0.7803     0.78028
 DIPOLE           X         Y         Z       TOTAL
 POINT-CHG.     1.073    -2.083    -2.536     3.452
 HYBRID        -0.263    -0.203     0.488     0.591
 SUM            0.810    -2.286    -2.047     3.174


          ATOMIC ORBITAL ELECTRON POPULATIONS

     Atom    s        px        py        pz   
    1  C   1.05804   1.03330   1.20046   1.17411
    2  C   1.12737   0.87050   0.99481   1.04097
    3  O   1.90971   1.25689   1.41378   1.23687
    4  C   1.12823   0.90426   0.93556   1.06752
    5  C   1.05940   1.00334   1.21131   1.18056
    6  C   1.10387   0.99264   1.02969   0.91213
    7  O   1.92638   1.27769   1.89550   1.14080
    8  C   1.10498   0.94340   0.98784   1.00498
    9  H   0.80829
   10  H   0.80220
   11  H   0.78490
   12  H   0.75328
   13  H   0.76972
   14  H   0.80104
   15  H   0.80605
   16  H   0.78553
   17  H   0.78183
   18  H   0.78028


                    (SZ)    =    0.500000
                    (S**2)  =    0.758763


          ATOMIC ORBITAL SPIN POPULATIONS

    Atom   Total    s     px     py     pz   
         Atomic
    1  C  0.0457  0.005  0.029  0.001  0.011
    2  C -0.0268 -0.006 -0.026 -0.007  0.013
    3  O  0.8497  0.017  0.181  0.040  0.612
    4  C -0.0303 -0.007 -0.024 -0.015  0.015
    5  C  0.0500  0.005  0.032  0.001  0.011
    6  C  0.0014  0.001  0.000  0.001 -0.001
    7  O  0.0080 -0.000  0.000  0.003  0.005
    8  C  0.0013 -0.000  0.000  0.001  0.000
    9  H  0.0011  0.001
   10  H -0.0014 -0.001
   11  H -0.0021 -0.002
   12  H  0.0580  0.058
   13  H  0.0509  0.051
   14  H -0.0003 -0.000
   15  H -0.0016 -0.002
   16  H -0.0015 -0.002
   17  H -0.0011 -0.001
   18  H -0.0010 -0.001

 **********************
 *                    *
 * JOB ENDED NORMALLY *
 *                    *
 **********************



 TOTAL JOB TIME:             1.31 SECONDS

 == MOPAC DONE ==
