 *******************************************************************************
 **                                                                           **
 **                              MOPAC v23.2                                  **
 **                                                                           **
 *******************************************************************************
 **          Digital Object Identifier (DOI): 10.5281/zenodo.6511958          **
 **    Visit the DOI location for information on how to cite this program.    **
 *******************************************************************************

                              PM7 CALCULATION RESULTS

 *******************************************************************************
 *  CALCULATION DONE: (MAX THREADS = 40)             Fri Sep 19 22:06:12 2025  *
 *  PM7        - The PM7 Hamiltonian to be used
 *
 *
 *
 *                 CHARGE ON SYSTEM = +1
 *
 *
 *
 *  1SCF       - DO 1 SCF AND THEN STOP 
 *  T=         - A TIME OF 172800.0 SECONDS REQUESTED
 *  DUMP=N     - RESTART FILE WRITTEN EVERY 7200.0 SECONDS REQUESTED
 *  RELSCF     - DEFAULT SCF CRITERION MULTIPLIED BY 0.0001
 *              (DEFAULT SCF CRITERION = 0.00010)
 *  GRADIENTS  - ALL GRADIENTS TO BE PRINTED
 *  DISP       - PRINT DISPERSION AND HYDROGEN BOND ENERGIES
 *******************************************************************************
PM7 1SCF GRADIENTS DISP RELSCF=0.0001 CHARGE=1
 Title: ASE calculation

   ATOM   CHEMICAL          X               Y               Z
  NUMBER   SYMBOL      (ANGSTROMS)     (ANGSTROMS)     (ANGSTROMS)

     1       C         -3.44372766  *  -0.95188573  *  -0.66031713  *
     2       C         -2.46827588  *   0.16315224  *  -0.25560620  *
     3       C         -2.74401991  *   0.68650967  *   1.15994159  *
     4       C         -1.13049144  *  -0.23801834  *  -0.41429435  *
     5       C          0.11116929  *  -0.62777711  *  -0.56665305  *
     6       C          1.42240632  *  -1.03600958  *  -0.73079707  *
     7       C          2.41644669  *  -0.49927264  *   0.29819441  *
     8       C          3.75583199  *  -0.21771222  *  -0.36777776  *
     9       O          3.85206583  *  -0.31140853  *  -1.56373425  *
    10       H         -3.23531187  *  -1.35993012  *  -1.65797954  *
    11       H         -4.48111049  *  -0.57784114  *  -0.68029702  *
    12       H         -3.42866062  *  -1.78721470  *   0.05497593  *
    13       H         -2.65262907  *   1.04592309  *  -0.98343059  *
    14       H         -2.61375012  *  -0.09579026  *   1.92126052  *
    15       H         -2.09934450  *   1.53039127  *   1.43778890  *
    16       H         -3.78639265  *   1.03803296  *   1.25099776  *
    17       H          1.80095534  *  -0.77021704  *  -1.80640096  *
    18       H          1.53050187  *  -2.16156793  *  -0.86644695  *
    19       H          2.05475164  *   0.42986043  *   0.78803273  *
    20       H          2.55026701  *  -1.22530469  *   1.13149185  *
    21       H          4.59222631  *   0.07035032  *   0.27893620  *



          CARTESIAN COORDINATES 

    NO.       ATOM           X           Y           Z

     1         C         -3.4437     -0.9519     -0.6603
     2         C         -2.4683      0.1632     -0.2556
     3         C         -2.7440      0.6865      1.1599
     4         C         -1.1305     -0.2380     -0.4143
     5         C          0.1112     -0.6278     -0.5667
     6         C          1.4224     -1.0360     -0.7308
     7         C          2.4164     -0.4993      0.2982
     8         C          3.7558     -0.2177     -0.3678
     9         O          3.8521     -0.3114     -1.5637
    10         H         -3.2353     -1.3599     -1.6580
    11         H         -4.4811     -0.5778     -0.6803
    12         H         -3.4287     -1.7872      0.0550
    13         H         -2.6526      1.0459     -0.9834
    14         H         -2.6138     -0.0958      1.9213
    15         H         -2.0993      1.5304      1.4378
    16         H         -3.7864      1.0380      1.2510
    17         H          1.8010     -0.7702     -1.8064
    18         H          1.5305     -2.1616     -0.8664
    19         H          2.0548      0.4299      0.7880
    20         H          2.5503     -1.2253      1.1315
    21         H          4.5922      0.0704      0.2789

 General Reference for PM7:
 "Optimization of Parameters for Semiempirical Methods VI: More Modifications to the 
 NDDO Approximations and Re-optimization of Parameters", J. J. P. Stewart, J. Mol. Mod., 1:32, 19 (2013)
 https://link.springer.com/article/10.1007/s00894-012-1667-x

           Empirical Formula: C8 H12 O  =    21 atoms



      MOLECULAR POINT GROUP   :   C1  


          UHF CALCULATION, NO. OF ALPHA ELECTRONS =   25
                           NO. OF BETA  ELECTRONS =   24
  SCF CRITERION =    0.1000E-07

 -------------------------------------------------------------------------------
 PM7 1SCF GRADIENTS DISP RELSCF=0.0001 CHARGE=1
 Title: ASE calculation



     1SCF WAS SPECIFIED, SO BFGS WAS NOT USED                 
     SCF FIELD WAS ACHIEVED                                   


                              PM7 CALCULATION
                                                       MOPAC v23.2 Linux
                                                       Fri Sep 19 22:06:12 2025




          FINAL HEAT OF FORMATION =        200.21724 KCAL/MOL =     837.70891 KJ/MOL

          TOTAL ENERGY            =     -32966.49238 KCAL/MOL = ELECTRONIC ENERGY + CORE-CORE REPULSION
          ENERGY OF ATOMS         =      33167.45855 KCAL/MOL
                              SUM =        200.96617 KCAL/MOL
          DISPERSION ENERGY       =         -1.65218 KCAL/MOL
                              SUM =        199.31398 KCAL/MOL = FINAL HEAT OF FORMATION

     *    WARNING - An energy term is incorrect or missing!

     *    FINAL HEAT OF FORMATION     =    200.21724 KCAL/MOL
     *    SUM OF CONTRIBUTIONS TO HoF =    199.31398 KCAL/MOL
     *                     DIFFERENCE =      0.90325 KCAL/MOL



          TOTAL ENERGY            =      -1429.56241 EV
          ELECTRONIC ENERGY       =      -6630.07481 EV 
          CORE-CORE REPULSION     =       5200.51240 EV
          COSMO AREA              =        189.32 SQUARE ANGSTROMS
          COSMO VOLUME            =        179.24 CUBIC ANGSTROMS

          GRADIENT NORM           =          0.96661          =       0.21093 PER ATOM
          IONIZATION POTENTIAL    =         13.976967 EV
          ALPHA SOMO LUMO (EV)    =        -13.986 -5.256
          BETA  SOMO LUMO (EV)    =        -13.977 -8.156
          NO. OF ALPHA ELECTRONS  =         25
          NO. OF BETA  ELECTRONS  =         24
          MOLECULAR WEIGHT        =        124.1822         POINT GROUP:  C1  

          MOLECULAR DIMENSIONS (Angstroms)

            Atom       Atom       Distance
            H    21    H    11     9.14690
            H    15    H    18     4.74574
            O     9    H    14     3.06214


          SCF CALCULATIONS        =          1

          WALL-CLOCK TIME         =      0.445 SECONDS
          COMPUTATION TIME        =      1.913 SECONDS

          LARGEST ATOMIC GRADIENTS

          Atom     Label                     Cartesian Gradients           Cartesian Coordinates       |Gradient|
                                           X          Y          Z        X          Y          Z

             5       C                   0.302      0.205     -0.110    0.11117   -0.62778   -0.56665      0.381
            15       H                  -0.088     -0.132      0.268   -2.09934    1.53039    1.43779      0.311
             9       O                   0.021     -0.173     -0.243    3.85207   -0.31141   -1.56373      0.299
             3       C                   0.053      0.012     -0.258   -2.74402    0.68651    1.15994      0.263
            20       H                  -0.115     -0.209      0.075    2.55027   -1.22530    1.13149      0.250
            21       H                  -0.030      0.105      0.225    4.59223    0.07035    0.27894      0.250
            14       H                   0.177      0.055      0.118   -2.61375   -0.09579    1.92126      0.219
            12       H                  -0.012     -0.006      0.208   -3.42866   -1.78721    0.05498      0.209
            13       H                  -0.170      0.017     -0.120   -2.65263    1.04592   -0.98343      0.208
            17       H                  -0.078     -0.065     -0.159    1.80096   -0.77022   -1.80640      0.189



       FINAL  POINT  AND  DERIVATIVES

   PARAMETER     ATOM    TYPE            VALUE        GRADIENT
      1          1  C    CARTESIAN X    -3.443728     -0.058873  KCAL/ANGSTROM
      2          1  C    CARTESIAN Y    -0.951886      0.063516  KCAL/ANGSTROM
      3          1  C    CARTESIAN Z    -0.660317     -0.074399  KCAL/ANGSTROM
      4          2  C    CARTESIAN X    -2.468276      0.128460  KCAL/ANGSTROM
      5          2  C    CARTESIAN Y     0.163152      0.020308  KCAL/ANGSTROM
      6          2  C    CARTESIAN Z    -0.255606     -0.107509  KCAL/ANGSTROM
      7          3  C    CARTESIAN X    -2.744020      0.052835  KCAL/ANGSTROM
      8          3  C    CARTESIAN Y     0.686510      0.011707  KCAL/ANGSTROM
      9          3  C    CARTESIAN Z     1.159942     -0.257592  KCAL/ANGSTROM
     10          4  C    CARTESIAN X    -1.130491     -0.107931  KCAL/ANGSTROM
     11          4  C    CARTESIAN Y    -0.238018     -0.022652  KCAL/ANGSTROM
     12          4  C    CARTESIAN Z    -0.414294      0.027622  KCAL/ANGSTROM
     13          5  C    CARTESIAN X     0.111169      0.302287  KCAL/ANGSTROM
     14          5  C    CARTESIAN Y    -0.627777      0.204555  KCAL/ANGSTROM
     15          5  C    CARTESIAN Z    -0.566653     -0.109842  KCAL/ANGSTROM
     16          6  C    CARTESIAN X     1.422406     -0.045049  KCAL/ANGSTROM
     17          6  C    CARTESIAN Y    -1.036010      0.013484  KCAL/ANGSTROM
     18          6  C    CARTESIAN Z    -0.730797      0.121670  KCAL/ANGSTROM
     19          7  C    CARTESIAN X     2.416447     -0.012980  KCAL/ANGSTROM
     20          7  C    CARTESIAN Y    -0.499273      0.027662  KCAL/ANGSTROM
     21          7  C    CARTESIAN Z     0.298194     -0.127382  KCAL/ANGSTROM
     22          8  C    CARTESIAN X     3.755832     -0.039960  KCAL/ANGSTROM
     23          8  C    CARTESIAN Y    -0.217712      0.106888  KCAL/ANGSTROM
     24          8  C    CARTESIAN Z    -0.367778     -0.123610  KCAL/ANGSTROM
     25          9  O    CARTESIAN X     3.852066      0.020650  KCAL/ANGSTROM
     26          9  O    CARTESIAN Y    -0.311409     -0.172996  KCAL/ANGSTROM
     27          9  O    CARTESIAN Z    -1.563734     -0.242715  KCAL/ANGSTROM
     28         10  H    CARTESIAN X    -3.235312      0.063413  KCAL/ANGSTROM
     29         10  H    CARTESIAN Y    -1.359930      0.059694  KCAL/ANGSTROM
     30         10  H    CARTESIAN Z    -1.657980      0.092317  KCAL/ANGSTROM
     31         11  H    CARTESIAN X    -4.481110      0.145310  KCAL/ANGSTROM
     32         11  H    CARTESIAN Y    -0.577841      0.024031  KCAL/ANGSTROM
     33         11  H    CARTESIAN Z    -0.680297     -0.090488  KCAL/ANGSTROM
     34         12  H    CARTESIAN X    -3.428661     -0.012443  KCAL/ANGSTROM
     35         12  H    CARTESIAN Y    -1.787215     -0.006143  KCAL/ANGSTROM
     36         12  H    CARTESIAN Z     0.054976      0.208162  KCAL/ANGSTROM
     37         13  H    CARTESIAN X    -2.652629     -0.169722  KCAL/ANGSTROM
     38         13  H    CARTESIAN Y     1.045923      0.016576  KCAL/ANGSTROM
     39         13  H    CARTESIAN Z    -0.983431     -0.119881  KCAL/ANGSTROM
     40         14  H    CARTESIAN X    -2.613750      0.176560  KCAL/ANGSTROM
     41         14  H    CARTESIAN Y    -0.095790      0.055228  KCAL/ANGSTROM
     42         14  H    CARTESIAN Z     1.921261      0.117759  KCAL/ANGSTROM
     43         15  H    CARTESIAN X    -2.099344     -0.087880  KCAL/ANGSTROM
     44         15  H    CARTESIAN Y     1.530391     -0.131704  KCAL/ANGSTROM
     45         15  H    CARTESIAN Z     1.437789      0.267969  KCAL/ANGSTROM
     46         16  H    CARTESIAN X    -3.786393     -0.134084  KCAL/ANGSTROM
     47         16  H    CARTESIAN Y     1.038033     -0.111515  KCAL/ANGSTROM
     48         16  H    CARTESIAN Z     1.250998     -0.019432  KCAL/ANGSTROM
     49         17  H    CARTESIAN X     1.800955     -0.078492  KCAL/ANGSTROM
     50         17  H    CARTESIAN Y    -0.770217     -0.064952  KCAL/ANGSTROM
     51         17  H    CARTESIAN Z    -1.806401     -0.158834  KCAL/ANGSTROM
     52         18  H    CARTESIAN X     1.530502      0.000411  KCAL/ANGSTROM
     53         18  H    CARTESIAN Y    -2.161568      0.018806  KCAL/ANGSTROM
     54         18  H    CARTESIAN Z    -0.866447      0.141967  KCAL/ANGSTROM
     55         19  H    CARTESIAN X     2.054752      0.001865  KCAL/ANGSTROM
     56         19  H    CARTESIAN Y     0.429860     -0.008050  KCAL/ANGSTROM
     57         19  H    CARTESIAN Z     0.788033      0.154031  KCAL/ANGSTROM
     58         20  H    CARTESIAN X     2.550267     -0.114766  KCAL/ANGSTROM
     59         20  H    CARTESIAN Y    -1.225305     -0.209068  KCAL/ANGSTROM
     60         20  H    CARTESIAN Z     1.131492      0.075237  KCAL/ANGSTROM
     61         21  H    CARTESIAN X     4.592226     -0.029621  KCAL/ANGSTROM
     62         21  H    CARTESIAN Y     0.070350      0.104622  KCAL/ANGSTROM
     63         21  H    CARTESIAN Z     0.278936      0.224944  KCAL/ANGSTROM




   ATOM   CHEMICAL          X               Y               Z
  NUMBER   SYMBOL      (ANGSTROMS)     (ANGSTROMS)     (ANGSTROMS)

     1       C         -3.44372766  *  -0.95188573  *  -0.66031713  *
     2       C         -2.46827588  *   0.16315224  *  -0.25560620  *
     3       C         -2.74401991  *   0.68650967  *   1.15994159  *
     4       C         -1.13049144  *  -0.23801834  *  -0.41429435  *
     5       C          0.11116929  *  -0.62777711  *  -0.56665305  *
     6       C          1.42240632  *  -1.03600958  *  -0.73079707  *
     7       C          2.41644669  *  -0.49927264  *   0.29819441  *
     8       C          3.75583199  *  -0.21771222  *  -0.36777776  *
     9       O          3.85206583  *  -0.31140853  *  -1.56373425  *
    10       H         -3.23531187  *  -1.35993012  *  -1.65797954  *
    11       H         -4.48111049  *  -0.57784114  *  -0.68029702  *
    12       H         -3.42866062  *  -1.78721470  *   0.05497593  *
    13       H         -2.65262907  *   1.04592309  *  -0.98343059  *
    14       H         -2.61375012  *  -0.09579026  *   1.92126052  *
    15       H         -2.09934450  *   1.53039127  *   1.43778890  *
    16       H         -3.78639265  *   1.03803296  *   1.25099776  *
    17       H          1.80095534  *  -0.77021704  *  -1.80640096  *
    18       H          1.53050187  *  -2.16156793  *  -0.86644695  *
    19       H          2.05475164  *   0.42986043  *   0.78803273  *
    20       H          2.55026701  *  -1.22530469  *   1.13149185  *
    21       H          4.59222631  *   0.07035032  *   0.27893620  *

                             CARTESIAN COORDINATES

   1    C       -3.443727656    -0.951885726    -0.660317134
   2    C       -2.468275884     0.163152243    -0.255606197
   3    C       -2.744019911     0.686509674     1.159941588
   4    C       -1.130491442    -0.238018337    -0.414294354
   5    C        0.111169286    -0.627777113    -0.566653048
   6    C        1.422406319    -1.036009579    -0.730797066
   7    C        2.416446692    -0.499272639     0.298194413
   8    C        3.755831993    -0.217712217    -0.367777762
   9    O        3.852065834    -0.311408529    -1.563734246
  10    H       -3.235311872    -1.359930116    -1.657979539
  11    H       -4.481110492    -0.577841141    -0.680297017
  12    H       -3.428660618    -1.787214703     0.054975931
  13    H       -2.652629067     1.045923094    -0.983430585
  14    H       -2.613750122    -0.095790262     1.921260523
  15    H       -2.099344497     1.530391265     1.437788896
  16    H       -3.786392648     1.038032963     1.250997757
  17    H        1.800955345    -0.770217044    -1.806400959
  18    H        1.530501868    -2.161567928    -0.866446952
  19    H        2.054751641     0.429860426     0.788032730
  20    H        2.550267012    -1.225304689     1.131491852
  21    H        4.592226314     0.070350316     0.278936200


           Empirical Formula: C8 H12 O  =    21 atoms



      MOLECULAR POINT GROUP   :   C1  


          ALPHA EIGENVALUES  
 -35.16449 -34.19371 -33.30579 -30.72231 -28.45815 -28.30070 -25.84836 -24.05079
 -22.48627 -21.48508 -20.91536 -20.12469 -19.67611 -19.06406 -18.74186 -18.36349
 -17.65671 -17.43842 -17.19637 -16.86399 -16.81634 -16.49932 -15.63022 -15.30337
 -13.98648  -5.25552  -4.96062  -2.94463  -2.09833  -1.19055  -0.86328  -0.71025
  -0.61673  -0.44760  -0.27165  -0.19716   0.58201   0.78195   1.02999   1.19914
   1.62671   1.67456   1.69192   1.69471   1.70220   1.89518   2.76434   2.86023


           BETA EIGENVALUES 
 -35.13804 -34.07076 -33.21184 -30.50056 -28.36608 -28.28675 -25.73091 -24.01382
 -22.33255 -21.21486 -20.70187 -19.94591 -19.58614 -18.95894 -18.68135 -18.05756
 -17.46076 -17.39924 -17.08697 -16.80135 -16.62300 -16.23909 -15.47837 -13.97697
  -8.15554  -4.78233  -4.06989  -2.94254  -1.96772  -1.14154  -0.73944  -0.67050
  -0.54086  -0.33643  -0.13017  -0.04088   0.67742   0.84699   1.04457   1.21127
   1.63329   1.68031   1.69664   1.69919   1.70557   1.89878   2.76597   2.86170


              NET ATOMIC CHARGES AND DIPOLE CONTRIBUTIONS

  ATOM NO.   TYPE          CHARGE      No. of ELECS.   s-Pop       p-Pop       
    1          C          -0.430227        4.4302     1.05752     3.37271
    2          C          -0.096470        4.0965     1.05021     3.04626
    3          C          -0.433125        4.4331     1.05700     3.37613
    4          C           0.162574        3.8374     1.17647     2.66096
    5          C           0.117186        3.8828     1.14878     2.73404
    6          C          -0.280571        4.2806     1.04690     3.23367
    7          C          -0.385303        4.3853     1.07753     3.30777
    8          C           0.357903        3.6421     1.14948     2.49262
    9          O          -0.409094        6.4091     1.87788     4.53121
   10          H           0.168884        0.8311     0.83112
   11          H           0.189066        0.8109     0.81093
   12          H           0.174824        0.8252     0.82518
   13          H           0.245132        0.7549     0.75487
   14          H           0.172541        0.8275     0.82746
   15          H           0.167601        0.8324     0.83240
   16          H           0.191108        0.8089     0.80889
   17          H           0.303471        0.6965     0.69653
   18          H           0.253356        0.7466     0.74664
   19          H           0.185305        0.8147     0.81470
   20          H           0.194028        0.8060     0.80597
   21          H           0.151812        0.8482     0.84819
 DIPOLE           X         Y         Z       TOTAL
 POINT-CHG.    -3.376    -0.164     2.044     3.950
 HYBRID        -0.104    -0.103    -0.349     0.379
 SUM           -3.480    -0.267     1.695     3.880


          ATOMIC ORBITAL ELECTRON POPULATIONS

     Atom    s        px        py        pz   
    1  C   1.05752   1.11141   1.07654   1.18477
    2  C   1.05021   0.91074   1.06948   1.06604
    3  C   1.05700   1.21086   1.17594   0.98933
    4  C   1.17647   0.97118   0.83475   0.85503
    5  C   1.14878   0.96643   0.87101   0.89660
    6  C   1.04690   0.95293   1.14951   1.13123
    7  C   1.07753   1.05396   1.17808   1.07574
    8  C   1.14948   0.92903   0.68889   0.87470
    9  O   1.87788   1.86172   1.40264   1.26685
   10  H   0.83112
   11  H   0.81093
   12  H   0.82518
   13  H   0.75487
   14  H   0.82746
   15  H   0.83240
   16  H   0.80889
   17  H   0.69653
   18  H   0.74664
   19  H   0.81470
   20  H   0.80597
   21  H   0.84819


                    (SZ)    =    0.500000
                    (S**2)  =    0.755417


          ATOMIC ORBITAL SPIN POPULATIONS

    Atom   Total    s     px     py     pz   
         Atomic
    1  C  0.0188  0.002  0.007  0.010 -0.000
    2  C  0.0116 -0.004 -0.012  0.013  0.014
    3  C  0.0167  0.002  0.002 -0.000  0.013
    4  C  0.4153  0.008  0.012  0.210  0.185
    5  C  0.3079  0.004  0.009  0.155  0.140
    6  C  0.0554 -0.003 -0.005  0.035  0.028
    7  C -0.0009 -0.001 -0.000 -0.000  0.000
    8  C  0.0001  0.000  0.000 -0.000  0.000
    9  O  0.0034  0.000  0.002  0.001  0.000
   10  H -0.0002 -0.000
   11  H -0.0009 -0.001
   12  H  0.0014  0.001
   13  H  0.0635  0.063
   14  H  0.0012  0.001
   15  H -0.0001 -0.000
   16  H -0.0007 -0.001
   17  H  0.0637  0.064
   18  H  0.0400  0.040
   19  H  0.0004  0.000
   20  H  0.0034  0.003
   21  H -0.0001 -0.000

 **********************
 *                    *
 * JOB ENDED NORMALLY *
 *                    *
 **********************



 TOTAL JOB TIME:             0.69 SECONDS

 == MOPAC DONE ==
