 *******************************************************************************
 **                                                                           **
 **                              MOPAC v23.2                                  **
 **                                                                           **
 *******************************************************************************
 **          Digital Object Identifier (DOI): 10.5281/zenodo.6511958          **
 **    Visit the DOI location for information on how to cite this program.    **
 *******************************************************************************

                              PM7 CALCULATION RESULTS

 *******************************************************************************
 *  CALCULATION DONE: (MAX THREADS = 40)             Fri Sep 19 21:30:04 2025  *
 *  PM7        - The PM7 Hamiltonian to be used
 *
 *
 *
 *                 CHARGE ON SYSTEM = +1
 *
 *
 *
 *  1SCF       - DO 1 SCF AND THEN STOP 
 *  T=         - A TIME OF 172800.0 SECONDS REQUESTED
 *  DUMP=N     - RESTART FILE WRITTEN EVERY 7200.0 SECONDS REQUESTED
 *  RELSCF     - DEFAULT SCF CRITERION MULTIPLIED BY 0.0001
 *              (DEFAULT SCF CRITERION = 0.00010)
 *  GRADIENTS  - ALL GRADIENTS TO BE PRINTED
 *  DISP       - PRINT DISPERSION AND HYDROGEN BOND ENERGIES
 *******************************************************************************
PM7 1SCF GRADIENTS DISP RELSCF=0.0001 CHARGE=1
 Title: ASE calculation

   ATOM   CHEMICAL          X               Y               Z
  NUMBER   SYMBOL      (ANGSTROMS)     (ANGSTROMS)     (ANGSTROMS)

     1       O         -1.75022445  *  -2.60801172  *  -0.47547069  *
     2       C         -1.21537719  *  -1.45565260  *  -0.33599014  *
     3       C         -1.86710157  *  -0.26016386  *  -0.93748653  *
     4       O         -1.02882729  *   0.85574267  *  -0.59017407  *
     5       C          0.01990248  *   0.41035700  *   0.14980650  *
     6       C          0.85874839  *   1.40626206  *   0.78002631  *
     7       C          2.35025029  *   1.29026468  *   0.72526900  *
     8       O          1.61621393  *   0.89463600  *   1.88472408  *
     9       C          0.01507194  *  -1.06344032  *   0.36396784  *
    10       H         -1.26299713  *  -3.40441765  *  -0.03590663  *
    11       H         -2.89166168  *  -0.03517940  *  -0.54599310  *
    12       H         -1.93718129  *  -0.27336648  *  -2.05489021  *
    13       H          0.39438907  *   2.39504167  *   0.94366164  *
    14       H          2.83966180  *   0.48690438  *   0.18158966  *
    15       H          2.97418401  *   2.17934019  *   0.84869911  *
    16       H          0.95580477  *  -1.54527529  *  -0.01953927  *
    17       H          0.05320690  *  -1.31558319  *   1.46373620  *



          CARTESIAN COORDINATES 

    NO.       ATOM           X           Y           Z

     1         O         -1.7502     -2.6080     -0.4755
     2         C         -1.2154     -1.4557     -0.3360
     3         C         -1.8671     -0.2602     -0.9375
     4         O         -1.0288      0.8557     -0.5902
     5         C          0.0199      0.4104      0.1498
     6         C          0.8587      1.4063      0.7800
     7         C          2.3503      1.2903      0.7253
     8         O          1.6162      0.8946      1.8847
     9         C          0.0151     -1.0634      0.3640
    10         H         -1.2630     -3.4044     -0.0359
    11         H         -2.8917     -0.0352     -0.5460
    12         H         -1.9372     -0.2734     -2.0549
    13         H          0.3944      2.3950      0.9437
    14         H          2.8397      0.4869      0.1816
    15         H          2.9742      2.1793      0.8487
    16         H          0.9558     -1.5453     -0.0195
    17         H          0.0532     -1.3156      1.4637

 General Reference for PM7:
 "Optimization of Parameters for Semiempirical Methods VI: More Modifications to the 
 NDDO Approximations and Re-optimization of Parameters", J. J. P. Stewart, J. Mol. Mod., 1:32, 19 (2013)
 https://link.springer.com/article/10.1007/s00894-012-1667-x

           Empirical Formula: C6 H8 O3  =    17 atoms



      MOLECULAR POINT GROUP   :   C1  


          UHF CALCULATION, NO. OF ALPHA ELECTRONS =   25
                           NO. OF BETA  ELECTRONS =   24
  SCF CRITERION =    0.1000E-07

 -------------------------------------------------------------------------------
 PM7 1SCF GRADIENTS DISP RELSCF=0.0001 CHARGE=1
 Title: ASE calculation



     1SCF WAS SPECIFIED, SO BFGS WAS NOT USED                 
     SCF FIELD WAS ACHIEVED                                   


                              PM7 CALCULATION
                                                       MOPAC v23.2 Linux
                                                       Fri Sep 19 21:30:05 2025




          FINAL HEAT OF FORMATION =        122.62017 KCAL/MOL =     513.04281 KJ/MOL

          TOTAL ENERGY            =     -39673.42312 KCAL/MOL = ELECTRONIC ENERGY + CORE-CORE REPULSION
          ENERGY OF ATOMS         =      39797.54792 KCAL/MOL
                              SUM =        124.12481 KCAL/MOL
          DISPERSION ENERGY       =         -1.50463 KCAL/MOL
                              SUM =        122.62017 KCAL/MOL = FINAL HEAT OF FORMATION



          TOTAL ENERGY            =      -1720.40246 EV
          ELECTRONIC ENERGY       =      -7592.99968 EV 
          CORE-CORE REPULSION     =       5872.59722 EV
          COSMO AREA              =        157.24 SQUARE ANGSTROMS
          COSMO VOLUME            =        149.65 CUBIC ANGSTROMS

          GRADIENT NORM           =          0.84123          =       0.20403 PER ATOM
          IONIZATION POTENTIAL    =         12.842212 EV
          ALPHA SOMO LUMO (EV)    =        -12.842 -6.736
          BETA  SOMO LUMO (EV)    =        -14.108 -6.733
          NO. OF ALPHA ELECTRONS  =         25
          NO. OF BETA  ELECTRONS  =         24
          MOLECULAR WEIGHT        =        128.1274         POINT GROUP:  C1  

          MOLECULAR DIMENSIONS (Angstroms)

            Atom       Atom       Distance
            H    15    H    10     7.06503
            H    14    H    11     4.25656
            O     8    H    12     3.39995


          SCF CALCULATIONS        =          1

          WALL-CLOCK TIME         =      1.109 SECONDS
          COMPUTATION TIME        =      0.819 SECONDS

          LARGEST ATOMIC GRADIENTS

          Atom     Label                     Cartesian Gradients           Cartesian Coordinates       |Gradient|
                                           X          Y          Z        X          Y          Z

            13       H                   0.160      0.277     -0.087    0.39439    2.39504    0.94366      0.331
            16       H                  -0.266     -0.085     -0.128    0.95580   -1.54528   -0.01954      0.307
             9       C                   0.184     -0.027      0.172    0.01507   -1.06344    0.36397      0.254
            17       H                  -0.156     -0.129     -0.118    0.05321   -1.31558    1.46374      0.234
             2       C                   0.175     -0.111     -0.099   -1.21538   -1.45565   -0.33599      0.229
             1       O                  -0.214      0.033     -0.010   -1.75022   -2.60801   -0.47547      0.217
             3       C                   0.133     -0.134      0.102   -1.86710   -0.26016   -0.93749      0.214
            11       H                  -0.015     -0.188     -0.075   -2.89166   -0.03518   -0.54599      0.203
             5       C                  -0.072      0.056      0.179    0.01990    0.41036    0.14981      0.201
            14       H                  -0.195     -0.022     -0.015    2.83966    0.48690    0.18159      0.197



       FINAL  POINT  AND  DERIVATIVES

   PARAMETER     ATOM    TYPE            VALUE        GRADIENT
      1          1  O    CARTESIAN X    -1.750224     -0.214453  KCAL/ANGSTROM
      2          1  O    CARTESIAN Y    -2.608012      0.033486  KCAL/ANGSTROM
      3          1  O    CARTESIAN Z    -0.475471     -0.010017  KCAL/ANGSTROM
      4          2  C    CARTESIAN X    -1.215377      0.174709  KCAL/ANGSTROM
      5          2  C    CARTESIAN Y    -1.455653     -0.110758  KCAL/ANGSTROM
      6          2  C    CARTESIAN Z    -0.335990     -0.099245  KCAL/ANGSTROM
      7          3  C    CARTESIAN X    -1.867102      0.133311  KCAL/ANGSTROM
      8          3  C    CARTESIAN Y    -0.260164     -0.133824  KCAL/ANGSTROM
      9          3  C    CARTESIAN Z    -0.937487      0.101603  KCAL/ANGSTROM
     10          4  O    CARTESIAN X    -1.028827      0.002054  KCAL/ANGSTROM
     11          4  O    CARTESIAN Y     0.855743      0.044109  KCAL/ANGSTROM
     12          4  O    CARTESIAN Z    -0.590174      0.058565  KCAL/ANGSTROM
     13          5  C    CARTESIAN X     0.019902     -0.072430  KCAL/ANGSTROM
     14          5  C    CARTESIAN Y     0.410357      0.056395  KCAL/ANGSTROM
     15          5  C    CARTESIAN Z     0.149806      0.179050  KCAL/ANGSTROM
     16          6  C    CARTESIAN X     0.858748     -0.032063  KCAL/ANGSTROM
     17          6  C    CARTESIAN Y     1.406262      0.099268  KCAL/ANGSTROM
     18          6  C    CARTESIAN Z     0.780026      0.014886  KCAL/ANGSTROM
     19          7  C    CARTESIAN X     2.350250     -0.016774  KCAL/ANGSTROM
     20          7  C    CARTESIAN Y     1.290265      0.152340  KCAL/ANGSTROM
     21          7  C    CARTESIAN Z     0.725269      0.024440  KCAL/ANGSTROM
     22          8  O    CARTESIAN X     1.616214      0.061657  KCAL/ANGSTROM
     23          8  O    CARTESIAN Y     0.894636     -0.029592  KCAL/ANGSTROM
     24          8  O    CARTESIAN Z     1.884724     -0.015792  KCAL/ANGSTROM
     25          9  C    CARTESIAN X     0.015072      0.184090  KCAL/ANGSTROM
     26          9  C    CARTESIAN Y    -1.063440     -0.027380  KCAL/ANGSTROM
     27          9  C    CARTESIAN Z     0.363968      0.172228  KCAL/ANGSTROM
     28         10  H    CARTESIAN X    -1.262997      0.154855  KCAL/ANGSTROM
     29         10  H    CARTESIAN Y    -3.404418      0.105671  KCAL/ANGSTROM
     30         10  H    CARTESIAN Z    -0.035907      0.031669  KCAL/ANGSTROM
     31         11  H    CARTESIAN X    -2.891662     -0.014705  KCAL/ANGSTROM
     32         11  H    CARTESIAN Y    -0.035179     -0.187724  KCAL/ANGSTROM
     33         11  H    CARTESIAN Z    -0.545993     -0.074770  KCAL/ANGSTROM
     34         12  H    CARTESIAN X    -1.937181      0.085713  KCAL/ANGSTROM
     35         12  H    CARTESIAN Y    -0.273366      0.092949  KCAL/ANGSTROM
     36         12  H    CARTESIAN Z    -2.054890      0.013712  KCAL/ANGSTROM
     37         13  H    CARTESIAN X     0.394389      0.159578  KCAL/ANGSTROM
     38         13  H    CARTESIAN Y     2.395042      0.276507  KCAL/ANGSTROM
     39         13  H    CARTESIAN Z     0.943662     -0.087491  KCAL/ANGSTROM
     40         14  H    CARTESIAN X     2.839662     -0.195303  KCAL/ANGSTROM
     41         14  H    CARTESIAN Y     0.486904     -0.021769  KCAL/ANGSTROM
     42         14  H    CARTESIAN Z     0.181590     -0.014865  KCAL/ANGSTROM
     43         15  H    CARTESIAN X     2.974184      0.011084  KCAL/ANGSTROM
     44         15  H    CARTESIAN Y     2.179340     -0.136051  KCAL/ANGSTROM
     45         15  H    CARTESIAN Z     0.848699     -0.048622  KCAL/ANGSTROM
     46         16  H    CARTESIAN X     0.955805     -0.265746  KCAL/ANGSTROM
     47         16  H    CARTESIAN Y    -1.545275     -0.084959  KCAL/ANGSTROM
     48         16  H    CARTESIAN Z    -0.019539     -0.127842  KCAL/ANGSTROM
     49         17  H    CARTESIAN X     0.053207     -0.155579  KCAL/ANGSTROM
     50         17  H    CARTESIAN Y    -1.315583     -0.128671  KCAL/ANGSTROM
     51         17  H    CARTESIAN Z     1.463736     -0.117512  KCAL/ANGSTROM




   ATOM   CHEMICAL          X               Y               Z
  NUMBER   SYMBOL      (ANGSTROMS)     (ANGSTROMS)     (ANGSTROMS)

     1       O         -1.75022445  *  -2.60801172  *  -0.47547069  *
     2       C         -1.21537719  *  -1.45565260  *  -0.33599014  *
     3       C         -1.86710157  *  -0.26016386  *  -0.93748653  *
     4       O         -1.02882729  *   0.85574267  *  -0.59017407  *
     5       C          0.01990248  *   0.41035700  *   0.14980650  *
     6       C          0.85874839  *   1.40626206  *   0.78002631  *
     7       C          2.35025029  *   1.29026468  *   0.72526900  *
     8       O          1.61621393  *   0.89463600  *   1.88472408  *
     9       C          0.01507194  *  -1.06344032  *   0.36396784  *
    10       H         -1.26299713  *  -3.40441765  *  -0.03590663  *
    11       H         -2.89166168  *  -0.03517940  *  -0.54599310  *
    12       H         -1.93718129  *  -0.27336648  *  -2.05489021  *
    13       H          0.39438907  *   2.39504167  *   0.94366164  *
    14       H          2.83966180  *   0.48690438  *   0.18158966  *
    15       H          2.97418401  *   2.17934019  *   0.84869911  *
    16       H          0.95580477  *  -1.54527529  *  -0.01953927  *
    17       H          0.05320690  *  -1.31558319  *   1.46373620  *

                             CARTESIAN COORDINATES

   1    O       -1.750224452    -2.608011723    -0.475470693
   2    C       -1.215377194    -1.455652604    -0.335990139
   3    C       -1.867101572    -0.260163864    -0.937486534
   4    O       -1.028827285     0.855742672    -0.590174066
   5    C        0.019902479     0.410357001     0.149806497
   6    C        0.858748386     1.406262059     0.780026312
   7    C        2.350250293     1.290264679     0.725268996
   8    O        1.616213931     0.894635999     1.884724077
   9    C        0.015071936    -1.063440324     0.363967843
  10    H       -1.262997130    -3.404417655    -0.035906626
  11    H       -2.891661678    -0.035179401    -0.545993099
  12    H       -1.937181294    -0.273366476    -2.054890213
  13    H        0.394389072     2.395041671     0.943661643
  14    H        2.839661797     0.486904384     0.181589662
  15    H        2.974184005     2.179340187     0.848699114
  16    H        0.955804768    -1.545275286    -0.019539271
  17    H        0.053206899    -1.315583189     1.463736203


           Empirical Formula: C6 H8 O3  =    17 atoms



      MOLECULAR POINT GROUP   :   C1  


          ALPHA EIGENVALUES  
 -38.87353 -37.12222 -35.61069 -33.22118 -31.15184 -28.46786 -27.13188 -26.55465
 -24.38314 -24.02712 -22.66984 -21.90187 -21.34525 -20.30092 -20.16464 -19.66279
 -19.32676 -19.00091 -18.33233 -17.85070 -17.27453 -16.77095 -15.70623 -14.17322
 -12.84221  -6.73558  -4.83006  -3.73154  -3.18225  -2.59428  -1.68132  -1.42915
  -1.21515  -1.08018  -0.65918  -0.55080  -0.33339  -0.02227   0.25535   0.47621
   0.55575   1.81972   2.21714   2.39466


           BETA EIGENVALUES 
 -38.87851 -36.83812 -35.50444 -32.94103 -31.05688 -28.33514 -27.09273 -26.44077
 -24.27286 -23.98243 -22.57613 -21.84179 -21.25821 -20.15394 -20.06456 -19.49587
 -19.24301 -18.99255 -18.22040 -17.74028 -16.72253 -16.65749 -15.33945 -14.10799
  -6.73284  -4.82084  -4.01394  -3.58829  -3.16667  -2.53714  -1.48461  -1.33051
  -1.12142  -0.92183  -0.49089  -0.36625  -0.31856   0.14088   0.31336   0.56250
   0.63283   1.84039   2.22762   2.40428


              NET ATOMIC CHARGES AND DIPOLE CONTRIBUTIONS

  ATOM NO.   TYPE          CHARGE      No. of ELECS.   s-Pop       p-Pop       
    1          O          -0.273291        6.2733     1.82653     4.44676
    2          C           0.517338        3.4827     1.18512     2.29755
    3          C          -0.169203        4.1692     1.10822     3.06099
    4          O          -0.160709        6.1607     1.88190     4.27881
    5          C          -0.006306        4.0063     1.09666     2.90964
    6          C          -0.012021        4.0120     1.06701     2.94501
    7          C          -0.100599        4.1006     1.09634     3.00425
    8          O          -0.303520        6.3035     1.92412     4.37940
    9          C          -0.413152        4.4132     1.07065     3.34251
   10          H           0.402308        0.5977     0.59769
   11          H           0.235747        0.7643     0.76425
   12          H           0.235210        0.7648     0.76479
   13          H           0.201735        0.7983     0.79827
   14          H           0.153294        0.8467     0.84671
   15          H           0.183401        0.8166     0.81660
   16          H           0.249249        0.7508     0.75075
   17          H           0.260520        0.7395     0.73948
 DIPOLE           X         Y         Z       TOTAL
 POINT-CHG.    -3.000    -5.954    -3.125     7.363
 HYBRID        -0.318    -1.196     0.564     1.361
 SUM           -3.319    -7.150    -2.561     8.289


          ATOMIC ORBITAL ELECTRON POPULATIONS

     Atom    s        px        py        pz   
    1  O   1.82653   1.53859   1.28443   1.62374
    2  C   1.18512   0.83043   0.82093   0.64619
    3  C   1.10822   1.05619   0.85272   1.15208
    4  O   1.88190   1.37120   1.24861   1.65901
    5  C   1.09666   0.94546   0.89757   1.06661
    6  C   1.06701   0.95699   1.04340   0.94462
    7  C   1.09634   0.95306   1.13525   0.91594
    8  O   1.92412   1.32265   1.84640   1.21035
    9  C   1.07065   1.05643   1.10253   1.18354
   10  H   0.59769
   11  H   0.76425
   12  H   0.76479
   13  H   0.79827
   14  H   0.84671
   15  H   0.81660
   16  H   0.75075
   17  H   0.73948


                    (SZ)    =    0.500000
                    (S**2)  =    0.754853


          ATOMIC ORBITAL SPIN POPULATIONS

    Atom   Total    s     px     py     pz   
         Atomic
    1  O -0.0028 -0.000 -0.001 -0.000 -0.001
    2  C -0.0005  0.000 -0.000  0.000 -0.000
    3  C -0.0061 -0.001 -0.001 -0.003 -0.002
    4  O  0.1337  0.005  0.038  0.008  0.083
    5  C  0.8367  0.026  0.260  0.027  0.524
    6  C -0.0690 -0.006 -0.020 -0.013 -0.030
    7  C  0.0623  0.006  0.037  0.004  0.015
    8  O  0.0340 -0.000  0.016 -0.002  0.020
    9  C -0.0327 -0.005 -0.004 -0.022 -0.002
   10  H  0.0001  0.000
   11  H  0.0036  0.004
   12  H  0.0025  0.003
   13  H  0.0079  0.008
   14  H -0.0014 -0.001
   15  H -0.0005 -0.001
   16  H  0.0162  0.016
   17  H  0.0158  0.016

 **********************
 *                    *
 * JOB ENDED NORMALLY *
 *                    *
 **********************



 TOTAL JOB TIME:             1.52 SECONDS

 == MOPAC DONE ==
