 *******************************************************************************
 **                                                                           **
 **                              MOPAC v23.2                                  **
 **                                                                           **
 *******************************************************************************
 **          Digital Object Identifier (DOI): 10.5281/zenodo.6511958          **
 **    Visit the DOI location for information on how to cite this program.    **
 *******************************************************************************

                              PM7 CALCULATION RESULTS

 *******************************************************************************
 *  CALCULATION DONE: (MAX THREADS = 40)             Fri Sep 19 22:04:17 2025  *
 *  PM7        - The PM7 Hamiltonian to be used
 *
 *
 *
 *                 CHARGE ON SYSTEM = +1
 *
 *
 *
 *  EPS=37.5   - USE ANDREAS KLAMT'S COSMO IMPLICIT SOLVATION MODEL
 *  1SCF       - DO 1 SCF AND THEN STOP 
 *  T=         - A TIME OF 172800.0 SECONDS REQUESTED
 *  DUMP=N     - RESTART FILE WRITTEN EVERY 7200.0 SECONDS REQUESTED
 *  RELSCF     - DEFAULT SCF CRITERION MULTIPLIED BY 0.0001
 *              (DEFAULT SCF CRITERION = 0.00010)
 *  GRADIENTS  - ALL GRADIENTS TO BE PRINTED
 *  DISP       - PRINT DISPERSION AND HYDROGEN BOND ENERGIES
 *******************************************************************************
PM7 1SCF GRADIENTS EPS=37.5 DISP RELSCF=0.0001 CHARGE=1
 Title: ASE calculation

   ATOM   CHEMICAL          X               Y               Z
  NUMBER   SYMBOL      (ANGSTROMS)     (ANGSTROMS)     (ANGSTROMS)

     1       C         -3.49928557  *  -0.63629739  *  -0.71774692  *
     2       C         -2.52383380  *   0.47874057  *  -0.31303598  *
     3       C         -2.79957782  *   1.00209801  *   1.10251181  *
     4       C         -1.18604935  *   0.07756999  *  -0.47172414  *
     5       C          0.05561137  *  -0.31218878  *  -0.62408283  *
     6       C          1.36684841  *  -0.72042125  *  -0.78822685  *
     7       C          2.36088878  *  -0.18368431  *   0.24076463  *
     8       C          3.70027408  *   0.09787611  *  -0.42520754  *
     9       O          3.79650792  *   0.00417980  *  -1.62116403  *
    10       H         -3.29086978  *  -1.04434178  *  -1.71540932  *
    11       H         -4.53666840  *  -0.26225281  *  -0.73772680  *
    12       H         -3.48421853  *  -1.47162637  *  -0.00245385  *
    13       H         -2.70818698  *   1.36151143  *  -1.04086037  *
    14       H         -2.66930803  *   0.21979807  *   1.86383074  *
    15       H         -2.15490241  *   1.84597960  *   1.38035911  *
    16       H         -3.84195056  *   1.35362129  *   1.19356797  *
    17       H          1.74539743  *  -0.45462871  *  -1.86383074  *
    18       H          1.47494396  *  -1.84597960  *  -0.92387673  *
    19       H          1.99919373  *   0.74544876  *   0.73060295  *
    20       H          2.49470910  *  -0.90971636  *   1.07406207  *
    21       H          4.53666840  *   0.38593865  *   0.22150642  *



          CARTESIAN COORDINATES 

    NO.       ATOM           X           Y           Z

     1         C         -3.4993     -0.6363     -0.7177
     2         C         -2.5238      0.4787     -0.3130
     3         C         -2.7996      1.0021      1.1025
     4         C         -1.1860      0.0776     -0.4717
     5         C          0.0556     -0.3122     -0.6241
     6         C          1.3668     -0.7204     -0.7882
     7         C          2.3609     -0.1837      0.2408
     8         C          3.7003      0.0979     -0.4252
     9         O          3.7965      0.0042     -1.6212
    10         H         -3.2909     -1.0443     -1.7154
    11         H         -4.5367     -0.2623     -0.7377
    12         H         -3.4842     -1.4716     -0.0025
    13         H         -2.7082      1.3615     -1.0409
    14         H         -2.6693      0.2198      1.8638
    15         H         -2.1549      1.8460      1.3804
    16         H         -3.8420      1.3536      1.1936
    17         H          1.7454     -0.4546     -1.8638
    18         H          1.4749     -1.8460     -0.9239
    19         H          1.9992      0.7454      0.7306
    20         H          2.4947     -0.9097      1.0741
    21         H          4.5367      0.3859      0.2215

 General Reference for PM7:
 "Optimization of Parameters for Semiempirical Methods VI: More Modifications to the 
 NDDO Approximations and Re-optimization of Parameters", J. J. P. Stewart, J. Mol. Mod., 1:32, 19 (2013)
 https://link.springer.com/article/10.1007/s00894-012-1667-x

           Empirical Formula: C8 H12 O  =    21 atoms



      MOLECULAR POINT GROUP   :   C1  


          UHF CALCULATION, NO. OF ALPHA ELECTRONS =   25
                           NO. OF BETA  ELECTRONS =   24
  SCF CRITERION =    0.1000E-07

 -------------------------------------------------------------------------------
 PM7 1SCF GRADIENTS EPS=37.5 DISP RELSCF=0.0001 CHARGE=1
 Title: ASE calculation



     1SCF WAS SPECIFIED, SO BFGS WAS NOT USED                 
     SCF FIELD WAS ACHIEVED                                   


                              PM7 CALCULATION
                                                       MOPAC v23.2 Linux
                                                       Fri Sep 19 22:04:18 2025




          FINAL HEAT OF FORMATION =        145.85960 KCAL/MOL =     610.27656 KJ/MOL

          TOTAL ENERGY            =     -33020.85002 KCAL/MOL = ELECTRONIC ENERGY + CORE-CORE REPULSION + SOLVATION ENERGY
          ENERGY OF ATOMS         =      33167.45855 KCAL/MOL
                              SUM =        146.60853 KCAL/MOL
          DISPERSION ENERGY       =         -1.65218 KCAL/MOL
                              SUM =        144.95635 KCAL/MOL = FINAL HEAT OF FORMATION

     *    WARNING - An energy term is incorrect or missing!

     *    FINAL HEAT OF FORMATION     =    145.85960 KCAL/MOL
     *    SUM OF CONTRIBUTIONS TO HoF =    144.95635 KCAL/MOL
     *                     DIFFERENCE =      0.90325 KCAL/MOL

          VAN DER WAALS AREA      =        189.32 SQUARE ANGSTROMS


          TOTAL ENERGY            =      -1431.91958 EV
          ELECTRONIC ENERGY       =      -1881.67074 EV 
          CORE-CORE REPULSION     =        449.75116 EV

          DIELECTRIC ENERGY       =         -2.47338 EV
          COSMO AREA              =        189.32 SQUARE ANGSTROMS
          COSMO VOLUME            =        179.17 CUBIC ANGSTROMS

          GRADIENT NORM           =         32.70340          =       7.13647 PER ATOM
          IONIZATION POTENTIAL    =         10.867325 EV
          ALPHA SOMO LUMO (EV)    =        -10.888 -0.918
          BETA  SOMO LUMO (EV)    =        -10.867 -3.797
          NO. OF ALPHA ELECTRONS  =         25
          NO. OF BETA  ELECTRONS  =         24
          MOLECULAR WEIGHT        =        124.1822         POINT GROUP:  C1  

          MOLECULAR DIMENSIONS (Angstroms)

            Atom       Atom       Distance
            H    21    H    11     9.14690
            H    15    H    18     4.74574
            O     9    H    14     3.06214


          SCF CALCULATIONS        =          2

          WALL-CLOCK TIME         =      1.148 SECONDS
          COMPUTATION TIME        =      1.160 SECONDS

          LARGEST ATOMIC GRADIENTS

          Atom     Label                     Cartesian Gradients           Cartesian Coordinates       |Gradient|
                                           X          Y          Z        X          Y          Z

             8       C                  13.912      1.376    -19.413    3.70027    0.09788   -0.42521     23.923
             9       O                  -7.727     -0.365     13.753    3.79651    0.00418   -1.62116     15.779
             7       C                  -7.289      0.165      7.218    2.36089   -0.18368    0.24076     10.260
            17       H                   5.481      1.479     -2.493    1.74540   -0.45463   -1.86383      6.200
             6       C                  -4.227     -3.159      1.781    1.36685   -0.72042   -0.78823      5.569
             3       C                   3.855      0.156     -1.828   -2.79958    1.00210    1.10251      4.270
             1       C                   3.717      0.394     -1.342   -3.49929   -0.63630   -0.71775      3.971
             2       C                   2.200     -0.023     -1.318   -2.52383    0.47874   -0.31304      2.565
            13       H                  -1.959      0.001      0.615   -2.70819    1.36151   -1.04086      2.053
            15       H                  -1.013      0.747      1.427   -2.15490    1.84598    1.38036      1.903



       FINAL  POINT  AND  DERIVATIVES

   PARAMETER     ATOM    TYPE            VALUE        GRADIENT
      1          1  C    CARTESIAN X    -3.499286      3.716624  KCAL/ANGSTROM
      2          1  C    CARTESIAN Y    -0.636297      0.394380  KCAL/ANGSTROM
      3          1  C    CARTESIAN Z    -0.717747     -1.341986  KCAL/ANGSTROM
      4          2  C    CARTESIAN X    -2.523834      2.199926  KCAL/ANGSTROM
      5          2  C    CARTESIAN Y     0.478741     -0.023168  KCAL/ANGSTROM
      6          2  C    CARTESIAN Z    -0.313036     -1.318209  KCAL/ANGSTROM
      7          3  C    CARTESIAN X    -2.799578      3.855440  KCAL/ANGSTROM
      8          3  C    CARTESIAN Y     1.002098      0.155554  KCAL/ANGSTROM
      9          3  C    CARTESIAN Z     1.102512     -1.828393  KCAL/ANGSTROM
     10          4  C    CARTESIAN X    -1.186049     -0.302473  KCAL/ANGSTROM
     11          4  C    CARTESIAN Y     0.077570      0.934289  KCAL/ANGSTROM
     12          4  C    CARTESIAN Z    -0.471724      0.158165  KCAL/ANGSTROM
     13          5  C    CARTESIAN X     0.055611     -0.479599  KCAL/ANGSTROM
     14          5  C    CARTESIAN Y    -0.312189     -0.317935  KCAL/ANGSTROM
     15          5  C    CARTESIAN Z    -0.624083     -0.575133  KCAL/ANGSTROM
     16          6  C    CARTESIAN X     1.366848     -4.226913  KCAL/ANGSTROM
     17          6  C    CARTESIAN Y    -0.720421     -3.159145  KCAL/ANGSTROM
     18          6  C    CARTESIAN Z    -0.788227      1.780554  KCAL/ANGSTROM
     19          7  C    CARTESIAN X     2.360889     -7.288719  KCAL/ANGSTROM
     20          7  C    CARTESIAN Y    -0.183684      0.164537  KCAL/ANGSTROM
     21          7  C    CARTESIAN Z     0.240765      7.218473  KCAL/ANGSTROM
     22          8  C    CARTESIAN X     3.700274     13.912282  KCAL/ANGSTROM
     23          8  C    CARTESIAN Y     0.097876      1.376105  KCAL/ANGSTROM
     24          8  C    CARTESIAN Z    -0.425208    -19.413203  KCAL/ANGSTROM
     25          9  O    CARTESIAN X     3.796508     -7.726634  KCAL/ANGSTROM
     26          9  O    CARTESIAN Y     0.004180     -0.365003  KCAL/ANGSTROM
     27          9  O    CARTESIAN Z    -1.621164     13.752929  KCAL/ANGSTROM
     28         10  H    CARTESIAN X    -3.290870     -1.493060  KCAL/ANGSTROM
     29         10  H    CARTESIAN Y    -1.044342     -0.585822  KCAL/ANGSTROM
     30         10  H    CARTESIAN Z    -1.715409     -0.378429  KCAL/ANGSTROM
     31         11  H    CARTESIAN X    -4.536668     -1.658070  KCAL/ANGSTROM
     32         11  H    CARTESIAN Y    -0.262253     -0.327750  KCAL/ANGSTROM
     33         11  H    CARTESIAN Z    -0.737727     -0.074620  KCAL/ANGSTROM
     34         12  H    CARTESIAN X    -3.484219     -1.480956  KCAL/ANGSTROM
     35         12  H    CARTESIAN Y    -1.471626     -0.534611  KCAL/ANGSTROM
     36         12  H    CARTESIAN Z    -0.002454      0.674577  KCAL/ANGSTROM
     37         13  H    CARTESIAN X    -2.708187     -1.959046  KCAL/ANGSTROM
     38         13  H    CARTESIAN Y     1.361511      0.001479  KCAL/ANGSTROM
     39         13  H    CARTESIAN Z    -1.040860      0.615166  KCAL/ANGSTROM
     40         14  H    CARTESIAN X    -2.669308     -1.054287  KCAL/ANGSTROM
     41         14  H    CARTESIAN Y     0.219798      0.033910  KCAL/ANGSTROM
     42         14  H    CARTESIAN Z     1.863831      1.136191  KCAL/ANGSTROM
     43         15  H    CARTESIAN X    -2.154902     -1.012917  KCAL/ANGSTROM
     44         15  H    CARTESIAN Y     1.845980      0.746704  KCAL/ANGSTROM
     45         15  H    CARTESIAN Z     1.380359      1.427087  KCAL/ANGSTROM
     46         16  H    CARTESIAN X    -3.841951     -1.614544  KCAL/ANGSTROM
     47         16  H    CARTESIAN Y     1.353621      0.318160  KCAL/ANGSTROM
     48         16  H    CARTESIAN Z     1.193568      0.918389  KCAL/ANGSTROM
     49         17  H    CARTESIAN X     1.745397      5.480982  KCAL/ANGSTROM
     50         17  H    CARTESIAN Y    -0.454629      1.478561  KCAL/ANGSTROM
     51         17  H    CARTESIAN Z    -1.863831     -2.493383  KCAL/ANGSTROM
     52         18  H    CARTESIAN X     1.474944      1.688461  KCAL/ANGSTROM
     53         18  H    CARTESIAN Y    -1.845980      0.804863  KCAL/ANGSTROM
     54         18  H    CARTESIAN Z    -0.923877     -0.158767  KCAL/ANGSTROM
     55         19  H    CARTESIAN X     1.999194      0.670720  KCAL/ANGSTROM
     56         19  H    CARTESIAN Y     0.745449     -0.786200  KCAL/ANGSTROM
     57         19  H    CARTESIAN Z     0.730603     -0.680906  KCAL/ANGSTROM
     58         20  H    CARTESIAN X     2.494709      0.052842  KCAL/ANGSTROM
     59         20  H    CARTESIAN Y    -0.909716     -0.176271  KCAL/ANGSTROM
     60         20  H    CARTESIAN Z     1.074062     -0.721355  KCAL/ANGSTROM
     61         21  H    CARTESIAN X     4.536668     -1.280067  KCAL/ANGSTROM
     62         21  H    CARTESIAN Y     0.385939     -0.132638  KCAL/ANGSTROM
     63         21  H    CARTESIAN Z     0.221506      1.302850  KCAL/ANGSTROM




   ATOM   CHEMICAL          X               Y               Z
  NUMBER   SYMBOL      (ANGSTROMS)     (ANGSTROMS)     (ANGSTROMS)

     1       C         -3.49928557  *  -0.63629739  *  -0.71774692  *
     2       C         -2.52383380  *   0.47874057  *  -0.31303598  *
     3       C         -2.79957782  *   1.00209801  *   1.10251181  *
     4       C         -1.18604935  *   0.07756999  *  -0.47172414  *
     5       C          0.05561137  *  -0.31218878  *  -0.62408283  *
     6       C          1.36684841  *  -0.72042125  *  -0.78822685  *
     7       C          2.36088878  *  -0.18368431  *   0.24076463  *
     8       C          3.70027408  *   0.09787611  *  -0.42520754  *
     9       O          3.79650792  *   0.00417980  *  -1.62116403  *
    10       H         -3.29086978  *  -1.04434178  *  -1.71540932  *
    11       H         -4.53666840  *  -0.26225281  *  -0.73772680  *
    12       H         -3.48421853  *  -1.47162637  *  -0.00245385  *
    13       H         -2.70818698  *   1.36151143  *  -1.04086037  *
    14       H         -2.66930803  *   0.21979807  *   1.86383074  *
    15       H         -2.15490241  *   1.84597960  *   1.38035911  *
    16       H         -3.84195056  *   1.35362129  *   1.19356797  *
    17       H          1.74539743  *  -0.45462871  *  -1.86383074  *
    18       H          1.47494396  *  -1.84597960  *  -0.92387673  *
    19       H          1.99919373  *   0.74544876  *   0.73060295  *
    20       H          2.49470910  *  -0.90971636  *   1.07406207  *
    21       H          4.53666840  *   0.38593865  *   0.22150642  *

                             CARTESIAN COORDINATES

   1    C       -3.499285567    -0.636297395    -0.717746916
   2    C       -2.523833796     0.478740574    -0.313035979
   3    C       -2.799577822     1.002098005     1.102511806
   4    C       -1.186049354     0.077569994    -0.471724136
   5    C        0.055611374    -0.312188781    -0.624082830
   6    C        1.366848408    -0.720421248    -0.788226848
   7    C        2.360888780    -0.183684308     0.240764631
   8    C        3.700274081     0.097876115    -0.425207544
   9    O        3.796507922     0.004179802    -1.621164028
  10    H       -3.290869783    -1.044341785    -1.715409321
  11    H       -4.536668403    -0.262252810    -0.737726799
  12    H       -3.484218529    -1.471626371    -0.002453851
  13    H       -2.708186978     1.361511425    -1.040860367
  14    H       -2.669308033     0.219798069     1.863830741
  15    H       -2.154902408     1.845979596     1.380359114
  16    H       -3.841950559     1.353621294     1.193567974
  17    H        1.745397434    -0.454628713    -1.863830741
  18    H        1.474943957    -1.845979596    -0.923876734
  19    H        1.999193730     0.745448757     0.730602948
  20    H        2.494709101    -0.909716357     1.074062070
  21    H        4.536668403     0.385938647     0.221506418


           Empirical Formula: C8 H12 O  =    21 atoms



      MOLECULAR POINT GROUP   :   C1  


          ALPHA EIGENVALUES  
 -31.78930 -30.13289 -29.32263 -26.72879 -24.59012 -24.51380 -21.91412 -20.42772
 -18.47285 -17.55068 -16.92717 -16.27562 -15.90631 -15.31582 -15.09235 -14.73394
 -14.04047 -13.70324 -13.41086 -13.21493 -13.01089 -12.65267 -11.51722 -11.10321
 -10.88818  -0.91844  -0.67504   0.27476   2.09744   2.71738   3.14235   3.23805
   3.26741   3.58869   3.97102   3.98168   4.30819   4.77069   4.89375   5.04595
   5.18876   5.36943   5.38100   5.42063   5.44909   5.77372   6.46715   6.56588


           BETA EIGENVALUES 
 -31.77739 -30.01906 -29.23123 -26.51094 -24.50715 -24.47628 -21.80607 -20.38495
 -18.34888 -17.32519 -16.78441 -16.09593 -15.83663 -15.22823 -15.05611 -14.52385
 -13.82275 -13.68843 -13.28729 -12.99601 -12.91148 -12.34139 -11.37712 -10.86733
  -3.79691  -0.49247   0.27584   0.29354   2.22936   2.74933   3.18177   3.30365
   3.31445   3.76230   4.10653   4.13832   4.32276   4.86110   4.92292   5.05819
   5.24413   5.37447   5.38486   5.43140   5.45355   5.77651   6.46902   6.56761


              NET ATOMIC CHARGES AND DIPOLE CONTRIBUTIONS

  ATOM NO.   TYPE          CHARGE      No. of ELECS.   s-Pop       p-Pop       
    1          C          -0.434826        4.4348     1.05695     3.37787
    2          C          -0.093845        4.0938     1.04721     3.04664
    3          C          -0.439244        4.4392     1.05659     3.38266
    4          C           0.167615        3.8324     1.16958     2.66281
    5          C           0.169527        3.8305     1.14788     2.68259
    6          C          -0.287391        4.2874     1.04566     3.24173
    7          C          -0.382406        4.3824     1.07688     3.30553
    8          C           0.441751        3.5582     1.15394     2.40430
    9          O          -0.557863        6.5579     1.86999     4.68787
   10          H           0.168434        0.8316     0.83157
   11          H           0.175726        0.8243     0.82427
   12          H           0.168604        0.8314     0.83140
   13          H           0.259331        0.7407     0.74067
   14          H           0.167513        0.8325     0.83249
   15          H           0.166759        0.8332     0.83324
   16          H           0.177297        0.8227     0.82270
   17          H           0.301477        0.6985     0.69852
   18          H           0.268711        0.7313     0.73129
   19          H           0.201179        0.7988     0.79882
   20          H           0.205855        0.7941     0.79414
   21          H           0.155797        0.8442     0.84420
 DIPOLE           X         Y         Z       TOTAL
 POINT-CHG.    -3.479    -0.258     2.793     4.469
 HYBRID        -0.062    -0.087    -0.397     0.411
 SUM           -3.541    -0.345     2.396     4.289


          ATOMIC ORBITAL ELECTRON POPULATIONS

     Atom    s        px        py        pz   
    1  C   1.05695   1.10938   1.08401   1.18448
    2  C   1.04721   0.91526   1.07102   1.06036
    3  C   1.05659   1.19876   1.17513   1.00876
    4  C   1.16958   0.96804   0.82762   0.86714
    5  C   1.14788   0.95954   0.83956   0.88349
    6  C   1.04566   0.95275   1.16296   1.12602
    7  C   1.07688   1.03533   1.18840   1.08180
    8  C   1.15394   0.94316   0.61803   0.84311
    9  O   1.86999   1.88760   1.48482   1.31546
   10  H   0.83157
   11  H   0.82427
   12  H   0.83140
   13  H   0.74067
   14  H   0.83249
   15  H   0.83324
   16  H   0.82270
   17  H   0.69852
   18  H   0.73129
   19  H   0.79882
   20  H   0.79414
   21  H   0.84420


                    (SZ)    =    0.500000
                    (S**2)  =    0.754666


          ATOMIC ORBITAL SPIN POPULATIONS

    Atom   Total    s     px     py     pz   
         Atomic
    1  C  0.0186  0.003  0.007  0.009  0.000
    2  C  0.0072 -0.003 -0.013  0.012  0.011
    3  C  0.0141  0.002  0.001 -0.000  0.011
    4  C  0.4435  0.009  0.014  0.234  0.186
    5  C  0.3108  0.004  0.009  0.165  0.133
    6  C  0.0491 -0.003 -0.005  0.034  0.023
    7  C -0.0017 -0.001 -0.001 -0.000 -0.000
    8  C  0.0005  0.000  0.000 -0.000  0.000
    9  O  0.0012  0.000  0.001  0.000 -0.000
   10  H -0.0003 -0.000
   11  H -0.0009 -0.001
   12  H  0.0008  0.001
   13  H  0.0577  0.058
   14  H  0.0008  0.001
   15  H -0.0001 -0.000
   16  H -0.0007 -0.001
   17  H  0.0582  0.058
   18  H  0.0382  0.038
   19  H  0.0003  0.000
   20  H  0.0027  0.003
   21  H -0.0002 -0.000

 **********************
 *                    *
 * JOB ENDED NORMALLY *
 *                    *
 **********************



 TOTAL JOB TIME:             1.46 SECONDS

 == MOPAC DONE ==
