 *******************************************************************************
 **                                                                           **
 **                              MOPAC v23.2                                  **
 **                                                                           **
 *******************************************************************************
 **          Digital Object Identifier (DOI): 10.5281/zenodo.6511958          **
 **    Visit the DOI location for information on how to cite this program.    **
 *******************************************************************************

                              PM7 CALCULATION RESULTS

 *******************************************************************************
 *  CALCULATION DONE: (MAX THREADS = 40)             Fri Sep 19 21:49:35 2025  *
 *  PM7        - The PM7 Hamiltonian to be used
 *
 *
 *
 *                 CHARGE ON SYSTEM = +1
 *
 *
 *
 *  1SCF       - DO 1 SCF AND THEN STOP 
 *  T=         - A TIME OF 172800.0 SECONDS REQUESTED
 *  DUMP=N     - RESTART FILE WRITTEN EVERY 7200.0 SECONDS REQUESTED
 *  RELSCF     - DEFAULT SCF CRITERION MULTIPLIED BY 0.0001
 *              (DEFAULT SCF CRITERION = 0.00010)
 *  GRADIENTS  - ALL GRADIENTS TO BE PRINTED
 *  DISP       - PRINT DISPERSION AND HYDROGEN BOND ENERGIES
 *******************************************************************************
PM7 1SCF GRADIENTS DISP RELSCF=0.0001 CHARGE=1
 Title: ASE calculation

   ATOM   CHEMICAL          X               Y               Z
  NUMBER   SYMBOL      (ANGSTROMS)     (ANGSTROMS)     (ANGSTROMS)

     1       C         -3.59252437  *  -0.57654084  *  -0.24615827  *
     2       C         -2.32971540  *   0.16061489  *  -0.67935420  *
     3       C         -1.20701868  *  -0.01603238  *   0.35468137  *
     4       C          0.12037041  *   0.69262013  *  -0.05883066  *
     5       C          1.11171214  *  -0.39983733  *  -0.07220529  *
     6       C          2.54073754  *  -0.41073441  *  -0.37034145  *
     7       C          3.22697078  *   0.88509288  *   0.04680746  *
     8       O          0.57275782  *  -1.56552446  *   0.23657996  *
     9       C         -0.78237140  *  -1.41988046  *   0.49038438  *
    10       H         -3.46324396  *  -1.66532463  *  -0.24602985  *
    11       H         -4.42960359  *  -0.36155073  *  -0.93017865  *
    12       H         -3.92928635  *  -0.27584301  *   0.75452398  *
    13       H         -2.55310698  *   1.24280749  *  -0.80077934  *
    14       H         -2.00927372  *  -0.19203928  *  -1.67930781  *
    15       H         -1.57275924  *   0.38417499  *   1.34205983  *
    16       H          0.03204457  *   1.20992350  *  -1.04523313  *
    17       H          0.38748344  *   1.52239438  *   0.63844993  *
    18       H          2.70351464  *  -0.58928882  *  -1.47379296  *
    19       H          3.06440869  *  -1.28890307  *   0.09905789  *
    20       H          3.22712797  *   1.02794399  *   1.13755032  *
    21       H          4.29111507  *   0.88219025  *  -0.25607204  *
    22       H          2.78408117  *   1.77629302  *  -0.41539242  *
    23       H         -1.28281489  *  -2.33422948  *   0.72226826  *



          CARTESIAN COORDINATES 

    NO.       ATOM           X           Y           Z

     1         C         -3.5925     -0.5765     -0.2462
     2         C         -2.3297      0.1606     -0.6794
     3         C         -1.2070     -0.0160      0.3547
     4         C          0.1204      0.6926     -0.0588
     5         C          1.1117     -0.3998     -0.0722
     6         C          2.5407     -0.4107     -0.3703
     7         C          3.2270      0.8851      0.0468
     8         O          0.5728     -1.5655      0.2366
     9         C         -0.7824     -1.4199      0.4904
    10         H         -3.4632     -1.6653     -0.2460
    11         H         -4.4296     -0.3616     -0.9302
    12         H         -3.9293     -0.2758      0.7545
    13         H         -2.5531      1.2428     -0.8008
    14         H         -2.0093     -0.1920     -1.6793
    15         H         -1.5728      0.3842      1.3421
    16         H          0.0320      1.2099     -1.0452
    17         H          0.3875      1.5224      0.6384
    18         H          2.7035     -0.5893     -1.4738
    19         H          3.0644     -1.2889      0.0991
    20         H          3.2271      1.0279      1.1376
    21         H          4.2911      0.8822     -0.2561
    22         H          2.7841      1.7763     -0.4154
    23         H         -1.2828     -2.3342      0.7223

 General Reference for PM7:
 "Optimization of Parameters for Semiempirical Methods VI: More Modifications to the 
 NDDO Approximations and Re-optimization of Parameters", J. J. P. Stewart, J. Mol. Mod., 1:32, 19 (2013)
 https://link.springer.com/article/10.1007/s00894-012-1667-x

           Empirical Formula: C8 H14 O  =    23 atoms



      MOLECULAR POINT GROUP   :   C1  


          UHF CALCULATION, NO. OF ALPHA ELECTRONS =   26
                           NO. OF BETA  ELECTRONS =   25
  SCF CRITERION =    0.1000E-07

 -------------------------------------------------------------------------------
 PM7 1SCF GRADIENTS DISP RELSCF=0.0001 CHARGE=1
 Title: ASE calculation



     1SCF WAS SPECIFIED, SO BFGS WAS NOT USED                 
     SCF FIELD WAS ACHIEVED                                   


                              PM7 CALCULATION
                                                       MOPAC v23.2 Linux
                                                       Fri Sep 19 21:49:36 2025




          FINAL HEAT OF FORMATION =        134.24176 KCAL/MOL =     561.66752 KJ/MOL

          TOTAL ENERGY            =     -33645.79419 KCAL/MOL = ELECTRONIC ENERGY + CORE-CORE REPULSION
          ENERGY OF ATOMS         =      33782.22825 KCAL/MOL
                              SUM =        136.43406 KCAL/MOL
          DISPERSION ENERGY       =         -2.19230 KCAL/MOL
                              SUM =        134.24176 KCAL/MOL = FINAL HEAT OF FORMATION



          TOTAL ENERGY            =      -1459.01973 EV
          ELECTRONIC ENERGY       =      -7619.68843 EV 
          CORE-CORE REPULSION     =       6160.66870 EV
          COSMO AREA              =        180.21 SQUARE ANGSTROMS
          COSMO VOLUME            =        178.76 CUBIC ANGSTROMS

          GRADIENT NORM           =          1.19977          =       0.25017 PER ATOM
          IONIZATION POTENTIAL    =         13.732701 EV
          ALPHA SOMO LUMO (EV)    =        -13.733 -5.990
          BETA  SOMO LUMO (EV)    =        -15.425 -6.029
          NO. OF ALPHA ELECTRONS  =         26
          NO. OF BETA  ELECTRONS  =         25
          MOLECULAR WEIGHT        =        126.1980         POINT GROUP:  C1  

          MOLECULAR DIMENSIONS (Angstroms)

            Atom       Atom       Distance
            H    21    H    11     8.83472
            H    23    H    13     3.99720
            H    15    H    18     3.47723


          SCF CALCULATIONS        =          1

          WALL-CLOCK TIME         =      1.367 SECONDS
          COMPUTATION TIME        =      0.476 SECONDS

          LARGEST ATOMIC GRADIENTS

          Atom     Label                     Cartesian Gradients           Cartesian Coordinates       |Gradient|
                                           X          Y          Z        X          Y          Z

             9       C                  -0.385      0.031     -0.177   -0.78237   -1.41988    0.49038      0.425
            10       H                   0.323     -0.273     -0.026   -3.46324   -1.66532   -0.24603      0.424
             8       O                  -0.246      0.233      0.150    0.57276   -1.56552    0.23658      0.371
            11       H                  -0.210      0.024      0.215   -4.42960   -0.36155   -0.93018      0.301
            22       H                  -0.039     -0.157      0.253    2.78408    1.77629   -0.41539      0.300
             6       C                   0.100      0.176     -0.217    2.54074   -0.41073   -0.37034      0.297
            19       H                  -0.098      0.231      0.156    3.06441   -1.28890    0.09906      0.295
            20       H                   0.153     -0.094      0.220    3.22713    1.02794    1.13755      0.284
            14       H                  -0.084      0.255     -0.017   -2.00927   -0.19204   -1.67931      0.269
            18       H                   0.162     -0.146     -0.150    2.70351   -0.58929   -1.47379      0.264



       FINAL  POINT  AND  DERIVATIVES

   PARAMETER     ATOM    TYPE            VALUE        GRADIENT
      1          1  C    CARTESIAN X    -3.592524      0.038557  KCAL/ANGSTROM
      2          1  C    CARTESIAN Y    -0.576541     -0.236999  KCAL/ANGSTROM
      3          1  C    CARTESIAN Z    -0.246158     -0.051671  KCAL/ANGSTROM
      4          2  C    CARTESIAN X    -2.329715      0.093901  KCAL/ANGSTROM
      5          2  C    CARTESIAN Y     0.160615      0.125638  KCAL/ANGSTROM
      6          2  C    CARTESIAN Z    -0.679354      0.080263  KCAL/ANGSTROM
      7          3  C    CARTESIAN X    -1.207019      0.116364  KCAL/ANGSTROM
      8          3  C    CARTESIAN Y    -0.016032      0.030884  KCAL/ANGSTROM
      9          3  C    CARTESIAN Z     0.354681     -0.055880  KCAL/ANGSTROM
     10          4  C    CARTESIAN X     0.120370     -0.077763  KCAL/ANGSTROM
     11          4  C    CARTESIAN Y     0.692620     -0.079310  KCAL/ANGSTROM
     12          4  C    CARTESIAN Z    -0.058831     -0.076391  KCAL/ANGSTROM
     13          5  C    CARTESIAN X     1.111712      0.031601  KCAL/ANGSTROM
     14          5  C    CARTESIAN Y    -0.399837      0.016196  KCAL/ANGSTROM
     15          5  C    CARTESIAN Z    -0.072205     -0.054807  KCAL/ANGSTROM
     16          6  C    CARTESIAN X     2.540738      0.100338  KCAL/ANGSTROM
     17          6  C    CARTESIAN Y    -0.410734      0.176332  KCAL/ANGSTROM
     18          6  C    CARTESIAN Z    -0.370341     -0.216560  KCAL/ANGSTROM
     19          7  C    CARTESIAN X     3.226971      0.127435  KCAL/ANGSTROM
     20          7  C    CARTESIAN Y     0.885093     -0.161394  KCAL/ANGSTROM
     21          7  C    CARTESIAN Z     0.046807      0.042948  KCAL/ANGSTROM
     22          8  O    CARTESIAN X     0.572758     -0.246375  KCAL/ANGSTROM
     23          8  O    CARTESIAN Y    -1.565524      0.232965  KCAL/ANGSTROM
     24          8  O    CARTESIAN Z     0.236580      0.149689  KCAL/ANGSTROM
     25          9  C    CARTESIAN X    -0.782371     -0.384791  KCAL/ANGSTROM
     26          9  C    CARTESIAN Y    -1.419880      0.030976  KCAL/ANGSTROM
     27          9  C    CARTESIAN Z     0.490384     -0.176914  KCAL/ANGSTROM
     28         10  H    CARTESIAN X    -3.463244      0.323230  KCAL/ANGSTROM
     29         10  H    CARTESIAN Y    -1.665325     -0.273028  KCAL/ANGSTROM
     30         10  H    CARTESIAN Z    -0.246030     -0.025874  KCAL/ANGSTROM
     31         11  H    CARTESIAN X    -4.429604     -0.209785  KCAL/ANGSTROM
     32         11  H    CARTESIAN Y    -0.361551      0.024347  KCAL/ANGSTROM
     33         11  H    CARTESIAN Z    -0.930179      0.214919  KCAL/ANGSTROM
     34         12  H    CARTESIAN X    -3.929286      0.019830  KCAL/ANGSTROM
     35         12  H    CARTESIAN Y    -0.275843      0.017182  KCAL/ANGSTROM
     36         12  H    CARTESIAN Z     0.754524      0.010483  KCAL/ANGSTROM
     37         13  H    CARTESIAN X    -2.553107      0.002979  KCAL/ANGSTROM
     38         13  H    CARTESIAN Y     1.242807      0.014092  KCAL/ANGSTROM
     39         13  H    CARTESIAN Z    -0.800779     -0.003884  KCAL/ANGSTROM
     40         14  H    CARTESIAN X    -2.009274     -0.084292  KCAL/ANGSTROM
     41         14  H    CARTESIAN Y    -0.192039      0.255266  KCAL/ANGSTROM
     42         14  H    CARTESIAN Z    -1.679308     -0.016542  KCAL/ANGSTROM
     43         15  H    CARTESIAN X    -1.572759      0.023469  KCAL/ANGSTROM
     44         15  H    CARTESIAN Y     0.384175     -0.032256  KCAL/ANGSTROM
     45         15  H    CARTESIAN Z     1.342060     -0.131066  KCAL/ANGSTROM
     46         16  H    CARTESIAN X     0.032045     -0.092888  KCAL/ANGSTROM
     47         16  H    CARTESIAN Y     1.209923     -0.156891  KCAL/ANGSTROM
     48         16  H    CARTESIAN Z    -1.045233     -0.123256  KCAL/ANGSTROM
     49         17  H    CARTESIAN X     0.387483      0.075821  KCAL/ANGSTROM
     50         17  H    CARTESIAN Y     1.522394      0.113339  KCAL/ANGSTROM
     51         17  H    CARTESIAN Z     0.638450     -0.087951  KCAL/ANGSTROM
     52         18  H    CARTESIAN X     2.703515      0.162271  KCAL/ANGSTROM
     53         18  H    CARTESIAN Y    -0.589289     -0.145573  KCAL/ANGSTROM
     54         18  H    CARTESIAN Z    -1.473793     -0.149748  KCAL/ANGSTROM
     55         19  H    CARTESIAN X     3.064409     -0.098330  KCAL/ANGSTROM
     56         19  H    CARTESIAN Y    -1.288903      0.231023  KCAL/ANGSTROM
     57         19  H    CARTESIAN Z     0.099058      0.155619  KCAL/ANGSTROM
     58         20  H    CARTESIAN X     3.227128      0.153147  KCAL/ANGSTROM
     59         20  H    CARTESIAN Y     1.027944     -0.093719  KCAL/ANGSTROM
     60         20  H    CARTESIAN Z     1.137550      0.220066  KCAL/ANGSTROM
     61         21  H    CARTESIAN X     4.291115      0.117004  KCAL/ANGSTROM
     62         21  H    CARTESIAN Y     0.882190      0.132880  KCAL/ANGSTROM
     63         21  H    CARTESIAN Z    -0.256072     -0.106089  KCAL/ANGSTROM
     64         22  H    CARTESIAN X     2.784081     -0.039173  KCAL/ANGSTROM
     65         22  H    CARTESIAN Y     1.776293     -0.157183  KCAL/ANGSTROM
     66         22  H    CARTESIAN Z    -0.415392      0.252883  KCAL/ANGSTROM
     67         23  H    CARTESIAN X    -1.282815     -0.152552  KCAL/ANGSTROM
     68         23  H    CARTESIAN Y    -2.334229     -0.064772  KCAL/ANGSTROM
     69         23  H    CARTESIAN Z     0.722268      0.149758  KCAL/ANGSTROM




   ATOM   CHEMICAL          X               Y               Z
  NUMBER   SYMBOL      (ANGSTROMS)     (ANGSTROMS)     (ANGSTROMS)

     1       C         -3.59252437  *  -0.57654084  *  -0.24615827  *
     2       C         -2.32971540  *   0.16061489  *  -0.67935420  *
     3       C         -1.20701868  *  -0.01603238  *   0.35468137  *
     4       C          0.12037041  *   0.69262013  *  -0.05883066  *
     5       C          1.11171214  *  -0.39983733  *  -0.07220529  *
     6       C          2.54073754  *  -0.41073441  *  -0.37034145  *
     7       C          3.22697078  *   0.88509288  *   0.04680746  *
     8       O          0.57275782  *  -1.56552446  *   0.23657996  *
     9       C         -0.78237140  *  -1.41988046  *   0.49038438  *
    10       H         -3.46324396  *  -1.66532463  *  -0.24602985  *
    11       H         -4.42960359  *  -0.36155073  *  -0.93017865  *
    12       H         -3.92928635  *  -0.27584301  *   0.75452398  *
    13       H         -2.55310698  *   1.24280749  *  -0.80077934  *
    14       H         -2.00927372  *  -0.19203928  *  -1.67930781  *
    15       H         -1.57275924  *   0.38417499  *   1.34205983  *
    16       H          0.03204457  *   1.20992350  *  -1.04523313  *
    17       H          0.38748344  *   1.52239438  *   0.63844993  *
    18       H          2.70351464  *  -0.58928882  *  -1.47379296  *
    19       H          3.06440869  *  -1.28890307  *   0.09905789  *
    20       H          3.22712797  *   1.02794399  *   1.13755032  *
    21       H          4.29111507  *   0.88219025  *  -0.25607204  *
    22       H          2.78408117  *   1.77629302  *  -0.41539242  *
    23       H         -1.28281489  *  -2.33422948  *   0.72226826  *

                             CARTESIAN COORDINATES

   1    C       -3.592524366    -0.576540845    -0.246158274
   2    C       -2.329715402     0.160614889    -0.679354198
   3    C       -1.207018682    -0.016032384     0.354681369
   4    C        0.120370408     0.692620134    -0.058830659
   5    C        1.111712141    -0.399837327    -0.072205291
   6    C        2.540737538    -0.410734406    -0.370341448
   7    C        3.226970782     0.885092877     0.046807456
   8    O        0.572757823    -1.565524458     0.236579961
   9    C       -0.782371400    -1.419880457     0.490384376
  10    H       -3.463243960    -1.665324635    -0.246029851
  11    H       -4.429603591    -0.361550727    -0.930178651
  12    H       -3.929286345    -0.275843006     0.754523977
  13    H       -2.553106981     1.242807487    -0.800779340
  14    H       -2.009273716    -0.192039276    -1.679307814
  15    H       -1.572759236     0.384174992     1.342059832
  16    H        0.032044568     1.209923498    -1.045233125
  17    H        0.387483436     1.522394379     0.638449934
  18    H        2.703514636    -0.589288825    -1.473792963
  19    H        3.064408692    -1.288903072     0.099057887
  20    H        3.227127971     1.027943989     1.137550320
  21    H        4.291115071     0.882190246    -0.256072039
  22    H        2.784081168     1.776293023    -0.415392423
  23    H       -1.282814893    -2.334229481     0.722268257


           Empirical Formula: C8 H14 O  =    23 atoms



      MOLECULAR POINT GROUP   :   C1  


          ALPHA EIGENVALUES  
 -38.49220 -34.09227 -33.49546 -30.59727 -29.34175 -27.04582 -26.26175 -25.10026
 -23.89058 -22.38407 -21.74029 -20.96059 -19.91929 -19.51249 -19.05148 -18.89805
 -18.66335 -18.16786 -18.06464 -17.44406 -17.04852 -16.70762 -16.41166 -15.92034
 -15.45001 -13.73270  -5.99002  -3.93985  -2.45701  -2.24593  -1.32571  -1.06741
  -0.87739  -0.60021  -0.38149   0.13670   0.20655   0.68232   0.96625   1.07226
   1.13701   1.25522   1.52286   1.53726   1.74096   2.43644   2.55824   2.65980
   2.67695   3.68063


           BETA EIGENVALUES 
 -38.68003 -34.14620 -33.43222 -30.59344 -29.21037 -26.96562 -26.18826 -25.07494
 -23.82942 -22.28836 -21.58904 -20.88402 -19.82726 -19.47693 -19.01514 -18.87285
 -18.64293 -18.13941 -17.92516 -17.30963 -17.02007 -16.67469 -16.40067 -15.83525
 -15.42498  -6.02922  -4.22825  -3.85737  -2.39024  -2.19473  -1.23507  -0.93827
  -0.67432  -0.57962  -0.28487   0.16226   0.23569   0.69613   0.98685   1.14464
   1.18378   1.37651   1.52426   1.53825   1.74798   2.44070   2.55972   2.66071
   2.67713   3.68133


              NET ATOMIC CHARGES AND DIPOLE CONTRIBUTIONS

  ATOM NO.   TYPE          CHARGE      No. of ELECS.   s-Pop       p-Pop       
    1          C          -0.440053        4.4401     1.05157     3.38848
    2          C          -0.250277        4.2503     1.05977     3.19051
    3          C          -0.136166        4.1362     1.07144     3.06473
    4          C          -0.396030        4.3960     1.07993     3.31610
    5          C           0.447199        3.5528     1.18860     2.36420
    6          C          -0.342885        4.3429     1.06017     3.28271
    7          C          -0.426517        4.4265     1.05133     3.37519
    8          O          -0.109338        6.1093     1.85791     4.25142
    9          C          -0.009401        4.0094     1.17566     2.83374
   10          H           0.151484        0.8485     0.84852
   11          H           0.175490        0.8245     0.82451
   12          H           0.160373        0.8396     0.83963
   13          H           0.164790        0.8352     0.83521
   14          H           0.151749        0.8483     0.84825
   15          H           0.203068        0.7969     0.79693
   16          H           0.229804        0.7702     0.77020
   17          H           0.228461        0.7715     0.77154
   18          H           0.230523        0.7695     0.76948
   19          H           0.221043        0.7790     0.77896
   20          H           0.171172        0.8288     0.82883
   21          H           0.194269        0.8057     0.80573
   22          H           0.164328        0.8357     0.83567
   23          H           0.216916        0.7831     0.78308
 DIPOLE           X         Y         Z       TOTAL
 POINT-CHG.     2.381     1.120    -0.177     2.637
 HYBRID         0.372    -0.421    -0.021     0.562
 SUM            2.753     0.699    -0.198     2.848


          ATOMIC ORBITAL ELECTRON POPULATIONS

     Atom    s        px        py        pz   
    1  C   1.05157   1.06201   1.14023   1.18624
    2  C   1.05977   0.98508   1.15537   1.05006
    3  C   1.07144   0.98181   0.95252   1.13039
    4  C   1.07993   1.01355   1.08156   1.22099
    5  C   1.18860   0.94816   0.82956   0.58647
    6  C   1.06017   0.94524   1.14576   1.19171
    7  C   1.05133   1.17251   1.01648   1.18620
    8  O   1.85791   1.32580   1.35489   1.57074
    9  C   1.17566   0.75517   1.05591   1.02267
   10  H   0.84852
   11  H   0.82451
   12  H   0.83963
   13  H   0.83521
   14  H   0.84825
   15  H   0.79693
   16  H   0.77020
   17  H   0.77154
   18  H   0.76948
   19  H   0.77896
   20  H   0.82883
   21  H   0.80573
   22  H   0.83567
   23  H   0.78308


                    (SZ)    =    0.500000
                    (S**2)  =    0.761555


          ATOMIC ORBITAL SPIN POPULATIONS

    Atom   Total    s     px     py     pz   
         Atomic
    1  C -0.0012 -0.000 -0.001 -0.000 -0.000
    2  C  0.0331  0.005  0.014  0.002  0.011
    3  C -0.0399 -0.005 -0.007 -0.024 -0.003
    4  C -0.0020 -0.001 -0.002 -0.003  0.003
    5  C  0.1697  0.005  0.012  0.012  0.141
    6  C -0.0052 -0.001 -0.005 -0.001  0.002
    7  C  0.0032  0.000  0.001  0.001  0.000
    8  O -0.0920 -0.003 -0.024 -0.009 -0.056
    9  C  0.9069  0.024  0.059  0.045  0.779
   10  H  0.0001  0.000
   11  H  0.0005  0.000
   12  H  0.0001  0.000
   13  H -0.0006 -0.001
   14  H -0.0012 -0.001
   15  H  0.0272  0.027
   16  H  0.0069  0.007
   17  H  0.0065  0.006
   18  H  0.0091  0.009
   19  H  0.0023  0.002
   20  H -0.0000 -0.000
   21  H -0.0002 -0.000
   22  H -0.0001 -0.000
   23  H -0.0233 -0.023

 **********************
 *                    *
 * JOB ENDED NORMALLY *
 *                    *
 **********************



 TOTAL JOB TIME:             1.85 SECONDS

 == MOPAC DONE ==
