 *******************************************************************************
 **                                                                           **
 **                              MOPAC v23.2                                  **
 **                                                                           **
 *******************************************************************************
 **          Digital Object Identifier (DOI): 10.5281/zenodo.6511958          **
 **    Visit the DOI location for information on how to cite this program.    **
 *******************************************************************************

                              PM7 CALCULATION RESULTS

 *******************************************************************************
 *  CALCULATION DONE: (MAX THREADS = 40)             Fri Sep 19 21:32:24 2025  *
 *  PM7        - The PM7 Hamiltonian to be used
 *
 *
 *
 *                 CHARGE ON SYSTEM = +1
 *
 *
 *
 *  EPS=37.5   - USE ANDREAS KLAMT'S COSMO IMPLICIT SOLVATION MODEL
 *  1SCF       - DO 1 SCF AND THEN STOP 
 *  T=         - A TIME OF 172800.0 SECONDS REQUESTED
 *  DUMP=N     - RESTART FILE WRITTEN EVERY 7200.0 SECONDS REQUESTED
 *  RELSCF     - DEFAULT SCF CRITERION MULTIPLIED BY 0.0001
 *              (DEFAULT SCF CRITERION = 0.00010)
 *  GRADIENTS  - ALL GRADIENTS TO BE PRINTED
 *  DISP       - PRINT DISPERSION AND HYDROGEN BOND ENERGIES
 *******************************************************************************
PM7 1SCF GRADIENTS EPS=37.5 DISP RELSCF=0.0001 CHARGE=1
 Title: ASE calculation

   ATOM   CHEMICAL          X               Y               Z
  NUMBER   SYMBOL      (ANGSTROMS)     (ANGSTROMS)     (ANGSTROMS)

     1       C         -0.91332621  *  -1.74228755  *  -0.27957613  *
     2       C         -0.71312852  *  -0.29733375  *   0.18245355  *
     3       C         -1.86783768  *   0.09193715  *   1.15940776  *
     4       O         -1.30260483  *   1.15780828  *   1.90004103  *
     5       C          0.51797010  *  -0.20256997  *   1.00890844  *
     6       C          1.48800798  *   0.78674666  *   0.77321582  *
     7       C          1.70015299  *   1.33946569  *  -0.55445349  *
     8       C          0.72389131  *   0.79584078  *  -1.60221790  *
     9       C         -0.68041961  *   0.68047706  *  -1.00673478  *
    10       H         -0.89940681  *  -2.46814793  *   0.54468592  *
    11       H         -1.88474128  *  -1.86248931  *  -0.78794723  *
    12       H         -0.15034974  *  -2.05503873  *  -1.00580422  *
    13       H         -2.76609145  *   0.42949951  *   0.61217361  *
    14       H         -2.13011055  *  -0.73095616  *   1.85024979  *
    15       H         -1.96331794  *   1.58342959  *   2.49088883  *
    16       H          0.63990835  *  -0.92204033  *   1.83205321  *
    17       H          2.09301027  *   1.17173610  *   1.61095479  *
    18       H          2.76609145  *   1.20281197  *  -0.89400023  *
    19       H          1.63839782  *   2.46814793  *  -0.50978866  *
    20       H          1.06595864  *  -0.18263630  *  -1.99488751  *
    21       H          0.70508784  *   1.46532389  *  -2.49088883  *
    22       H         -1.40435516  *   0.36251332  *  -1.78610938  *
    23       H         -1.03230024  *   1.68490272  *  -0.68331320  *



          CARTESIAN COORDINATES 

    NO.       ATOM           X           Y           Z

     1         C         -0.9133     -1.7423     -0.2796
     2         C         -0.7131     -0.2973      0.1825
     3         C         -1.8678      0.0919      1.1594
     4         O         -1.3026      1.1578      1.9000
     5         C          0.5180     -0.2026      1.0089
     6         C          1.4880      0.7867      0.7732
     7         C          1.7002      1.3395     -0.5545
     8         C          0.7239      0.7958     -1.6022
     9         C         -0.6804      0.6805     -1.0067
    10         H         -0.8994     -2.4681      0.5447
    11         H         -1.8847     -1.8625     -0.7879
    12         H         -0.1503     -2.0550     -1.0058
    13         H         -2.7661      0.4295      0.6122
    14         H         -2.1301     -0.7310      1.8502
    15         H         -1.9633      1.5834      2.4909
    16         H          0.6399     -0.9220      1.8321
    17         H          2.0930      1.1717      1.6110
    18         H          2.7661      1.2028     -0.8940
    19         H          1.6384      2.4681     -0.5098
    20         H          1.0660     -0.1826     -1.9949
    21         H          0.7051      1.4653     -2.4909
    22         H         -1.4044      0.3625     -1.7861
    23         H         -1.0323      1.6849     -0.6833

 General Reference for PM7:
 "Optimization of Parameters for Semiempirical Methods VI: More Modifications to the 
 NDDO Approximations and Re-optimization of Parameters", J. J. P. Stewart, J. Mol. Mod., 1:32, 19 (2013)
 https://link.springer.com/article/10.1007/s00894-012-1667-x

           Empirical Formula: C8 H14 O  =    23 atoms



      MOLECULAR POINT GROUP   :   C1  


          UHF CALCULATION, NO. OF ALPHA ELECTRONS =   26
                           NO. OF BETA  ELECTRONS =   25
  SCF CRITERION =    0.1000E-07

 -------------------------------------------------------------------------------
 PM7 1SCF GRADIENTS EPS=37.5 DISP RELSCF=0.0001 CHARGE=1
 Title: ASE calculation



     1SCF WAS SPECIFIED, SO BFGS WAS NOT USED                 
     SCF FIELD WAS ACHIEVED                                   


                              PM7 CALCULATION
                                                       MOPAC v23.2 Linux
                                                       Fri Sep 19 21:32:25 2025




          FINAL HEAT OF FORMATION =         93.20456 KCAL/MOL =     389.96787 KJ/MOL

          TOTAL ENERGY            =     -33686.46954 KCAL/MOL = ELECTRONIC ENERGY + CORE-CORE REPULSION + SOLVATION ENERGY
          ENERGY OF ATOMS         =      33782.22825 KCAL/MOL
                              SUM =         95.75871 KCAL/MOL
          DISPERSION ENERGY       =         -2.55415 KCAL/MOL
                              SUM =         93.20456 KCAL/MOL = FINAL HEAT OF FORMATION

          VAN DER WAALS AREA      =        168.52 SQUARE ANGSTROMS


          TOTAL ENERGY            =      -1460.78358 EV
          ELECTRONIC ENERGY       =      -2467.43367 EV 
          CORE-CORE REPULSION     =       1006.65010 EV

          DIELECTRIC ENERGY       =         -2.22726 EV
          COSMO AREA              =        168.52 SQUARE ANGSTROMS
          COSMO VOLUME            =        175.32 CUBIC ANGSTROMS

          GRADIENT NORM           =          9.53004          =       1.98715 PER ATOM
          IONIZATION POTENTIAL    =         10.844137 EV
          ALPHA SOMO LUMO (EV)    =        -10.844 -1.489
          BETA  SOMO LUMO (EV)    =        -11.261 -3.079
          NO. OF ALPHA ELECTRONS  =         26
          NO. OF BETA  ELECTRONS  =         25
          MOLECULAR WEIGHT        =        126.1980         POINT GROUP:  C1  

          MOLECULAR DIMENSIONS (Angstroms)

            Atom       Atom       Distance
            H    18    H    14     5.93660
            H    15    H    12     5.00410
            H    22    H    16     4.27427


          SCF CALCULATIONS        =          2

          WALL-CLOCK TIME         =      1.031 SECONDS
          COMPUTATION TIME        =      0.562 SECONDS

          LARGEST ATOMIC GRADIENTS

          Atom     Label                     Cartesian Gradients           Cartesian Coordinates       |Gradient|
                                           X          Y          Z        X          Y          Z

             1       C                   2.371      0.724      2.473   -0.91333   -1.74229   -0.27958      3.502
             3       C                  -0.979      1.463      2.978   -1.86784    0.09194    1.15941      3.459
             7       C                   2.987      0.719      0.620    1.70015    1.33947   -0.55445      3.134
             6       C                   0.561      0.555      2.584    1.48801    0.78675    0.77322      2.702
             4       O                   0.056     -2.350     -1.058   -1.30260    1.15781    1.90004      2.578
             2       C                   2.032      0.779     -1.017   -0.71313   -0.29733    0.18245      2.402
             5       C                  -2.151     -0.495      0.773    0.51797   -0.20257    1.00891      2.338
            15       H                   1.893      0.519     -0.520   -1.96332    1.58343    2.49089      2.030
             9       C                   1.651     -0.128      0.789   -0.68042    0.68048   -1.00673      1.835
             8       C                  -0.245     -0.936      1.464    0.72389    0.79584   -1.60222      1.755



       FINAL  POINT  AND  DERIVATIVES

   PARAMETER     ATOM    TYPE            VALUE        GRADIENT
      1          1  C    CARTESIAN X    -0.913326      2.371423  KCAL/ANGSTROM
      2          1  C    CARTESIAN Y    -1.742288      0.723519  KCAL/ANGSTROM
      3          1  C    CARTESIAN Z    -0.279576      2.472839  KCAL/ANGSTROM
      4          2  C    CARTESIAN X    -0.713129      2.031511  KCAL/ANGSTROM
      5          2  C    CARTESIAN Y    -0.297334      0.779302  KCAL/ANGSTROM
      6          2  C    CARTESIAN Z     0.182454     -1.016725  KCAL/ANGSTROM
      7          3  C    CARTESIAN X    -1.867838     -0.979035  KCAL/ANGSTROM
      8          3  C    CARTESIAN Y     0.091937      1.462828  KCAL/ANGSTROM
      9          3  C    CARTESIAN Z     1.159408      2.977649  KCAL/ANGSTROM
     10          4  O    CARTESIAN X    -1.302605      0.055964  KCAL/ANGSTROM
     11          4  O    CARTESIAN Y     1.157808     -2.349874  KCAL/ANGSTROM
     12          4  O    CARTESIAN Z     1.900041     -1.058082  KCAL/ANGSTROM
     13          5  C    CARTESIAN X     0.517970     -2.150678  KCAL/ANGSTROM
     14          5  C    CARTESIAN Y    -0.202570     -0.494826  KCAL/ANGSTROM
     15          5  C    CARTESIAN Z     1.008908      0.773235  KCAL/ANGSTROM
     16          6  C    CARTESIAN X     1.488008      0.560947  KCAL/ANGSTROM
     17          6  C    CARTESIAN Y     0.786747      0.554926  KCAL/ANGSTROM
     18          6  C    CARTESIAN Z     0.773216      2.584496  KCAL/ANGSTROM
     19          7  C    CARTESIAN X     1.700153      2.986775  KCAL/ANGSTROM
     20          7  C    CARTESIAN Y     1.339466      0.718513  KCAL/ANGSTROM
     21          7  C    CARTESIAN Z    -0.554453      0.619928  KCAL/ANGSTROM
     22          8  C    CARTESIAN X     0.723891     -0.245193  KCAL/ANGSTROM
     23          8  C    CARTESIAN Y     0.795841     -0.936126  KCAL/ANGSTROM
     24          8  C    CARTESIAN Z    -1.602218      1.463726  KCAL/ANGSTROM
     25          9  C    CARTESIAN X    -0.680420      1.651086  KCAL/ANGSTROM
     26          9  C    CARTESIAN Y     0.680477     -0.128182  KCAL/ANGSTROM
     27          9  C    CARTESIAN Z    -1.006735      0.789404  KCAL/ANGSTROM
     28         10  H    CARTESIAN X    -0.899407     -0.809958  KCAL/ANGSTROM
     29         10  H    CARTESIAN Y    -2.468148     -1.195155  KCAL/ANGSTROM
     30         10  H    CARTESIAN Z     0.544686     -0.556856  KCAL/ANGSTROM
     31         11  H    CARTESIAN X    -1.884741     -0.477410  KCAL/ANGSTROM
     32         11  H    CARTESIAN Y    -1.862489     -0.626374  KCAL/ANGSTROM
     33         11  H    CARTESIAN Z    -0.787947     -0.728549  KCAL/ANGSTROM
     34         12  H    CARTESIAN X    -0.150350     -1.111729  KCAL/ANGSTROM
     35         12  H    CARTESIAN Y    -2.055039     -0.995525  KCAL/ANGSTROM
     36         12  H    CARTESIAN Z    -1.005804     -0.874210  KCAL/ANGSTROM
     37         13  H    CARTESIAN X    -2.766091     -0.284716  KCAL/ANGSTROM
     38         13  H    CARTESIAN Y     0.429500     -0.185065  KCAL/ANGSTROM
     39         13  H    CARTESIAN Z     0.612174     -0.967586  KCAL/ANGSTROM
     40         14  H    CARTESIAN X    -2.130111     -0.311210  KCAL/ANGSTROM
     41         14  H    CARTESIAN Y    -0.730956     -0.711558  KCAL/ANGSTROM
     42         14  H    CARTESIAN Z     1.850250      0.210036  KCAL/ANGSTROM
     43         15  H    CARTESIAN X    -1.963318      1.892721  KCAL/ANGSTROM
     44         15  H    CARTESIAN Y     1.583430      0.518648  KCAL/ANGSTROM
     45         15  H    CARTESIAN Z     2.490889     -0.520301  KCAL/ANGSTROM
     46         16  H    CARTESIAN X     0.639908     -1.175620  KCAL/ANGSTROM
     47         16  H    CARTESIAN Y    -0.922040      0.209619  KCAL/ANGSTROM
     48         16  H    CARTESIAN Z     1.832053      0.018412  KCAL/ANGSTROM
     49         17  H    CARTESIAN X     2.093010     -1.216210  KCAL/ANGSTROM
     50         17  H    CARTESIAN Y     1.171736      0.206779  KCAL/ANGSTROM
     51         17  H    CARTESIAN Z     1.610955     -0.819674  KCAL/ANGSTROM
     52         18  H    CARTESIAN X     2.766091     -0.051677  KCAL/ANGSTROM
     53         18  H    CARTESIAN Y     1.202812     -0.035237  KCAL/ANGSTROM
     54         18  H    CARTESIAN Z    -0.894000     -1.042703  KCAL/ANGSTROM
     55         19  H    CARTESIAN X     1.638398     -0.874751  KCAL/ANGSTROM
     56         19  H    CARTESIAN Y     2.468148      0.401341  KCAL/ANGSTROM
     57         19  H    CARTESIAN Z    -0.509789     -0.807530  KCAL/ANGSTROM
     58         20  H    CARTESIAN X     1.065959     -0.232536  KCAL/ANGSTROM
     59         20  H    CARTESIAN Y    -0.182636      0.334018  KCAL/ANGSTROM
     60         20  H    CARTESIAN Z    -1.994888     -1.168125  KCAL/ANGSTROM
     61         21  H    CARTESIAN X     0.705088     -0.393375  KCAL/ANGSTROM
     62         21  H    CARTESIAN Y     1.465324      0.692055  KCAL/ANGSTROM
     63         21  H    CARTESIAN Z    -2.490889     -1.372334  KCAL/ANGSTROM
     64         22  H    CARTESIAN X    -1.404355     -0.795496  KCAL/ANGSTROM
     65         22  H    CARTESIAN Y     0.362513      0.258188  KCAL/ANGSTROM
     66         22  H    CARTESIAN Z    -1.786109     -0.959181  KCAL/ANGSTROM
     67         23  H    CARTESIAN X    -1.032300     -0.440830  KCAL/ANGSTROM
     68         23  H    CARTESIAN Y     1.684903      0.798185  KCAL/ANGSTROM
     69         23  H    CARTESIAN Z    -0.683313     -0.017869  KCAL/ANGSTROM




   ATOM   CHEMICAL          X               Y               Z
  NUMBER   SYMBOL      (ANGSTROMS)     (ANGSTROMS)     (ANGSTROMS)

     1       C         -0.91332621  *  -1.74228755  *  -0.27957613  *
     2       C         -0.71312852  *  -0.29733375  *   0.18245355  *
     3       C         -1.86783768  *   0.09193715  *   1.15940776  *
     4       O         -1.30260483  *   1.15780828  *   1.90004103  *
     5       C          0.51797010  *  -0.20256997  *   1.00890844  *
     6       C          1.48800798  *   0.78674666  *   0.77321582  *
     7       C          1.70015299  *   1.33946569  *  -0.55445349  *
     8       C          0.72389131  *   0.79584078  *  -1.60221790  *
     9       C         -0.68041961  *   0.68047706  *  -1.00673478  *
    10       H         -0.89940681  *  -2.46814793  *   0.54468592  *
    11       H         -1.88474128  *  -1.86248931  *  -0.78794723  *
    12       H         -0.15034974  *  -2.05503873  *  -1.00580422  *
    13       H         -2.76609145  *   0.42949951  *   0.61217361  *
    14       H         -2.13011055  *  -0.73095616  *   1.85024979  *
    15       H         -1.96331794  *   1.58342959  *   2.49088883  *
    16       H          0.63990835  *  -0.92204033  *   1.83205321  *
    17       H          2.09301027  *   1.17173610  *   1.61095479  *
    18       H          2.76609145  *   1.20281197  *  -0.89400023  *
    19       H          1.63839782  *   2.46814793  *  -0.50978866  *
    20       H          1.06595864  *  -0.18263630  *  -1.99488751  *
    21       H          0.70508784  *   1.46532389  *  -2.49088883  *
    22       H         -1.40435516  *   0.36251332  *  -1.78610938  *
    23       H         -1.03230024  *   1.68490272  *  -0.68331320  *

                             CARTESIAN COORDINATES

   1    C       -0.913326207    -1.742287552    -0.279576129
   2    C       -0.713128520    -0.297333747     0.182453551
   3    C       -1.867837683     0.091937153     1.159407763
   4    O       -1.302604828     1.157808283     1.900041034
   5    C        0.517970098    -0.202569973     1.008908442
   6    C        1.488007977     0.786746658     0.773215824
   7    C        1.700152986     1.339465686    -0.554453486
   8    C        0.723891313     0.795840777    -1.602217901
   9    C       -0.680419606     0.680477055    -1.006734783
  10    H       -0.899406809    -2.468147926     0.544685923
  11    H       -1.884741276    -1.862489307    -0.787947230
  12    H       -0.150349741    -2.055038726    -1.005804223
  13    H       -2.766091446     0.429499509     0.612173611
  14    H       -2.130110546    -0.730956160     1.850249785
  15    H       -1.963317939     1.583429589     2.490888834
  16    H        0.639908349    -0.922040327     1.832053206
  17    H        2.093010271     1.171736100     1.610954790
  18    H        2.766091446     1.202811973    -0.894000230
  19    H        1.638397823     2.468147926    -0.509788662
  20    H        1.065958641    -0.182636299    -1.994887506
  21    H        0.705087840     1.465323892    -2.490888834
  22    H       -1.404355159     0.362513318    -1.786109383
  23    H       -1.032300236     1.684902721    -0.683313198


           Empirical Formula: C8 H14 O  =    23 atoms



      MOLECULAR POINT GROUP   :   C1  


          ALPHA EIGENVALUES  
 -31.95474 -29.70207 -28.31890 -27.02652 -24.38363 -23.89531 -22.10401 -20.77062
 -18.25651 -17.99998 -17.50028 -16.60041 -16.33942 -15.42100 -15.03927 -14.54150
 -14.35849 -13.96675 -13.63490 -13.42129 -13.02491 -12.30930 -12.06977 -11.90545
 -11.29696 -10.84414  -1.48885   2.23310   2.54959   2.73817   2.93220   3.11857
   3.29981   3.43976   3.85586   4.03233   4.47180   4.54099   4.77740   5.19775
   5.24526   5.31438   5.37680   5.40579   5.45912   5.56120   5.74943   6.07368
   6.19761   6.53722


           BETA EIGENVALUES 
 -31.84160 -29.66183 -28.26527 -26.85194 -24.31764 -23.83164 -22.02780 -20.66525
 -18.11567 -17.95134 -17.40124 -16.51184 -16.19490 -15.33996 -14.92767 -14.44064
 -14.27880 -13.72299 -13.60268 -13.37338 -12.83653 -12.23854 -12.00024 -11.85574
 -11.26076  -3.07890  -0.16848   2.29102   2.63966   2.84955   3.03729   3.21461
   3.37513   3.48990   3.89074   4.06352   4.58166   4.62594   4.88228   5.20544
   5.25448   5.32352   5.38394   5.42526   5.46124   5.59349   5.75655   6.07622
   6.19782   6.53934


              NET ATOMIC CHARGES AND DIPOLE CONTRIBUTIONS

  ATOM NO.   TYPE          CHARGE      No. of ELECS.   s-Pop       p-Pop       
    1          C          -0.462091        4.4621     1.05825     3.40384
    2          C          -0.009019        4.0090     1.06585     2.94317
    3          C           0.017106        3.9829     1.09966     2.88324
    4          O          -0.635919        6.6359     1.84341     4.79251
    5          C           0.101985        3.8980     1.17027     2.72774
    6          C           0.141364        3.8586     1.15976     2.69887
    7          C          -0.341765        4.3418     1.06229     3.27948
    8          C          -0.270031        4.2700     1.05916     3.21087
    9          C          -0.296631        4.2966     1.06609     3.23054
   10          H           0.170578        0.8294     0.82942
   11          H           0.178644        0.8214     0.82136
   12          H           0.170264        0.8297     0.82974
   13          H           0.151824        0.8482     0.84818
   14          H           0.149104        0.8509     0.85090
   15          H           0.373530        0.6265     0.62647
   16          H           0.212504        0.7875     0.78750
   17          H           0.213232        0.7868     0.78677
   18          H           0.235912        0.7641     0.76409
   19          H           0.235587        0.7644     0.76441
   20          H           0.161359        0.8386     0.83864
   21          H           0.167698        0.8323     0.83230
   22          H           0.168140        0.8319     0.83186
   23          H           0.166626        0.8334     0.83337
 DIPOLE           X         Y         Z       TOTAL
 POINT-CHG.     2.868    -0.441     0.958     3.055
 HYBRID         0.119     0.375     0.433     0.585
 SUM            2.987    -0.066     1.391     3.295


          ATOMIC ORBITAL ELECTRON POPULATIONS

     Atom    s        px        py        pz   
    1  C   1.05825   1.20776   1.01135   1.18473
    2  C   1.06585   0.96165   1.00272   0.97881
    3  C   1.09966   0.99343   0.91771   0.97210
    4  O   1.84341   1.52794   1.58477   1.67979
    5  C   1.17027   0.92159   0.89683   0.90932
    6  C   1.15976   0.83807   0.80415   1.05666
    7  C   1.06229   1.13971   1.14654   0.99322
    8  C   1.05916   0.98433   1.16843   1.05811
    9  C   1.06609   1.05492   1.11425   1.06137
   10  H   0.82942
   11  H   0.82136
   12  H   0.82974
   13  H   0.84818
   14  H   0.85090
   15  H   0.62647
   16  H   0.78750
   17  H   0.78677
   18  H   0.76409
   19  H   0.76441
   20  H   0.83864
   21  H   0.83230
   22  H   0.83186
   23  H   0.83337


                    (SZ)    =    0.500000
                    (S**2)  =    0.753341


          ATOMIC ORBITAL SPIN POPULATIONS

    Atom   Total    s     px     py     pz   
         Atomic
    1  C  0.0261  0.004  0.003  0.016  0.004
    2  C -0.0158 -0.002 -0.017 -0.001  0.005
    3  C  0.0267  0.004  0.011  0.003  0.009
    4  O  0.0009  0.000 -0.000  0.000  0.001
    5  C  0.5053  0.010  0.086  0.161  0.249
    6  C  0.3915  0.006  0.200  0.182  0.003
    7  C  0.0181 -0.002  0.005  0.022 -0.008
    8  C -0.0003 -0.000  0.000 -0.000 -0.000
    9  C  0.0022  0.000  0.001  0.001  0.001
   10  H -0.0006 -0.001
   11  H  0.0010  0.001
   12  H -0.0010 -0.001
   13  H -0.0005 -0.000
   14  H -0.0006 -0.001
   15  H  0.0003  0.000
   16  H -0.0073 -0.007
   17  H -0.0043 -0.004
   18  H  0.0251  0.025
   19  H  0.0322  0.032
   20  H  0.0008  0.001
   21  H  0.0006  0.001
   22  H  0.0001  0.000
   23  H -0.0002 -0.000

 **********************
 *                    *
 * JOB ENDED NORMALLY *
 *                    *
 **********************



 TOTAL JOB TIME:             1.52 SECONDS

 == MOPAC DONE ==
