 *******************************************************************************
 **                                                                           **
 **                              MOPAC v23.2                                  **
 **                                                                           **
 *******************************************************************************
 **          Digital Object Identifier (DOI): 10.5281/zenodo.6511958          **
 **    Visit the DOI location for information on how to cite this program.    **
 *******************************************************************************

                              PM7 CALCULATION RESULTS

 *******************************************************************************
 *  CALCULATION DONE: (MAX THREADS = 40)             Fri Sep 19 21:32:08 2025  *
 *  PM7        - The PM7 Hamiltonian to be used
 *
 *
 *
 *                 CHARGE ON SYSTEM = +1
 *
 *
 *
 *  EPS=37.5   - USE ANDREAS KLAMT'S COSMO IMPLICIT SOLVATION MODEL
 *  1SCF       - DO 1 SCF AND THEN STOP 
 *  T=         - A TIME OF 172800.0 SECONDS REQUESTED
 *  DUMP=N     - RESTART FILE WRITTEN EVERY 7200.0 SECONDS REQUESTED
 *  RELSCF     - DEFAULT SCF CRITERION MULTIPLIED BY 0.0001
 *              (DEFAULT SCF CRITERION = 0.00010)
 *  GRADIENTS  - ALL GRADIENTS TO BE PRINTED
 *  DISP       - PRINT DISPERSION AND HYDROGEN BOND ENERGIES
 *******************************************************************************
PM7 1SCF GRADIENTS EPS=37.5 DISP RELSCF=0.0001 CHARGE=1
 Title: ASE calculation

   ATOM   CHEMICAL          X               Y               Z
  NUMBER   SYMBOL      (ANGSTROMS)     (ANGSTROMS)     (ANGSTROMS)

     1       C         -2.25280287  *  -0.31607207  *   0.64031347  *
     2       C         -1.08366629  *   0.60736501  *   0.96448567  *
     3       C          0.11344920  *   0.29479984  *   0.05528140  *
     4       C         -0.12483617  *   0.59547099  *  -1.40579350  *
     5       C          0.82756605  *  -1.00826356  *   0.35417120  *
     6       C          2.16725976  *  -0.65331822  *   0.94276177  *
     7       O          3.02293474  *  -1.37475949  *   1.33551408  *
     8       C          2.23465431  *   0.87531204  *   0.94947260  *
     9       O          1.06430848  *   1.38191627  *   0.43236858  *
    10       H         -2.65379326  *  -0.15310557  *  -0.36956851  *
    11       H         -3.09326799  *  -0.13618393  *   1.33514705  *
    12       H         -1.99827632  *  -1.37906517  *   0.73600911  *
    13       H         -0.80462055  *   0.49297405  *   2.03400351  *
    14       H         -1.40823951  *   1.66574605  *   0.84644007  *
    15       H         -0.88873443  *  -0.09433808  *  -1.82044741  *
    16       H         -0.52092108  *   1.60967760  *  -1.58725040  *
    17       H          0.77037420  *   0.47114335  *  -2.03400351  *
    18       H          0.25609387  *  -1.66574605  *   1.05520301  *
    19       H          0.95448526  *  -1.65769466  *  -0.54629984  *
    20       H          2.39713679  *   1.32951189  *   1.96971237  *
    21       H          3.09326799  *   1.30468550  *   0.35601202  *



          CARTESIAN COORDINATES 

    NO.       ATOM           X           Y           Z

     1         C         -2.2528     -0.3161      0.6403
     2         C         -1.0837      0.6074      0.9645
     3         C          0.1134      0.2948      0.0553
     4         C         -0.1248      0.5955     -1.4058
     5         C          0.8276     -1.0083      0.3542
     6         C          2.1673     -0.6533      0.9428
     7         O          3.0229     -1.3748      1.3355
     8         C          2.2347      0.8753      0.9495
     9         O          1.0643      1.3819      0.4324
    10         H         -2.6538     -0.1531     -0.3696
    11         H         -3.0933     -0.1362      1.3351
    12         H         -1.9983     -1.3791      0.7360
    13         H         -0.8046      0.4930      2.0340
    14         H         -1.4082      1.6657      0.8464
    15         H         -0.8887     -0.0943     -1.8204
    16         H         -0.5209      1.6097     -1.5873
    17         H          0.7704      0.4711     -2.0340
    18         H          0.2561     -1.6657      1.0552
    19         H          0.9545     -1.6577     -0.5463
    20         H          2.3971      1.3295      1.9697
    21         H          3.0933      1.3047      0.3560

 General Reference for PM7:
 "Optimization of Parameters for Semiempirical Methods VI: More Modifications to the 
 NDDO Approximations and Re-optimization of Parameters", J. J. P. Stewart, J. Mol. Mod., 1:32, 19 (2013)
 https://link.springer.com/article/10.1007/s00894-012-1667-x

           Empirical Formula: C7 H12 O2  =    21 atoms



      MOLECULAR POINT GROUP   :   C1  


          UHF CALCULATION, NO. OF ALPHA ELECTRONS =   26
                           NO. OF BETA  ELECTRONS =   25
  SCF CRITERION =    0.1000E-07

 -------------------------------------------------------------------------------
 PM7 1SCF GRADIENTS EPS=37.5 DISP RELSCF=0.0001 CHARGE=1
 Title: ASE calculation



     1SCF WAS SPECIFIED, SO BFGS WAS NOT USED                 
     SCF FIELD WAS ACHIEVED                                   


                              PM7 CALCULATION
                                                       MOPAC v23.2 Linux
                                                       Fri Sep 19 21:32:09 2025




          FINAL HEAT OF FORMATION =         56.71730 KCAL/MOL =     237.30520 KJ/MOL

          TOTAL ENERGY            =     -37038.43934 KCAL/MOL = ELECTRONIC ENERGY + CORE-CORE REPULSION + SOLVATION ENERGY
          ENERGY OF ATOMS         =      37097.27293 KCAL/MOL
                              SUM =         58.83359 KCAL/MOL
          DISPERSION ENERGY       =         -2.11629 KCAL/MOL
                              SUM =         56.71730 KCAL/MOL = FINAL HEAT OF FORMATION

          VAN DER WAALS AREA      =        167.20 SQUARE ANGSTROMS


          TOTAL ENERGY            =      -1606.13874 EV
          ELECTRONIC ENERGY       =      -2495.39934 EV 
          CORE-CORE REPULSION     =        889.26059 EV

          DIELECTRIC ENERGY       =         -2.59353 EV
          COSMO AREA              =        167.20 SQUARE ANGSTROMS
          COSMO VOLUME            =        169.86 CUBIC ANGSTROMS

          GRADIENT NORM           =         35.87256          =       7.82803 PER ATOM
          IONIZATION POTENTIAL    =         11.564493 EV
          ALPHA SOMO LUMO (EV)    =        -11.583 -0.859
          BETA  SOMO LUMO (EV)    =        -11.564 -3.799
          NO. OF ALPHA ELECTRONS  =         26
          NO. OF BETA  ELECTRONS  =         25
          MOLECULAR WEIGHT        =        128.1706         POINT GROUP:  C1  

          MOLECULAR DIMENSIONS (Angstroms)

            Atom       Atom       Distance
            H    21    H    11     6.42713
            H    16    O     7     4.97320
            H    19    H    20     3.81126


          SCF CALCULATIONS        =          2

          WALL-CLOCK TIME         =      1.156 SECONDS
          COMPUTATION TIME        =      0.651 SECONDS

          LARGEST ATOMIC GRADIENTS

          Atom     Label                     Cartesian Gradients           Cartesian Coordinates       |Gradient|
                                           X          Y          Z        X          Y          Z

             6       C                  14.980    -19.214      7.186    2.16726   -0.65332    0.94276     25.402
             8       C                   7.871     13.378      3.403    2.23465    0.87531    0.94947     15.890
             7       O                  -9.971     10.413     -4.539    3.02293   -1.37476    1.33551     15.115
             5       C                  -4.140      1.797     -2.813    0.82757   -1.00826    0.35417      5.318
             1       C                   4.280     -0.313     -2.102   -2.25280   -0.31607    0.64031      4.779
             2       C                   1.226      3.441      2.241   -1.08367    0.60737    0.96449      4.285
             3       C                  -1.111     -3.908     -1.215    0.11345    0.29480    0.05528      4.241
             9       O                  -3.654     -0.116     -1.901    1.06431    1.38192    0.43237      4.120
             4       C                   2.681      2.469      0.711   -0.12484    0.59547   -1.40579      3.713
            20       H                  -1.004     -2.975     -0.701    2.39714    1.32951    1.96971      3.217



       FINAL  POINT  AND  DERIVATIVES

   PARAMETER     ATOM    TYPE            VALUE        GRADIENT
      1          1  C    CARTESIAN X    -2.252803      4.280291  KCAL/ANGSTROM
      2          1  C    CARTESIAN Y    -0.316072     -0.312923  KCAL/ANGSTROM
      3          1  C    CARTESIAN Z     0.640313     -2.102412  KCAL/ANGSTROM
      4          2  C    CARTESIAN X    -1.083666      1.225652  KCAL/ANGSTROM
      5          2  C    CARTESIAN Y     0.607365      3.440695  KCAL/ANGSTROM
      6          2  C    CARTESIAN Z     0.964486      2.240632  KCAL/ANGSTROM
      7          3  C    CARTESIAN X     0.113449     -1.111415  KCAL/ANGSTROM
      8          3  C    CARTESIAN Y     0.294800     -3.907801  KCAL/ANGSTROM
      9          3  C    CARTESIAN Z     0.055281     -1.215418  KCAL/ANGSTROM
     10          4  C    CARTESIAN X    -0.124836      2.680682  KCAL/ANGSTROM
     11          4  C    CARTESIAN Y     0.595471      2.468844  KCAL/ANGSTROM
     12          4  C    CARTESIAN Z    -1.405793      0.710701  KCAL/ANGSTROM
     13          5  C    CARTESIAN X     0.827566     -4.139648  KCAL/ANGSTROM
     14          5  C    CARTESIAN Y    -1.008264      1.797174  KCAL/ANGSTROM
     15          5  C    CARTESIAN Z     0.354171     -2.812801  KCAL/ANGSTROM
     16          6  C    CARTESIAN X     2.167260     14.979939  KCAL/ANGSTROM
     17          6  C    CARTESIAN Y    -0.653318    -19.214496  KCAL/ANGSTROM
     18          6  C    CARTESIAN Z     0.942762      7.186366  KCAL/ANGSTROM
     19          7  O    CARTESIAN X     3.022935     -9.971462  KCAL/ANGSTROM
     20          7  O    CARTESIAN Y    -1.374759     10.412710  KCAL/ANGSTROM
     21          7  O    CARTESIAN Z     1.335514     -4.539411  KCAL/ANGSTROM
     22          8  C    CARTESIAN X     2.234654      7.871352  KCAL/ANGSTROM
     23          8  C    CARTESIAN Y     0.875312     13.377975  KCAL/ANGSTROM
     24          8  C    CARTESIAN Z     0.949473      3.402798  KCAL/ANGSTROM
     25          9  O    CARTESIAN X     1.064308     -3.653561  KCAL/ANGSTROM
     26          9  O    CARTESIAN Y     1.381916     -0.116259  KCAL/ANGSTROM
     27          9  O    CARTESIAN Z     0.432369     -1.901015  KCAL/ANGSTROM
     28         10  H    CARTESIAN X    -2.653793     -1.508203  KCAL/ANGSTROM
     29         10  H    CARTESIAN Y    -0.153106      0.227731  KCAL/ANGSTROM
     30         10  H    CARTESIAN Z    -0.369569      0.080956  KCAL/ANGSTROM
     31         11  H    CARTESIAN X    -3.093268     -1.911482  KCAL/ANGSTROM
     32         11  H    CARTESIAN Y    -0.136184     -0.129749  KCAL/ANGSTROM
     33         11  H    CARTESIAN Z     1.335147      0.860821  KCAL/ANGSTROM
     34         12  H    CARTESIAN X    -1.998276     -1.220963  KCAL/ANGSTROM
     35         12  H    CARTESIAN Y    -1.379065     -0.268870  KCAL/ANGSTROM
     36         12  H    CARTESIAN Z     0.736009      0.735053  KCAL/ANGSTROM
     37         13  H    CARTESIAN X    -0.804621     -1.168192  KCAL/ANGSTROM
     38         13  H    CARTESIAN Y     0.492974     -0.922334  KCAL/ANGSTROM
     39         13  H    CARTESIAN Z     2.034004      0.000175  KCAL/ANGSTROM
     40         14  H    CARTESIAN X    -1.408240     -1.851837  KCAL/ANGSTROM
     41         14  H    CARTESIAN Y     1.665746     -0.245259  KCAL/ANGSTROM
     42         14  H    CARTESIAN Z     0.846440     -0.080223  KCAL/ANGSTROM
     43         15  H    CARTESIAN X    -0.888734     -1.144415  KCAL/ANGSTROM
     44         15  H    CARTESIAN Y    -0.094338     -0.437543  KCAL/ANGSTROM
     45         15  H    CARTESIAN Z    -1.820447     -0.502521  KCAL/ANGSTROM
     46         16  H    CARTESIAN X    -0.520921     -1.300312  KCAL/ANGSTROM
     47         16  H    CARTESIAN Y     1.609678      0.202563  KCAL/ANGSTROM
     48         16  H    CARTESIAN Z    -1.587250     -1.153487  KCAL/ANGSTROM
     49         17  H    CARTESIAN X     0.770374     -0.651077  KCAL/ANGSTROM
     50         17  H    CARTESIAN Y     0.471143     -0.363273  KCAL/ANGSTROM
     51         17  H    CARTESIAN Z    -2.034004     -1.079366  KCAL/ANGSTROM
     52         18  H    CARTESIAN X     0.256094      0.397705  KCAL/ANGSTROM
     53         18  H    CARTESIAN Y    -1.665746      0.127674  KCAL/ANGSTROM
     54         18  H    CARTESIAN Z     1.055203      0.251195  KCAL/ANGSTROM
     55         19  H    CARTESIAN X     0.954485      0.465258  KCAL/ANGSTROM
     56         19  H    CARTESIAN Y    -1.657695     -0.272881  KCAL/ANGSTROM
     57         19  H    CARTESIAN Z    -0.546300      0.695874  KCAL/ANGSTROM
     58         20  H    CARTESIAN X     2.397137     -1.004297  KCAL/ANGSTROM
     59         20  H    CARTESIAN Y     1.329512     -2.974992  KCAL/ANGSTROM
     60         20  H    CARTESIAN Z     1.969712     -0.700529  KCAL/ANGSTROM
     61         21  H    CARTESIAN X     3.093268     -1.264017  KCAL/ANGSTROM
     62         21  H    CARTESIAN Y     1.304685     -2.888992  KCAL/ANGSTROM
     63         21  H    CARTESIAN Z     0.356012     -0.077390  KCAL/ANGSTROM




   ATOM   CHEMICAL          X               Y               Z
  NUMBER   SYMBOL      (ANGSTROMS)     (ANGSTROMS)     (ANGSTROMS)

     1       C         -2.25280287  *  -0.31607207  *   0.64031347  *
     2       C         -1.08366629  *   0.60736501  *   0.96448567  *
     3       C          0.11344920  *   0.29479984  *   0.05528140  *
     4       C         -0.12483617  *   0.59547099  *  -1.40579350  *
     5       C          0.82756605  *  -1.00826356  *   0.35417120  *
     6       C          2.16725976  *  -0.65331822  *   0.94276177  *
     7       O          3.02293474  *  -1.37475949  *   1.33551408  *
     8       C          2.23465431  *   0.87531204  *   0.94947260  *
     9       O          1.06430848  *   1.38191627  *   0.43236858  *
    10       H         -2.65379326  *  -0.15310557  *  -0.36956851  *
    11       H         -3.09326799  *  -0.13618393  *   1.33514705  *
    12       H         -1.99827632  *  -1.37906517  *   0.73600911  *
    13       H         -0.80462055  *   0.49297405  *   2.03400351  *
    14       H         -1.40823951  *   1.66574605  *   0.84644007  *
    15       H         -0.88873443  *  -0.09433808  *  -1.82044741  *
    16       H         -0.52092108  *   1.60967760  *  -1.58725040  *
    17       H          0.77037420  *   0.47114335  *  -2.03400351  *
    18       H          0.25609387  *  -1.66574605  *   1.05520301  *
    19       H          0.95448526  *  -1.65769466  *  -0.54629984  *
    20       H          2.39713679  *   1.32951189  *   1.96971237  *
    21       H          3.09326799  *   1.30468550  *   0.35601202  *

                             CARTESIAN COORDINATES

   1    C       -2.252802873    -0.316072066     0.640313473
   2    C       -1.083666294     0.607365010     0.964485668
   3    C        0.113449199     0.294799845     0.055281395
   4    C       -0.124836166     0.595470986    -1.405793497
   5    C        0.827566053    -1.008263564     0.354171197
   6    C        2.167259763    -0.653318218     0.942761772
   7    O        3.022934735    -1.374759486     1.335514082
   8    C        2.234654313     0.875312038     0.949472600
   9    O        1.064308484     1.381916266     0.432368579
  10    H       -2.653793259    -0.153105566    -0.369568511
  11    H       -3.093267992    -0.136183931     1.335147049
  12    H       -1.998276315    -1.379065170     0.736009107
  13    H       -0.804620549     0.492974046     2.034003514
  14    H       -1.408239507     1.665746055     0.846440068
  15    H       -0.888734429    -0.094338078    -1.820447414
  16    H       -0.520921081     1.609677599    -1.587250403
  17    H        0.770374204     0.471143347    -2.034003514
  18    H        0.256093869    -1.665746055     1.055203013
  19    H        0.954485261    -1.657694661    -0.546299838
  20    H        2.397136788     1.329511891     1.969712368
  21    H        3.093267992     1.304685496     0.356012021


           Empirical Formula: C7 H12 O2  =    21 atoms



      MOLECULAR POINT GROUP   :   C1  


          ALPHA EIGENVALUES  
 -35.70855 -32.76007 -30.52872 -28.21803 -26.54419 -25.04391 -23.14967 -21.32872
 -20.36774 -18.59346 -18.32054 -17.16484 -16.67806 -16.33147 -15.83591 -15.82632
 -15.17751 -14.56952 -14.00078 -13.93816 -13.62801 -13.41409 -13.36595 -12.49617
 -12.33789 -11.58328  -0.85949  -0.31742   1.20821   1.57703   2.34033   2.46744
   2.56662   2.84954   3.64943   3.72285   3.99259   4.42091   4.44368   4.82794
   4.93168   5.04090   5.34516   5.38061   5.55806   5.75796   6.19586   6.60275


           BETA EIGENVALUES 
 -33.24886 -32.55413 -29.93051 -27.73075 -26.45864 -24.83855 -22.96897 -21.17078
 -20.23248 -17.97074 -17.75339 -16.99724 -16.54411 -15.88628 -15.71855 -15.26877
 -14.92539 -14.46348 -13.96928 -13.83536 -13.44328 -13.37615 -12.58074 -12.37759
 -11.56449  -3.79920  -0.31009  -0.27729   1.45331   1.67122   2.34564   2.51069
   2.64489   2.88611   3.73415   3.85846   3.99994   4.44246   4.53343   4.83251
   4.94065   5.04453   5.34739   5.38436   5.55950   5.75925   6.19719   6.60346


              NET ATOMIC CHARGES AND DIPOLE CONTRIBUTIONS

  ATOM NO.   TYPE          CHARGE      No. of ELECS.   s-Pop       p-Pop       
    1          C          -0.433325        4.4333     1.05183     3.38150
    2          C          -0.303860        4.3039     1.06872     3.23514
    3          C           0.181636        3.8184     1.12392     2.69445
    4          C          -0.500580        4.5006     1.06180     3.43878
    5          C          -0.465400        4.4654     1.08260     3.38280
    6          C           0.527731        3.4723     1.12151     2.35076
    7          O          -0.426372        6.4264     1.86842     4.55795
    8          C          -0.340623        4.3406     1.13834     3.20229
    9          O           0.239195        5.7608     1.90973     3.85108
   10          H           0.162271        0.8377     0.83773
   11          H           0.169241        0.8308     0.83076
   12          H           0.160517        0.8395     0.83948
   13          H           0.178202        0.8218     0.82180
   14          H           0.184006        0.8160     0.81599
   15          H           0.209185        0.7908     0.79082
   16          H           0.195949        0.8041     0.80405
   17          H           0.191277        0.8087     0.80872
   18          H           0.237577        0.7624     0.76242
   19          H           0.239694        0.7603     0.76031
   20          H           0.297100        0.7029     0.70290
   21          H           0.296583        0.7034     0.70342
 DIPOLE           X         Y         Z       TOTAL
 POINT-CHG.    -0.975     4.316    -1.211     4.588
 HYBRID         0.251     0.098     0.025     0.271
 SUM           -0.724     4.414    -1.186     4.628


          ATOMIC ORBITAL ELECTRON POPULATIONS

     Atom    s        px        py        pz   
    1  C   1.05183   1.07188   1.11865   1.19097
    2  C   1.06872   0.98850   1.14655   1.10008
    3  C   1.12392   0.87328   0.83846   0.98270
    4  C   1.06180   1.22181   1.22457   0.99240
    5  C   1.08260   1.06643   1.08818   1.22819
    6  C   1.12151   0.82444   0.84708   0.67925
    7  O   1.86842   1.47980   1.64697   1.43118
    8  C   1.13834   0.94359   1.09827   1.16043
    9  O   1.90973   1.22355   1.40199   1.22554
   10  H   0.83773
   11  H   0.83076
   12  H   0.83948
   13  H   0.82180
   14  H   0.81599
   15  H   0.79082
   16  H   0.80405
   17  H   0.80872
   18  H   0.76242
   19  H   0.76031
   20  H   0.70290
   21  H   0.70342


                    (SZ)    =    0.500000
                    (S**2)  =    0.758426


          ATOMIC ORBITAL SPIN POPULATIONS

    Atom   Total    s     px     py     pz   
         Atomic
    1  C  0.0007 -0.000  0.001 -0.000 -0.000
    2  C  0.0354  0.004  0.019  0.001  0.011
    3  C -0.0511 -0.005 -0.026 -0.021  0.000
    4  C  0.0311  0.004  0.002  0.000  0.025
    5  C  0.0007  0.000  0.001 -0.001  0.001
    6  C -0.0062 -0.001 -0.001 -0.001 -0.003
    7  O  0.0056  0.000  0.001 -0.001  0.005
    8  C  0.0127 -0.008 -0.023 -0.005  0.048
    9  O  0.8594  0.017  0.151  0.044  0.647
   10  H  0.0001  0.000
   11  H  0.0013  0.001
   12  H  0.0000  0.000
   13  H -0.0011 -0.001
   14  H -0.0013 -0.001
   15  H -0.0001 -0.000
   16  H -0.0010 -0.001
   17  H -0.0013 -0.001
   18  H  0.0002  0.000
   19  H  0.0004  0.000
   20  H  0.0579  0.058
   21  H  0.0566  0.057

 **********************
 *                    *
 * JOB ENDED NORMALLY *
 *                    *
 **********************



 TOTAL JOB TIME:             1.46 SECONDS

 == MOPAC DONE ==
