 *******************************************************************************
 **                                                                           **
 **                              MOPAC v23.2                                  **
 **                                                                           **
 *******************************************************************************
 **          Digital Object Identifier (DOI): 10.5281/zenodo.6511958          **
 **    Visit the DOI location for information on how to cite this program.    **
 *******************************************************************************

                              PM7 CALCULATION RESULTS

 *******************************************************************************
 *  CALCULATION DONE: (MAX THREADS = 40)             Fri Sep 19 21:38:16 2025  *
 *  PM7        - The PM7 Hamiltonian to be used
 *  EPS=37.5   - USE ANDREAS KLAMT'S COSMO IMPLICIT SOLVATION MODEL
 *  1SCF       - DO 1 SCF AND THEN STOP 
 *  T=         - A TIME OF 172800.0 SECONDS REQUESTED
 *  DUMP=N     - RESTART FILE WRITTEN EVERY 7200.0 SECONDS REQUESTED
 *  RELSCF     - DEFAULT SCF CRITERION MULTIPLIED BY 0.0001
 *              (DEFAULT SCF CRITERION = 0.00010)
 *  GRADIENTS  - ALL GRADIENTS TO BE PRINTED
 *  DISP       - PRINT DISPERSION AND HYDROGEN BOND ENERGIES
 *******************************************************************************
PM7 1SCF GRADIENTS EPS=37.5 DISP RELSCF=0.0001
 Title: ASE calculation

   ATOM   CHEMICAL          X               Y               Z
  NUMBER   SYMBOL      (ANGSTROMS)     (ANGSTROMS)     (ANGSTROMS)

     1       C         -1.20019769  *  -1.82809103  *   0.71161251  *
     2       C         -0.83609801  *  -0.77763779  *  -0.33159911  *
     3       C         -1.69566164  *   0.49404919  *  -0.18642340  *
     4       C         -0.71549621  *   1.59788878  *   0.10574106  *
     5       O         -0.90786930  *   2.75929173  *   0.31743410  *
     6       O          0.57408295  *   1.11620316  *   0.11411908  *
     7       C          0.58949109  *  -0.26756195  *  -0.16826747  *
     8       C          1.76384633  *  -0.69183039  *  -1.01400568  *
     9       C          1.74606193  *  -0.98661517  *   0.47272129  *
    10       H         -0.98230576  *  -1.48009327  *   1.73005127  *
    11       H         -2.26674534  *  -2.08070772  *   0.66774739  *
    12       H         -0.64130751  *  -2.75929173  *   0.55841581  *
    13       H         -0.96400694  *  -1.21209684  *  -1.35160921  *
    14       H         -2.27366023  *   0.71564256  *  -1.10255454  *
    15       H         -2.44342130  *   0.41378584  *   0.62638753  *
    16       H          1.65989775  *  -1.49949215  *  -1.73005127  *
    17       H          2.44342130  *   0.06690424  *  -1.40064287  *
    18       H          2.41060096  *  -0.42887825  *   1.13188293  *
    19       H          1.63908554  *  -2.00566565  *   0.82769008  *



          CARTESIAN COORDINATES 

    NO.       ATOM           X           Y           Z

     1         C         -1.2002     -1.8281      0.7116
     2         C         -0.8361     -0.7776     -0.3316
     3         C         -1.6957      0.4940     -0.1864
     4         C         -0.7155      1.5979      0.1057
     5         O         -0.9079      2.7593      0.3174
     6         O          0.5741      1.1162      0.1141
     7         C          0.5895     -0.2676     -0.1683
     8         C          1.7638     -0.6918     -1.0140
     9         C          1.7461     -0.9866      0.4727
    10         H         -0.9823     -1.4801      1.7301
    11         H         -2.2667     -2.0807      0.6677
    12         H         -0.6413     -2.7593      0.5584
    13         H         -0.9640     -1.2121     -1.3516
    14         H         -2.2737      0.7156     -1.1026
    15         H         -2.4434      0.4138      0.6264
    16         H          1.6599     -1.4995     -1.7301
    17         H          2.4434      0.0669     -1.4006
    18         H          2.4106     -0.4289      1.1319
    19         H          1.6391     -2.0057      0.8277

 General Reference for PM7:
 "Optimization of Parameters for Semiempirical Methods VI: More Modifications to the 
 NDDO Approximations and Re-optimization of Parameters", J. J. P. Stewart, J. Mol. Mod., 1:32, 19 (2013)
 https://link.springer.com/article/10.1007/s00894-012-1667-x

           Empirical Formula: C7 H10 O2  =    19 atoms



      MOLECULAR POINT GROUP   :   C1  


      RHF CALCULATION, NO. OF DOUBLY OCCUPIED LEVELS = 25

  SCF CRITERION =    0.1000E-07

 -------------------------------------------------------------------------------
 PM7 1SCF GRADIENTS EPS=37.5 DISP RELSCF=0.0001
 Title: ASE calculation



     1SCF WAS SPECIFIED, SO BFGS WAS NOT USED                 
     SCF FIELD WAS ACHIEVED                                   


                              PM7 CALCULATION
                                                       MOPAC v23.2 Linux
                                                       Fri Sep 19 21:38:17 2025




          FINAL HEAT OF FORMATION =        -80.01982 KCAL/MOL =    -334.80291 KJ/MOL

          TOTAL ENERGY            =     -36560.69726 KCAL/MOL = ELECTRONIC ENERGY + CORE-CORE REPULSION + SOLVATION ENERGY
          ENERGY OF ATOMS         =      36482.50324 KCAL/MOL
                              SUM =        -78.19402 KCAL/MOL
          DISPERSION ENERGY       =         -1.82580 KCAL/MOL
                              SUM =        -80.01982 KCAL/MOL = FINAL HEAT OF FORMATION

          VAN DER WAALS AREA      =        159.86 SQUARE ANGSTROMS


          TOTAL ENERGY            =      -1585.42189 EV
          ELECTRONIC ENERGY       =      -2386.10699 EV 
          CORE-CORE REPULSION     =        800.68510 EV

          DIELECTRIC ENERGY       =         -0.46066 EV
          COSMO AREA              =        159.86 SQUARE ANGSTROMS
          COSMO VOLUME            =        158.76 CUBIC ANGSTROMS

          GRADIENT NORM           =         33.69379          =       7.72988 PER ATOM
          IONIZATION POTENTIAL    =         10.697231 EV
          HOMO LUMO ENERGIES (EV) =        -10.697  0.580
          NO. OF FILLED LEVELS    =         25
          MOLECULAR WEIGHT        =        126.1548         POINT GROUP:  C1  

          MOLECULAR DIMENSIONS (Angstroms)

            Atom       Atom       Distance
            H    17    H    11     5.57460
            O     5    H    19     5.42550
            H    13    H    18     3.46812


          SCF CALCULATIONS        =          2

          WALL-CLOCK TIME         =      0.555 SECONDS
          COMPUTATION TIME        =      0.406 SECONDS

          LARGEST ATOMIC GRADIENTS

          Atom     Label                     Cartesian Gradients           Cartesian Coordinates       |Gradient|
                                           X          Y          Z        X          Y          Z

             4       C                   2.650     23.513      5.022   -0.71550    1.59789    0.10574     24.189
             5       O                  -1.373    -14.129     -3.023   -0.90787    2.75929    0.31743     14.514
             6       O                   2.958     -9.461     -1.650    0.57408    1.11620    0.11412     10.049
             7       C                  -0.365      9.269      2.105    0.58949   -0.26756   -0.16827      9.512
             3       C                  -7.271     -5.569     -2.091   -1.69566    0.49405   -0.18642      9.394
             9       C                  -0.415     -3.469      1.146    1.74606   -0.98662    0.47272      3.677
             8       C                  -0.047     -2.624     -2.260    1.76385   -0.69183   -1.01401      3.464
            14       H                   1.969     -0.078      1.724   -2.27366    0.71564   -1.10255      2.618
             1       C                  -1.528     -1.886      0.374   -1.20020   -1.82809    0.71161      2.456
             2       C                  -0.109     -1.315     -1.798   -0.83610   -0.77764   -0.33160      2.230



       FINAL  POINT  AND  DERIVATIVES

   PARAMETER     ATOM    TYPE            VALUE        GRADIENT
      1          1  C    CARTESIAN X    -1.200198     -1.527995  KCAL/ANGSTROM
      2          1  C    CARTESIAN Y    -1.828091     -1.886378  KCAL/ANGSTROM
      3          1  C    CARTESIAN Z     0.711613      0.373515  KCAL/ANGSTROM
      4          2  C    CARTESIAN X    -0.836098     -0.109056  KCAL/ANGSTROM
      5          2  C    CARTESIAN Y    -0.777638     -1.314859  KCAL/ANGSTROM
      6          2  C    CARTESIAN Z    -0.331599     -1.798049  KCAL/ANGSTROM
      7          3  C    CARTESIAN X    -1.695662     -7.270683  KCAL/ANGSTROM
      8          3  C    CARTESIAN Y     0.494049     -5.568949  KCAL/ANGSTROM
      9          3  C    CARTESIAN Z    -0.186423     -2.091190  KCAL/ANGSTROM
     10          4  C    CARTESIAN X    -0.715496      2.650367  KCAL/ANGSTROM
     11          4  C    CARTESIAN Y     1.597889     23.513127  KCAL/ANGSTROM
     12          4  C    CARTESIAN Z     0.105741      5.021640  KCAL/ANGSTROM
     13          5  O    CARTESIAN X    -0.907869     -1.373055  KCAL/ANGSTROM
     14          5  O    CARTESIAN Y     2.759292    -14.128559  KCAL/ANGSTROM
     15          5  O    CARTESIAN Z     0.317434     -3.023317  KCAL/ANGSTROM
     16          6  O    CARTESIAN X     0.574083      2.958065  KCAL/ANGSTROM
     17          6  O    CARTESIAN Y     1.116203     -9.461155  KCAL/ANGSTROM
     18          6  O    CARTESIAN Z     0.114119     -1.649812  KCAL/ANGSTROM
     19          7  C    CARTESIAN X     0.589491     -0.364930  KCAL/ANGSTROM
     20          7  C    CARTESIAN Y    -0.267562      9.269188  KCAL/ANGSTROM
     21          7  C    CARTESIAN Z    -0.168267      2.105384  KCAL/ANGSTROM
     22          8  C    CARTESIAN X     1.763846     -0.046587  KCAL/ANGSTROM
     23          8  C    CARTESIAN Y    -0.691830     -2.624288  KCAL/ANGSTROM
     24          8  C    CARTESIAN Z    -1.014006     -2.260170  KCAL/ANGSTROM
     25          9  C    CARTESIAN X     1.746062     -0.415193  KCAL/ANGSTROM
     26          9  C    CARTESIAN Y    -0.986615     -3.469168  KCAL/ANGSTROM
     27          9  C    CARTESIAN Z     0.472721      1.145868  KCAL/ANGSTROM
     28         10  H    CARTESIAN X    -0.982306      0.603235  KCAL/ANGSTROM
     29         10  H    CARTESIAN Y    -1.480093      0.560085  KCAL/ANGSTROM
     30         10  H    CARTESIAN Z     1.730051     -0.346654  KCAL/ANGSTROM
     31         11  H    CARTESIAN X    -2.266745      0.474619  KCAL/ANGSTROM
     32         11  H    CARTESIAN Y    -2.080708      0.429210  KCAL/ANGSTROM
     33         11  H    CARTESIAN Z     0.667747     -0.154021  KCAL/ANGSTROM
     34         12  H    CARTESIAN X    -0.641308     -0.183849  KCAL/ANGSTROM
     35         12  H    CARTESIAN Y    -2.759292      0.478545  KCAL/ANGSTROM
     36         12  H    CARTESIAN Z     0.558416     -0.055601  KCAL/ANGSTROM
     37         13  H    CARTESIAN X    -0.964007      0.187898  KCAL/ANGSTROM
     38         13  H    CARTESIAN Y    -1.212097      0.567919  KCAL/ANGSTROM
     39         13  H    CARTESIAN Z    -1.351609      1.342310  KCAL/ANGSTROM
     40         14  H    CARTESIAN X    -2.273660      1.968971  KCAL/ANGSTROM
     41         14  H    CARTESIAN Y     0.715643     -0.078363  KCAL/ANGSTROM
     42         14  H    CARTESIAN Z    -1.102555      1.724117  KCAL/ANGSTROM
     43         15  H    CARTESIAN X    -2.443421      1.939154  KCAL/ANGSTROM
     44         15  H    CARTESIAN Y     0.413786      0.399254  KCAL/ANGSTROM
     45         15  H    CARTESIAN Z     0.626388     -0.722336  KCAL/ANGSTROM
     46         16  H    CARTESIAN X     1.659898      0.700542  KCAL/ANGSTROM
     47         16  H    CARTESIAN Y    -1.499492      0.922062  KCAL/ANGSTROM
     48         16  H    CARTESIAN Z    -1.730051      1.328883  KCAL/ANGSTROM
     49         17  H    CARTESIAN X     2.443421     -0.442291  KCAL/ANGSTROM
     50         17  H    CARTESIAN Y     0.066904      0.434016  KCAL/ANGSTROM
     51         17  H    CARTESIAN Z    -1.400643      0.408717  KCAL/ANGSTROM
     52         18  H    CARTESIAN X     2.410601     -0.753171  KCAL/ANGSTROM
     53         18  H    CARTESIAN Y    -0.428878      0.624611  KCAL/ANGSTROM
     54         18  H    CARTESIAN Z     1.131883     -0.753188  KCAL/ANGSTROM
     55         19  H    CARTESIAN X     1.639086      1.003957  KCAL/ANGSTROM
     56         19  H    CARTESIAN Y    -2.005666      1.333697  KCAL/ANGSTROM
     57         19  H    CARTESIAN Z     0.827690     -0.596100  KCAL/ANGSTROM




   ATOM   CHEMICAL          X               Y               Z
  NUMBER   SYMBOL      (ANGSTROMS)     (ANGSTROMS)     (ANGSTROMS)

     1       C         -1.20019769  *  -1.82809103  *   0.71161251  *
     2       C         -0.83609801  *  -0.77763779  *  -0.33159911  *
     3       C         -1.69566164  *   0.49404919  *  -0.18642340  *
     4       C         -0.71549621  *   1.59788878  *   0.10574106  *
     5       O         -0.90786930  *   2.75929173  *   0.31743410  *
     6       O          0.57408295  *   1.11620316  *   0.11411908  *
     7       C          0.58949109  *  -0.26756195  *  -0.16826747  *
     8       C          1.76384633  *  -0.69183039  *  -1.01400568  *
     9       C          1.74606193  *  -0.98661517  *   0.47272129  *
    10       H         -0.98230576  *  -1.48009327  *   1.73005127  *
    11       H         -2.26674534  *  -2.08070772  *   0.66774739  *
    12       H         -0.64130751  *  -2.75929173  *   0.55841581  *
    13       H         -0.96400694  *  -1.21209684  *  -1.35160921  *
    14       H         -2.27366023  *   0.71564256  *  -1.10255454  *
    15       H         -2.44342130  *   0.41378584  *   0.62638753  *
    16       H          1.65989775  *  -1.49949215  *  -1.73005127  *
    17       H          2.44342130  *   0.06690424  *  -1.40064287  *
    18       H          2.41060096  *  -0.42887825  *   1.13188293  *
    19       H          1.63908554  *  -2.00566565  *   0.82769008  *

                             CARTESIAN COORDINATES

   1    C       -1.200197688    -1.828091029     0.711612506
   2    C       -0.836098009    -0.777637794    -0.331599110
   3    C       -1.695661643     0.494049189    -0.186423405
   4    C       -0.715496215     1.597888783     0.105741063
   5    O       -0.907869295     2.759291726     0.317434101
   6    O        0.574082951     1.116203162     0.114119084
   7    C        0.589491088    -0.267561953    -0.168267471
   8    C        1.763846329    -0.691830386    -1.014005681
   9    C        1.746061925    -0.986615171     0.472721292
  10    H       -0.982305765    -1.480093270     1.730051275
  11    H       -2.266745339    -2.080707721     0.667747393
  12    H       -0.641307514    -2.759291726     0.558415811
  13    H       -0.964006940    -1.212096835    -1.351609213
  14    H       -2.273660230     0.715642565    -1.102554543
  15    H       -2.443421305     0.413785836     0.626387527
  16    H        1.659897752    -1.499492153    -1.730051275
  17    H        2.443421305     0.066904240    -1.400642869
  18    H        2.410600959    -0.428878253     1.131882934
  19    H        1.639085539    -2.005665652     0.827690080


           Empirical Formula: C7 H10 O2  =    19 atoms



      MOLECULAR POINT GROUP   :   C1  


                  EIGENVALUES  
 -32.26278 -31.69184 -29.85203 -28.53379 -25.02837 -22.22981 -21.31850 -20.98864
 -19.66110 -17.17577 -16.92536 -16.48049 -16.05162 -15.04155 -14.51511 -14.36570
 -13.94297 -13.72477 -12.92896 -12.62064 -12.55857 -12.17868 -11.90132 -11.38135
 -10.69723   0.57985   1.27736   2.07335   2.39588   2.88632   3.45580   3.77106
   3.92004   4.16481   4.21789   4.72347   5.08310   5.42546   5.52619   5.68861
   5.82945   5.89923   5.95318   6.24107   6.29304   6.86944


              NET ATOMIC CHARGES AND DIPOLE CONTRIBUTIONS

  ATOM NO.   TYPE          CHARGE      No. of ELECS.   s-Pop       p-Pop       
    1          C          -0.456270        4.4563     1.05536     3.40091
    2          C          -0.096578        4.0966     1.06440     3.03218
    3          C          -0.394505        4.3945     1.07973     3.31478
    4          C           0.666628        3.3334     1.12552     2.20785
    5          O          -0.556833        6.5568     1.86949     4.68734
    6          O          -0.428862        6.4289     1.86921     4.55965
    7          C           0.199873        3.8001     1.06520     2.73493
    8          C          -0.362681        4.3627     1.06007     3.30261
    9          C          -0.347735        4.3477     1.05895     3.28879
   10          H           0.161718        0.8383     0.83828
   11          H           0.161104        0.8389     0.83890
   12          H           0.157700        0.8423     0.84230
   13          H           0.171203        0.8288     0.82880
   14          H           0.204960        0.7950     0.79504
   15          H           0.207964        0.7920     0.79204
   16          H           0.175639        0.8244     0.82436
   17          H           0.181120        0.8189     0.81888
   18          H           0.179488        0.8205     0.82051
   19          H           0.176067        0.8239     0.82393
 DIPOLE           X         Y         Z       TOTAL
 POINT-CHG.    -1.721    -6.537    -1.273     6.879
 HYBRID         0.317     0.631     0.189     0.731
 SUM           -1.404    -5.906    -1.083     6.167


          ATOMIC ORBITAL ELECTRON POPULATIONS

     Atom    s        px        py        pz   
    1  C   1.05536   1.18126   1.10674   1.11291
    2  C   1.06440   0.93918   0.98486   1.10814
    3  C   1.07973   1.08783   1.01205   1.21490
    4  C   1.12552   0.77325   0.80542   0.62918
    5  O   1.86949   1.83246   1.30357   1.55131
    6  O   1.86921   1.40787   1.33268   1.81910
    7  C   1.06520   0.92657   0.74566   1.06270
    8  C   1.06007   1.11394   1.17608   1.01259
    9  C   1.05895   1.10541   1.15617   1.02720
   10  H   0.83828
   11  H   0.83890
   12  H   0.84230
   13  H   0.82880
   14  H   0.79504
   15  H   0.79204
   16  H   0.82436
   17  H   0.81888
   18  H   0.82051
   19  H   0.82393

 **********************
 *                    *
 * JOB ENDED NORMALLY *
 *                    *
 **********************



 TOTAL JOB TIME:             0.94 SECONDS

 == MOPAC DONE ==
