 *******************************************************************************
 **                                                                           **
 **                              MOPAC v23.2                                  **
 **                                                                           **
 *******************************************************************************
 **          Digital Object Identifier (DOI): 10.5281/zenodo.6511958          **
 **    Visit the DOI location for information on how to cite this program.    **
 *******************************************************************************

                              PM7 CALCULATION RESULTS

 *******************************************************************************
 *  CALCULATION DONE: (MAX THREADS = 40)             Fri Sep 19 21:47:11 2025  *
 *  PM7        - The PM7 Hamiltonian to be used
 *
 *
 *
 *                 CHARGE ON SYSTEM = +1
 *
 *
 *
 *  EPS=37.5   - USE ANDREAS KLAMT'S COSMO IMPLICIT SOLVATION MODEL
 *  1SCF       - DO 1 SCF AND THEN STOP 
 *  T=         - A TIME OF 172800.0 SECONDS REQUESTED
 *  DUMP=N     - RESTART FILE WRITTEN EVERY 7200.0 SECONDS REQUESTED
 *  RELSCF     - DEFAULT SCF CRITERION MULTIPLIED BY 0.0001
 *              (DEFAULT SCF CRITERION = 0.00010)
 *  GRADIENTS  - ALL GRADIENTS TO BE PRINTED
 *  DISP       - PRINT DISPERSION AND HYDROGEN BOND ENERGIES
 *******************************************************************************
PM7 1SCF GRADIENTS EPS=37.5 DISP RELSCF=0.0001 CHARGE=1
 Title: ASE calculation

   ATOM   CHEMICAL          X               Y               Z
  NUMBER   SYMBOL      (ANGSTROMS)     (ANGSTROMS)     (ANGSTROMS)

     1       C          2.86141232  *  -0.68831396  *  -1.19421199  *
     2       C          2.44990489  *   0.23387267  *  -0.05047134  *
     3       C          1.63885569  *  -0.48357556  *   1.03669302  *
     4       C          0.38108941  *  -1.18794708  *   0.53589516  *
     5       C         -0.58799391  *  -0.23797304  *  -0.19489205  *
     6       C         -1.80385942  *  -0.95401661  *  -0.80532248  *
     7       C         -2.71893084  *  -1.59758962  *   0.22297584  *
     8       O         -1.14904770  *   0.50942993  *   0.88291493  *
     9       C         -0.87120381  *   1.86797610  *   0.93402572  *
    10       H          2.01426950  *  -1.01423023  *  -1.80324852  *
    11       H          3.37565030  *  -1.58754912  *  -0.82751036  *
    12       H          3.56376814  *  -0.18084109  *  -1.87364201  *
    13       H          3.36916086  *   0.65713368  *   0.41636841  *
    14       H          1.90471215  *   1.10990308  *  -0.44282131  *
    15       H          2.29657927  *  -1.24801096  *   1.51837781  *
    16       H          1.40071098  *   0.22087210  *   1.85490775  *
    17       H          0.66046223  *  -1.99440016  *  -0.18610460  *
    18       H         -0.12601395  *  -1.71945441  *   1.36972545  *
    19       H         -0.05455039  *   0.38967125  *  -0.94584045  *
    20       H         -2.37564398  *  -0.23983955  *  -1.43864450  *
    21       H         -1.42888869  *  -1.72926925  *  -1.51734228  *
    22       H         -3.17449883  *  -0.88047671  *   0.91477955  *
    23       H         -2.21351724  *  -2.36951122  *   0.81908778  *
    24       H         -3.56376814  *  -2.10998843  *  -0.27421270  *
    25       H         -1.85600292  *   2.36951122  *   1.10740441  *
    26       H         -0.34344902  *   2.30743980  *   0.07604305  *
    27       H         -0.28308968  *   2.03035320  *   1.87364201  *



          CARTESIAN COORDINATES 

    NO.       ATOM           X           Y           Z

     1         C          2.8614     -0.6883     -1.1942
     2         C          2.4499      0.2339     -0.0505
     3         C          1.6389     -0.4836      1.0367
     4         C          0.3811     -1.1879      0.5359
     5         C         -0.5880     -0.2380     -0.1949
     6         C         -1.8039     -0.9540     -0.8053
     7         C         -2.7189     -1.5976      0.2230
     8         O         -1.1490      0.5094      0.8829
     9         C         -0.8712      1.8680      0.9340
    10         H          2.0143     -1.0142     -1.8032
    11         H          3.3757     -1.5875     -0.8275
    12         H          3.5638     -0.1808     -1.8736
    13         H          3.3692      0.6571      0.4164
    14         H          1.9047      1.1099     -0.4428
    15         H          2.2966     -1.2480      1.5184
    16         H          1.4007      0.2209      1.8549
    17         H          0.6605     -1.9944     -0.1861
    18         H         -0.1260     -1.7195      1.3697
    19         H         -0.0546      0.3897     -0.9458
    20         H         -2.3756     -0.2398     -1.4386
    21         H         -1.4289     -1.7293     -1.5173
    22         H         -3.1745     -0.8805      0.9148
    23         H         -2.2135     -2.3695      0.8191
    24         H         -3.5638     -2.1100     -0.2742
    25         H         -1.8560      2.3695      1.1074
    26         H         -0.3434      2.3074      0.0760
    27         H         -0.2831      2.0304      1.8736

 General Reference for PM7:
 "Optimization of Parameters for Semiempirical Methods VI: More Modifications to the 
 NDDO Approximations and Re-optimization of Parameters", J. J. P. Stewart, J. Mol. Mod., 1:32, 19 (2013)
 https://link.springer.com/article/10.1007/s00894-012-1667-x

           Empirical Formula: C8 H18 O  =    27 atoms



      MOLECULAR POINT GROUP   :   C1  


          UHF CALCULATION, NO. OF ALPHA ELECTRONS =   28
                           NO. OF BETA  ELECTRONS =   27
  SCF CRITERION =    0.1000E-07

 -------------------------------------------------------------------------------
 PM7 1SCF GRADIENTS EPS=37.5 DISP RELSCF=0.0001 CHARGE=1
 Title: ASE calculation



     1SCF WAS SPECIFIED, SO BFGS WAS NOT USED                 
     SCF FIELD WAS ACHIEVED                                   


                              PM7 CALCULATION
                                                       MOPAC v23.2 Linux
                                                       Fri Sep 19 21:47:12 2025




          FINAL HEAT OF FORMATION =         76.34624 KCAL/MOL =     319.43267 KJ/MOL

          TOTAL ENERGY            =     -34932.33383 KCAL/MOL = ELECTRONIC ENERGY + CORE-CORE REPULSION + SOLVATION ENERGY
          ENERGY OF ATOMS         =      35011.76764 KCAL/MOL
                              SUM =         79.43380 KCAL/MOL
          DISPERSION ENERGY       =         -3.08756 KCAL/MOL
                              SUM =         76.34624 KCAL/MOL = FINAL HEAT OF FORMATION

          VAN DER WAALS AREA      =        189.82 SQUARE ANGSTROMS


          TOTAL ENERGY            =      -1514.80937 EV
          ELECTRONIC ENERGY       =      -2570.11356 EV 
          CORE-CORE REPULSION     =       1055.30419 EV

          DIELECTRIC ENERGY       =         -2.20870 EV
          COSMO AREA              =        189.82 SQUARE ANGSTROMS
          COSMO VOLUME            =        199.55 CUBIC ANGSTROMS

          GRADIENT NORM           =         20.94500          =       4.03087 PER ATOM
          IONIZATION POTENTIAL    =         11.586027 EV
          ALPHA SOMO LUMO (EV)    =        -11.586 -0.618
          BETA  SOMO LUMO (EV)    =        -11.621 -3.629
          NO. OF ALPHA ELECTRONS  =         28
          NO. OF BETA  ELECTRONS  =         27
          MOLECULAR WEIGHT        =        130.2296         POINT GROUP:  C1  

          MOLECULAR DIMENSIONS (Angstroms)

            Atom       Atom       Distance
            H    24    H    12     7.55523
            H    25    H    11     5.28986
            H    15    H    20     4.14658


          SCF CALCULATIONS        =          2

          WALL-CLOCK TIME         =      1.070 SECONDS
          COMPUTATION TIME        =      0.709 SECONDS

          LARGEST ATOMIC GRADIENTS

          Atom     Label                     Cartesian Gradients           Cartesian Coordinates       |Gradient|
                                           X          Y          Z        X          Y          Z

             8       O                   2.046    -10.529     -4.881   -1.14905    0.50943    0.88291     11.784
             9       C                  -2.622      9.765      5.991   -0.87120    1.86798    0.93403     11.752
             7       C                   3.529      3.595      1.105   -2.71893   -1.59759    0.22298      5.158
             1       C                  -4.735      0.169      1.768    2.86141   -0.68831   -1.19421      5.057
             4       C                   0.091     -0.586      4.493    0.38109   -1.18795    0.53590      4.532
             5       C                  -1.237      4.167     -0.430   -0.58799   -0.23797   -0.19489      4.368
             3       C                  -2.930      2.600     -0.237    1.63886   -0.48358    1.03669      3.924
            27       H                   1.284     -0.145     -2.064   -0.28309    2.03035    1.87364      2.436
             2       C                  -2.190      0.488     -0.767    2.44990    0.23387   -0.05047      2.371
            24       H                  -1.637     -1.100     -0.301   -3.56377   -2.10999   -0.27421      1.995



       FINAL  POINT  AND  DERIVATIVES

   PARAMETER     ATOM    TYPE            VALUE        GRADIENT
      1          1  C    CARTESIAN X     2.861412     -4.734622  KCAL/ANGSTROM
      2          1  C    CARTESIAN Y    -0.688314      0.169004  KCAL/ANGSTROM
      3          1  C    CARTESIAN Z    -1.194212      1.768391  KCAL/ANGSTROM
      4          2  C    CARTESIAN X     2.449905     -2.189765  KCAL/ANGSTROM
      5          2  C    CARTESIAN Y     0.233873      0.487776  KCAL/ANGSTROM
      6          2  C    CARTESIAN Z    -0.050471     -0.767489  KCAL/ANGSTROM
      7          3  C    CARTESIAN X     1.638856     -2.930009  KCAL/ANGSTROM
      8          3  C    CARTESIAN Y    -0.483576      2.600083  KCAL/ANGSTROM
      9          3  C    CARTESIAN Z     1.036693     -0.236933  KCAL/ANGSTROM
     10          4  C    CARTESIAN X     0.381089      0.091474  KCAL/ANGSTROM
     11          4  C    CARTESIAN Y    -1.187947     -0.585757  KCAL/ANGSTROM
     12          4  C    CARTESIAN Z     0.535895      4.492922  KCAL/ANGSTROM
     13          5  C    CARTESIAN X    -0.587994     -1.236682  KCAL/ANGSTROM
     14          5  C    CARTESIAN Y    -0.237973      4.167047  KCAL/ANGSTROM
     15          5  C    CARTESIAN Z    -0.194892     -0.430355  KCAL/ANGSTROM
     16          6  C    CARTESIAN X    -1.803859     -1.792178  KCAL/ANGSTROM
     17          6  C    CARTESIAN Y    -0.954017      0.201733  KCAL/ANGSTROM
     18          6  C    CARTESIAN Z    -0.805322      0.418860  KCAL/ANGSTROM
     19          7  C    CARTESIAN X    -2.718931      3.529359  KCAL/ANGSTROM
     20          7  C    CARTESIAN Y    -1.597590      3.595218  KCAL/ANGSTROM
     21          7  C    CARTESIAN Z     0.222976      1.105076  KCAL/ANGSTROM
     22          8  O    CARTESIAN X    -1.149048      2.046282  KCAL/ANGSTROM
     23          8  O    CARTESIAN Y     0.509430    -10.528745  KCAL/ANGSTROM
     24          8  O    CARTESIAN Z     0.882915     -4.881335  KCAL/ANGSTROM
     25          9  C    CARTESIAN X    -0.871204     -2.621684  KCAL/ANGSTROM
     26          9  C    CARTESIAN Y     1.867976      9.764983  KCAL/ANGSTROM
     27          9  C    CARTESIAN Z     0.934026      5.991047  KCAL/ANGSTROM
     28         10  H    CARTESIAN X     2.014270      1.699755  KCAL/ANGSTROM
     29         10  H    CARTESIAN Y    -1.014230      0.170289  KCAL/ANGSTROM
     30         10  H    CARTESIAN Z    -1.803249     -0.913537  KCAL/ANGSTROM
     31         11  H    CARTESIAN X     3.375650      1.828059  KCAL/ANGSTROM
     32         11  H    CARTESIAN Y    -1.587549     -0.355903  KCAL/ANGSTROM
     33         11  H    CARTESIAN Z    -0.827510     -0.436751  KCAL/ANGSTROM
     34         12  H    CARTESIAN X     3.563768      1.321166  KCAL/ANGSTROM
     35         12  H    CARTESIAN Y    -0.180841      0.207862  KCAL/ANGSTROM
     36         12  H    CARTESIAN Z    -1.873642     -0.583310  KCAL/ANGSTROM
     37         13  H    CARTESIAN X     3.369161      1.687357  KCAL/ANGSTROM
     38         13  H    CARTESIAN Y     0.657134     -0.359946  KCAL/ANGSTROM
     39         13  H    CARTESIAN Z     0.416368     -0.123726  KCAL/ANGSTROM
     40         14  H    CARTESIAN X     1.904712      1.443827  KCAL/ANGSTROM
     41         14  H    CARTESIAN Y     1.109903     -0.324294  KCAL/ANGSTROM
     42         14  H    CARTESIAN Z    -0.442821      0.129376  KCAL/ANGSTROM
     43         15  H    CARTESIAN X     2.296579      1.401561  KCAL/ANGSTROM
     44         15  H    CARTESIAN Y    -1.248011     -0.675647  KCAL/ANGSTROM
     45         15  H    CARTESIAN Z     1.518378      0.277382  KCAL/ANGSTROM
     46         16  H    CARTESIAN X     1.400711      1.242355  KCAL/ANGSTROM
     47         16  H    CARTESIAN Y     0.220872     -1.272041  KCAL/ANGSTROM
     48         16  H    CARTESIAN Z     1.854908      0.001345  KCAL/ANGSTROM
     49         17  H    CARTESIAN X     0.660462      0.585696  KCAL/ANGSTROM
     50         17  H    CARTESIAN Y    -1.994400     -0.220369  KCAL/ANGSTROM
     51         17  H    CARTESIAN Z    -0.186105     -0.758239  KCAL/ANGSTROM
     52         18  H    CARTESIAN X    -0.126014      0.090215  KCAL/ANGSTROM
     53         18  H    CARTESIAN Y    -1.719454     -1.091259  KCAL/ANGSTROM
     54         18  H    CARTESIAN Z     1.369725      0.151810  KCAL/ANGSTROM
     55         19  H    CARTESIAN X    -0.054550      0.897901  KCAL/ANGSTROM
     56         19  H    CARTESIAN Y     0.389671     -0.545051  KCAL/ANGSTROM
     57         19  H    CARTESIAN Z    -0.945840      0.193142  KCAL/ANGSTROM
     58         20  H    CARTESIAN X    -2.375644     -0.370696  KCAL/ANGSTROM
     59         20  H    CARTESIAN Y    -0.239840     -0.438895  KCAL/ANGSTROM
     60         20  H    CARTESIAN Z    -1.438644     -0.551703  KCAL/ANGSTROM
     61         21  H    CARTESIAN X    -1.428889     -0.213376  KCAL/ANGSTROM
     62         21  H    CARTESIAN Y    -1.729269     -1.352871  KCAL/ANGSTROM
     63         21  H    CARTESIAN Z    -1.517342     -0.461278  KCAL/ANGSTROM
     64         22  H    CARTESIAN X    -3.174499     -1.479056  KCAL/ANGSTROM
     65         22  H    CARTESIAN Y    -0.880477     -1.164168  KCAL/ANGSTROM
     66         22  H    CARTESIAN Z     0.914780     -0.230703  KCAL/ANGSTROM
     67         23  H    CARTESIAN X    -2.213517     -1.012616  KCAL/ANGSTROM
     68         23  H    CARTESIAN Y    -2.369511     -1.427574  KCAL/ANGSTROM
     69         23  H    CARTESIAN Z     0.819088     -0.307134  KCAL/ANGSTROM
     70         24  H    CARTESIAN X    -3.563768     -1.636784  KCAL/ANGSTROM
     71         24  H    CARTESIAN Y    -2.109988     -1.099892  KCAL/ANGSTROM
     72         24  H    CARTESIAN Z    -0.274213     -0.301245  KCAL/ANGSTROM
     73         25  H    CARTESIAN X    -1.856003      0.545313  KCAL/ANGSTROM
     74         25  H    CARTESIAN Y     2.369511      0.083597  KCAL/ANGSTROM
     75         25  H    CARTESIAN Z     1.107404     -1.310085  KCAL/ANGSTROM
     76         26  H    CARTESIAN X    -0.343449      0.522678  KCAL/ANGSTROM
     77         26  H    CARTESIAN Y     2.307440      0.139928  KCAL/ANGSTROM
     78         26  H    CARTESIAN Z     0.076043     -0.171237  KCAL/ANGSTROM
     79         27  H    CARTESIAN X    -0.283090      1.284469  KCAL/ANGSTROM
     80         27  H    CARTESIAN Y     2.030353     -0.145109  KCAL/ANGSTROM
     81         27  H    CARTESIAN Z     1.873642     -2.064294  KCAL/ANGSTROM




   ATOM   CHEMICAL          X               Y               Z
  NUMBER   SYMBOL      (ANGSTROMS)     (ANGSTROMS)     (ANGSTROMS)

     1       C          2.86141232  *  -0.68831396  *  -1.19421199  *
     2       C          2.44990489  *   0.23387267  *  -0.05047134  *
     3       C          1.63885569  *  -0.48357556  *   1.03669302  *
     4       C          0.38108941  *  -1.18794708  *   0.53589516  *
     5       C         -0.58799391  *  -0.23797304  *  -0.19489205  *
     6       C         -1.80385942  *  -0.95401661  *  -0.80532248  *
     7       C         -2.71893084  *  -1.59758962  *   0.22297584  *
     8       O         -1.14904770  *   0.50942993  *   0.88291493  *
     9       C         -0.87120381  *   1.86797610  *   0.93402572  *
    10       H          2.01426950  *  -1.01423023  *  -1.80324852  *
    11       H          3.37565030  *  -1.58754912  *  -0.82751036  *
    12       H          3.56376814  *  -0.18084109  *  -1.87364201  *
    13       H          3.36916086  *   0.65713368  *   0.41636841  *
    14       H          1.90471215  *   1.10990308  *  -0.44282131  *
    15       H          2.29657927  *  -1.24801096  *   1.51837781  *
    16       H          1.40071098  *   0.22087210  *   1.85490775  *
    17       H          0.66046223  *  -1.99440016  *  -0.18610460  *
    18       H         -0.12601395  *  -1.71945441  *   1.36972545  *
    19       H         -0.05455039  *   0.38967125  *  -0.94584045  *
    20       H         -2.37564398  *  -0.23983955  *  -1.43864450  *
    21       H         -1.42888869  *  -1.72926925  *  -1.51734228  *
    22       H         -3.17449883  *  -0.88047671  *   0.91477955  *
    23       H         -2.21351724  *  -2.36951122  *   0.81908778  *
    24       H         -3.56376814  *  -2.10998843  *  -0.27421270  *
    25       H         -1.85600292  *   2.36951122  *   1.10740441  *
    26       H         -0.34344902  *   2.30743980  *   0.07604305  *
    27       H         -0.28308968  *   2.03035320  *   1.87364201  *

                             CARTESIAN COORDINATES

   1    C        2.861412318    -0.688313957    -1.194211988
   2    C        2.449904888     0.233872666    -0.050471345
   3    C        1.638855690    -0.483575564     1.036693017
   4    C        0.381089410    -1.187947077     0.535895160
   5    C       -0.587993912    -0.237973035    -0.194892055
   6    C       -1.803859420    -0.954016615    -0.805322484
   7    C       -2.718930843    -1.597589619     0.222975845
   8    O       -1.149047695     0.509429927     0.882914931
   9    C       -0.871203810     1.867976101     0.934025724
  10    H        2.014269502    -1.014230232    -1.803248517
  11    H        3.375650301    -1.587549122    -0.827510358
  12    H        3.563768142    -0.180841091    -1.873642008
  13    H        3.369160860     0.657133684     0.416368414
  14    H        1.904712153     1.109903076    -0.442821308
  15    H        2.296579268    -1.248010958     1.518377809
  16    H        1.400710983     0.220872096     1.854907748
  17    H        0.660462228    -1.994400164    -0.186104604
  18    H       -0.126013948    -1.719454414     1.369725454
  19    H       -0.054550392     0.389671247    -0.945840451
  20    H       -2.375643981    -0.239839552    -1.438644497
  21    H       -1.428888692    -1.729269250    -1.517342277
  22    H       -3.174498833    -0.880476705     0.914779554
  23    H       -2.213517245    -2.369511221     0.819087780
  24    H       -3.563768142    -2.109988430    -0.274212698
  25    H       -1.856002921     2.369511221     1.107404415
  26    H       -0.343449024     2.307439796     0.076043047
  27    H       -0.283089678     2.030353197     1.873642008


           Empirical Formula: C8 H18 O  =    27 atoms



      MOLECULAR POINT GROUP   :   C1  


          ALPHA EIGENVALUES  
 -35.46023 -30.19635 -28.53325 -26.18523 -25.83731 -24.34683 -22.56677 -21.16048
 -19.71006 -18.78135 -18.31317 -17.11434 -16.42551 -16.03281 -15.70362 -15.10999
 -15.02035 -14.40330 -13.92692 -13.72576 -13.59840 -13.16472 -13.10956 -12.45825
 -12.30306 -11.98027 -11.90047 -11.58603  -0.61774   1.87947   2.53478   2.91507
   3.61535   3.71367   3.87684   3.99520   4.28240   4.36033   4.51485   4.85711
   4.91493   4.99280   5.25074   5.36894   5.44329   5.55344   5.68590   5.74883
   5.84191   5.92942   6.19951   6.38580   6.64320   6.90410


           BETA EIGENVALUES 
 -32.51868 -29.87829 -28.49095 -26.06134 -25.37515 -24.18895 -22.52261 -20.97247
 -19.59770 -18.56407 -17.06199 -16.89944 -16.26410 -15.90604 -15.46445 -14.93921
 -14.72600 -14.30645 -13.84837 -13.66138 -13.23710 -13.05407 -12.61706 -12.31836
 -11.98063 -11.89728 -11.62132  -3.62852  -0.00577   2.17640   2.61368   3.03719
   3.62590   3.72982   3.88238   4.17717   4.31371   4.37182   4.55032   4.86580
   4.94279   5.02960   5.25702   5.37227   5.44764   5.55865   5.68714   5.75087
   5.84545   5.93081   6.20203   6.38613   6.64464   6.90419


              NET ATOMIC CHARGES AND DIPOLE CONTRIBUTIONS

  ATOM NO.   TYPE          CHARGE      No. of ELECS.   s-Pop       p-Pop       
    1          C          -0.445823        4.4458     1.05197     3.39385
    2          C          -0.261971        4.2620     1.05509     3.20688
    3          C          -0.291279        4.2913     1.05973     3.23155
    4          C          -0.294656        4.2947     1.07245     3.22220
    5          C          -0.052427        4.0524     1.13791     2.91452
    6          C          -0.282155        4.2822     1.06570     3.21645
    7          C          -0.455818        4.4558     1.05090     3.40492
    8          O           0.253553        5.7464     1.89719     3.84926
    9          C          -0.360515        4.3605     1.11983     3.24068
   10          H           0.144608        0.8554     0.85539
   11          H           0.153418        0.8466     0.84658
   12          H           0.151546        0.8485     0.84845
   13          H           0.150655        0.8493     0.84935
   14          H           0.134167        0.8658     0.86583
   15          H           0.167686        0.8323     0.83231
   16          H           0.146425        0.8536     0.85357
   17          H           0.195935        0.8041     0.80407
   18          H           0.178291        0.8217     0.82171
   19          H           0.192400        0.8076     0.80760
   20          H           0.177254        0.8227     0.82275
   21          H           0.189182        0.8108     0.81082
   22          H           0.157299        0.8427     0.84270
   23          H           0.162487        0.8375     0.83751
   24          H           0.172072        0.8279     0.82793
   25          H           0.255773        0.7442     0.74423
   26          H           0.205004        0.7950     0.79500
   27          H           0.256888        0.7431     0.74311
 DIPOLE           X         Y         Z       TOTAL
 POINT-CHG.    -3.341     4.046     1.451     5.444
 HYBRID        -0.163     0.020     0.110     0.197
 SUM           -3.503     4.066     1.561     5.589


          ATOMIC ORBITAL ELECTRON POPULATIONS

     Atom    s        px        py        pz   
    1  C   1.05197   1.16756   1.13184   1.09445
    2  C   1.05509   1.11830   1.06288   1.02570
    3  C   1.05973   1.03132   1.12785   1.07238
    4  C   1.07245   1.01267   1.06003   1.14950
    5  C   1.13791   1.00366   0.97797   0.93289
    6  C   1.06570   1.00810   1.13555   1.07281
    7  C   1.05090   1.12868   1.16044   1.11580
    8  O   1.89719   1.28192   1.23065   1.33669
    9  C   1.11983   1.19540   0.83763   1.20765
   10  H   0.85539
   11  H   0.84658
   12  H   0.84845
   13  H   0.84935
   14  H   0.86583
   15  H   0.83231
   16  H   0.85357
   17  H   0.80407
   18  H   0.82171
   19  H   0.80760
   20  H   0.82275
   21  H   0.81082
   22  H   0.84270
   23  H   0.83751
   24  H   0.82793
   25  H   0.74423
   26  H   0.79500
   27  H   0.74311


                    (SZ)    =    0.500000
                    (S**2)  =    0.757533


          ATOMIC ORBITAL SPIN POPULATIONS

    Atom   Total    s     px     py     pz   
         Atomic
    1  C -0.0000 -0.000  0.000  0.000 -0.000
    2  C  0.0002  0.000  0.000  0.000  0.000
    3  C -0.0010 -0.000 -0.000 -0.000 -0.000
    4  C  0.0586  0.005  0.026  0.024  0.003
    5  C -0.0455 -0.006  0.002 -0.023 -0.018
    6  C  0.0418  0.004  0.018  0.007  0.013
    7  C -0.0014 -0.000 -0.001 -0.000 -0.000
    8  O  0.8332  0.018  0.519  0.060  0.236
    9  C  0.0003 -0.007  0.036 -0.035  0.007
   10  H  0.0000  0.000
   11  H  0.0000  0.000
   12  H  0.0000  0.000
   13  H -0.0001 -0.000
   14  H  0.0000  0.000
   15  H  0.0025  0.002
   16  H  0.0005  0.001
   17  H  0.0021  0.002
   18  H -0.0021 -0.002
   19  H  0.0008  0.001
   20  H -0.0004 -0.000
   21  H -0.0009 -0.001
   22  H  0.0000  0.000
   23  H  0.0004  0.000
   24  H  0.0008  0.001
   25  H  0.0477  0.048
   26  H  0.0003  0.000
   27  H  0.0622  0.062

 **********************
 *                    *
 * JOB ENDED NORMALLY *
 *                    *
 **********************



 TOTAL JOB TIME:             1.39 SECONDS

 == MOPAC DONE ==
