 *******************************************************************************
 **                                                                           **
 **                              MOPAC v23.2                                  **
 **                                                                           **
 *******************************************************************************
 **          Digital Object Identifier (DOI): 10.5281/zenodo.6511958          **
 **    Visit the DOI location for information on how to cite this program.    **
 *******************************************************************************

                              PM7 CALCULATION RESULTS

 *******************************************************************************
 *  CALCULATION DONE: (MAX THREADS = 40)             Fri Sep 19 21:59:26 2025  *
 *  PM7        - The PM7 Hamiltonian to be used
 *
 *
 *
 *                 CHARGE ON SYSTEM = +1
 *
 *
 *
 *  1SCF       - DO 1 SCF AND THEN STOP 
 *  T=         - A TIME OF 172800.0 SECONDS REQUESTED
 *  DUMP=N     - RESTART FILE WRITTEN EVERY 7200.0 SECONDS REQUESTED
 *  RELSCF     - DEFAULT SCF CRITERION MULTIPLIED BY 0.0001
 *              (DEFAULT SCF CRITERION = 0.00010)
 *  GRADIENTS  - ALL GRADIENTS TO BE PRINTED
 *  DISP       - PRINT DISPERSION AND HYDROGEN BOND ENERGIES
 *******************************************************************************
PM7 1SCF GRADIENTS DISP RELSCF=0.0001 CHARGE=1
 Title: ASE calculation

   ATOM   CHEMICAL          X               Y               Z
  NUMBER   SYMBOL      (ANGSTROMS)     (ANGSTROMS)     (ANGSTROMS)

     1       C         -2.47389367  *   0.19868596  *   0.19210943  *
     2       C         -1.26641983  *   0.64138402  *   1.00767220  *
     3       C          0.01633873  *   0.42684111  *   0.21788142  *
     4       C          0.08035984  *   1.21888907  *  -0.98895401  *
     5       N          0.10512461  *   1.84681665  *  -1.95776034  *
     6       C          0.47955691  *  -1.11822006  *   0.06437137  *
     7       C          1.64792454  *  -0.85976526  *   1.01842867  *
     8       C          2.57974102  *   0.37581935  *   0.57901998  *
     9       N          1.25665763  *   0.55189688  *   1.07590278  *
    10       H         -2.59219634  *   0.77702938  *  -0.73610752  *
    11       H         -3.40774800  *   0.35010972  *   0.76284919  *
    12       H         -2.44448663  *  -0.86424475  *  -0.07548765  *
    13       H         -1.36941081  *   1.72073107  *   1.28036947  *
    14       H         -1.24114815  *   0.10297203  *   1.98056424  *
    15       H          0.75042194  *  -1.38990301  *  -0.97064073  *
    16       H         -0.26870758  *  -1.84577756  *   0.42122284  *
    17       H          1.97535608  *  -1.54561665  *   1.79986651  *
    18       H          3.42827741  *   0.57957330  *   1.26734005  *
    19       H          2.84644909  *   0.63308499  *  -0.45837845  *



          CARTESIAN COORDINATES 

    NO.       ATOM           X           Y           Z

     1         C         -2.4739      0.1987      0.1921
     2         C         -1.2664      0.6414      1.0077
     3         C          0.0163      0.4268      0.2179
     4         C          0.0804      1.2189     -0.9890
     5         N          0.1051      1.8468     -1.9578
     6         C          0.4796     -1.1182      0.0644
     7         C          1.6479     -0.8598      1.0184
     8         C          2.5797      0.3758      0.5790
     9         N          1.2567      0.5519      1.0759
    10         H         -2.5922      0.7770     -0.7361
    11         H         -3.4077      0.3501      0.7628
    12         H         -2.4445     -0.8642     -0.0755
    13         H         -1.3694      1.7207      1.2804
    14         H         -1.2411      0.1030      1.9806
    15         H          0.7504     -1.3899     -0.9706
    16         H         -0.2687     -1.8458      0.4212
    17         H          1.9754     -1.5456      1.7999
    18         H          3.4283      0.5796      1.2673
    19         H          2.8464      0.6331     -0.4584

 General Reference for PM7:
 "Optimization of Parameters for Semiempirical Methods VI: More Modifications to the 
 NDDO Approximations and Re-optimization of Parameters", J. J. P. Stewart, J. Mol. Mod., 1:32, 19 (2013)
 https://link.springer.com/article/10.1007/s00894-012-1667-x

           Empirical Formula: C7 H10 N2  =    19 atoms



      MOLECULAR POINT GROUP   :   C1  


          UHF CALCULATION, NO. OF ALPHA ELECTRONS =   24
                           NO. OF BETA  ELECTRONS =   23
  SCF CRITERION =    0.1000E-07

 -------------------------------------------------------------------------------
 PM7 1SCF GRADIENTS DISP RELSCF=0.0001 CHARGE=1
 Title: ASE calculation



     1SCF WAS SPECIFIED, SO BFGS WAS NOT USED                 
     SCF FIELD WAS ACHIEVED                                   


                              PM7 CALCULATION
                                                       MOPAC v23.2 Linux
                                                       Fri Sep 19 21:59:26 2025




          FINAL HEAT OF FORMATION =        297.57010 KCAL/MOL =    1245.03329 KJ/MOL

          TOTAL ENERGY            =     -31251.05161 KCAL/MOL = ELECTRONIC ENERGY + CORE-CORE REPULSION
          ENERGY OF ATOMS         =      31550.59433 KCAL/MOL
                              SUM =        299.54272 KCAL/MOL
          DISPERSION ENERGY       =         -1.97262 KCAL/MOL
                              SUM =        297.57010 KCAL/MOL = FINAL HEAT OF FORMATION



          TOTAL ENERGY            =      -1355.17386 EV
          ELECTRONIC ENERGY       =      -6848.23911 EV 
          CORE-CORE REPULSION     =       5493.06525 EV
          COSMO AREA              =        166.21 SQUARE ANGSTROMS
          COSMO VOLUME            =        167.89 CUBIC ANGSTROMS

          GRADIENT NORM           =          0.89879          =       0.20620 PER ATOM
          IONIZATION POTENTIAL    =         16.147097 EV
          ALPHA SOMO LUMO (EV)    =        -16.147 -5.143
          BETA  SOMO LUMO (EV)    =        -16.172 -8.170
          NO. OF ALPHA ELECTRONS  =         24
          NO. OF BETA  ELECTRONS  =         23
          MOLECULAR WEIGHT        =        122.1694         POINT GROUP:  C1  

          MOLECULAR DIMENSIONS (Angstroms)

            Atom       Atom       Distance
            H    18    H    11     6.85846
            H    17    N     5     5.00173
            H    13    H    15     3.95267


          SCF CALCULATIONS        =          1

          WALL-CLOCK TIME         =      0.672 SECONDS
          COMPUTATION TIME        =      0.979 SECONDS

          LARGEST ATOMIC GRADIENTS

          Atom     Label                     Cartesian Gradients           Cartesian Coordinates       |Gradient|
                                           X          Y          Z        X          Y          Z

            10       H                   0.260      0.086      0.189   -2.59220    0.77703   -0.73611      0.333
            15       H                  -0.004     -0.186     -0.264    0.75042   -1.38990   -0.97064      0.323
            17       H                   0.190     -0.029      0.243    1.97536   -1.54562    1.79987      0.310
             3       C                  -0.253     -0.107     -0.013    0.01634    0.42684    0.21788      0.275
            14       H                  -0.185      0.185      0.009   -1.24115    0.10297    1.98056      0.261
             9       N                  -0.230     -0.008      0.017    1.25666    0.55190    1.07590      0.231
             8       C                  -0.156      0.160     -0.041    2.57974    0.37582    0.57902      0.227
            11       H                   0.181      0.027     -0.079   -3.40775    0.35011    0.76285      0.200
             6       C                  -0.090      0.080     -0.143    0.47956   -1.11822    0.06437      0.187
            12       H                   0.181     -0.009      0.037   -2.44449   -0.86424   -0.07549      0.185



       FINAL  POINT  AND  DERIVATIVES

   PARAMETER     ATOM    TYPE            VALUE        GRADIENT
      1          1  C    CARTESIAN X    -2.473894      0.098645  KCAL/ANGSTROM
      2          1  C    CARTESIAN Y     0.198686     -0.061757  KCAL/ANGSTROM
      3          1  C    CARTESIAN Z     0.192109     -0.004370  KCAL/ANGSTROM
      4          2  C    CARTESIAN X    -1.266420     -0.083153  KCAL/ANGSTROM
      5          2  C    CARTESIAN Y     0.641384      0.019449  KCAL/ANGSTROM
      6          2  C    CARTESIAN Z     1.007672      0.019692  KCAL/ANGSTROM
      7          3  C    CARTESIAN X     0.016339     -0.253424  KCAL/ANGSTROM
      8          3  C    CARTESIAN Y     0.426841     -0.106992  KCAL/ANGSTROM
      9          3  C    CARTESIAN Z     0.217881     -0.012997  KCAL/ANGSTROM
     10          4  C    CARTESIAN X     0.080360     -0.023997  KCAL/ANGSTROM
     11          4  C    CARTESIAN Y     1.218889      0.065074  KCAL/ANGSTROM
     12          4  C    CARTESIAN Z    -0.988954      0.102172  KCAL/ANGSTROM
     13          5  N    CARTESIAN X     0.105125     -0.004415  KCAL/ANGSTROM
     14          5  N    CARTESIAN Y     1.846817      0.014850  KCAL/ANGSTROM
     15          5  N    CARTESIAN Z    -1.957760      0.048103  KCAL/ANGSTROM
     16          6  C    CARTESIAN X     0.479557     -0.090108  KCAL/ANGSTROM
     17          6  C    CARTESIAN Y    -1.118220      0.080469  KCAL/ANGSTROM
     18          6  C    CARTESIAN Z     0.064371     -0.143064  KCAL/ANGSTROM
     19          7  C    CARTESIAN X     1.647925      0.077614  KCAL/ANGSTROM
     20          7  C    CARTESIAN Y    -0.859765      0.013457  KCAL/ANGSTROM
     21          7  C    CARTESIAN Z     1.018429     -0.038545  KCAL/ANGSTROM
     22          8  C    CARTESIAN X     2.579741     -0.155603  KCAL/ANGSTROM
     23          8  C    CARTESIAN Y     0.375819      0.159816  KCAL/ANGSTROM
     24          8  C    CARTESIAN Z     0.579020     -0.040546  KCAL/ANGSTROM
     25          9  N    CARTESIAN X     1.256658     -0.230473  KCAL/ANGSTROM
     26          9  N    CARTESIAN Y     0.551897     -0.007849  KCAL/ANGSTROM
     27          9  N    CARTESIAN Z     1.075903      0.017397  KCAL/ANGSTROM
     28         10  H    CARTESIAN X    -2.592196      0.260403  KCAL/ANGSTROM
     29         10  H    CARTESIAN Y     0.777029      0.085810  KCAL/ANGSTROM
     30         10  H    CARTESIAN Z    -0.736108      0.189311  KCAL/ANGSTROM
     31         11  H    CARTESIAN X    -3.407748      0.181312  KCAL/ANGSTROM
     32         11  H    CARTESIAN Y     0.350110      0.027187  KCAL/ANGSTROM
     33         11  H    CARTESIAN Z     0.762849     -0.079395  KCAL/ANGSTROM
     34         12  H    CARTESIAN X    -2.444487      0.181454  KCAL/ANGSTROM
     35         12  H    CARTESIAN Y    -0.864245     -0.008653  KCAL/ANGSTROM
     36         12  H    CARTESIAN Z    -0.075488      0.036610  KCAL/ANGSTROM
     37         13  H    CARTESIAN X    -1.369411      0.104466  KCAL/ANGSTROM
     38         13  H    CARTESIAN Y     1.720731     -0.025671  KCAL/ANGSTROM
     39         13  H    CARTESIAN Z     1.280369     -0.013925  KCAL/ANGSTROM
     40         14  H    CARTESIAN X    -1.241148     -0.184817  KCAL/ANGSTROM
     41         14  H    CARTESIAN Y     0.102972      0.184512  KCAL/ANGSTROM
     42         14  H    CARTESIAN Z     1.980564      0.008752  KCAL/ANGSTROM
     43         15  H    CARTESIAN X     0.750422     -0.004233  KCAL/ANGSTROM
     44         15  H    CARTESIAN Y    -1.389903     -0.186407  KCAL/ANGSTROM
     45         15  H    CARTESIAN Z    -0.970641     -0.263608  KCAL/ANGSTROM
     46         16  H    CARTESIAN X    -0.268708     -0.059120  KCAL/ANGSTROM
     47         16  H    CARTESIAN Y    -1.845778     -0.169892  KCAL/ANGSTROM
     48         16  H    CARTESIAN Z     0.421223      0.019196  KCAL/ANGSTROM
     49         17  H    CARTESIAN X     1.975356      0.189577  KCAL/ANGSTROM
     50         17  H    CARTESIAN Y    -1.545617     -0.028921  KCAL/ANGSTROM
     51         17  H    CARTESIAN Z     1.799867      0.243222  KCAL/ANGSTROM
     52         18  H    CARTESIAN X     3.428277     -0.123454  KCAL/ANGSTROM
     53         18  H    CARTESIAN Y     0.579573     -0.057636  KCAL/ANGSTROM
     54         18  H    CARTESIAN Z     1.267340     -0.116111  KCAL/ANGSTROM
     55         19  H    CARTESIAN X     2.846449      0.119327  KCAL/ANGSTROM
     56         19  H    CARTESIAN Y     0.633085      0.003150  KCAL/ANGSTROM
     57         19  H    CARTESIAN Z    -0.458378      0.028102  KCAL/ANGSTROM




   ATOM   CHEMICAL          X               Y               Z
  NUMBER   SYMBOL      (ANGSTROMS)     (ANGSTROMS)     (ANGSTROMS)

     1       C         -2.47389367  *   0.19868596  *   0.19210943  *
     2       C         -1.26641983  *   0.64138402  *   1.00767220  *
     3       C          0.01633873  *   0.42684111  *   0.21788142  *
     4       C          0.08035984  *   1.21888907  *  -0.98895401  *
     5       N          0.10512461  *   1.84681665  *  -1.95776034  *
     6       C          0.47955691  *  -1.11822006  *   0.06437137  *
     7       C          1.64792454  *  -0.85976526  *   1.01842867  *
     8       C          2.57974102  *   0.37581935  *   0.57901998  *
     9       N          1.25665763  *   0.55189688  *   1.07590278  *
    10       H         -2.59219634  *   0.77702938  *  -0.73610752  *
    11       H         -3.40774800  *   0.35010972  *   0.76284919  *
    12       H         -2.44448663  *  -0.86424475  *  -0.07548765  *
    13       H         -1.36941081  *   1.72073107  *   1.28036947  *
    14       H         -1.24114815  *   0.10297203  *   1.98056424  *
    15       H          0.75042194  *  -1.38990301  *  -0.97064073  *
    16       H         -0.26870758  *  -1.84577756  *   0.42122284  *
    17       H          1.97535608  *  -1.54561665  *   1.79986651  *
    18       H          3.42827741  *   0.57957330  *   1.26734005  *
    19       H          2.84644909  *   0.63308499  *  -0.45837845  *

                             CARTESIAN COORDINATES

   1    C       -2.473893673     0.198685963     0.192109429
   2    C       -1.266419826     0.641384021     1.007672196
   3    C        0.016338733     0.426841106     0.217881418
   4    C        0.080359845     1.218889075    -0.988954007
   5    N        0.105124606     1.846816652    -1.957760335
   6    C        0.479556913    -1.118220059     0.064371367
   7    C        1.647924537    -0.859765260     1.018428673
   8    C        2.579741023     0.375819352     0.579019977
   9    N        1.256657630     0.551896880     1.075902780
  10    H       -2.592196338     0.777029379    -0.736107516
  11    H       -3.407748004     0.350109719     0.762849194
  12    H       -2.444486625    -0.864244754    -0.075487654
  13    H       -1.369410812     1.720731071     1.280369471
  14    H       -1.241148153     0.102972033     1.980564244
  15    H        0.750421936    -1.389903009    -0.970640727
  16    H       -0.268707577    -1.845777559     0.421222837
  17    H        1.975356081    -1.545616647     1.799866505
  18    H        3.428277415     0.579573299     1.267340050
  19    H        2.846449092     0.633084995    -0.458378447


           Empirical Formula: C7 H10 N2  =    19 atoms



      MOLECULAR POINT GROUP   :   C1  


          ALPHA EIGENVALUES  
 -44.70594 -39.23786 -34.21417 -31.18499 -30.39349 -28.31330 -26.18023 -25.32514
 -23.71272 -22.93082 -22.39855 -20.36836 -20.10370 -19.76948 -19.04025 -18.93442
 -18.74253 -17.96588 -17.75630 -17.55252 -17.36423 -16.87039 -16.36007 -16.14710
  -5.14280  -4.79560  -3.85833  -3.49183  -3.32746  -2.92489  -2.44289  -2.24184
  -1.85633  -1.46821  -0.55842  -0.30338  -0.18294  -0.10593   0.01780   0.67180
   0.85149   1.14103   1.67785   1.91712   1.96326   3.06938


           BETA EIGENVALUES 
 -43.77251 -39.22180 -34.10162 -30.87966 -30.07755 -28.00975 -26.08179 -25.24253
 -23.20879 -22.30468 -22.15074 -20.23775 -19.97548 -19.64835 -18.84992 -18.60275
 -18.38032 -17.88279 -17.69632 -17.44541 -17.13073 -16.55963 -16.17249  -8.17036
  -4.60101  -4.41465  -3.79744  -3.27666  -3.25709  -2.86195  -2.23081  -2.12600
  -1.62507  -1.40070  -0.47372  -0.25841  -0.12954  -0.09514   0.06298   0.67654
   0.85644   1.14387   1.67904   1.91734   1.96287   3.06942


              NET ATOMIC CHARGES AND DIPOLE CONTRIBUTIONS

  ATOM NO.   TYPE          CHARGE      No. of ELECS.   s-Pop       p-Pop       
    1          C          -0.438348        4.4383     1.05137     3.38698
    2          C          -0.280163        4.2802     1.06441     3.21575
    3          C           0.240468        3.7595     1.10094     2.65859
    4          C          -0.035379        4.0354     1.10785     2.92753
    5          N          -0.035550        5.0356     1.82618     3.20937
    6          C          -0.297499        4.2975     1.10313     3.19436
    7          C           0.014004        3.9860     1.13078     2.85521
    8          C          -0.127571        4.1276     1.11723     3.01034
    9          N          -0.078726        5.0787     1.67847     3.40026
   10          H           0.172728        0.8273     0.82727
   11          H           0.191061        0.8089     0.80894
   12          H           0.158108        0.8419     0.84189
   13          H           0.195091        0.8049     0.80491
   14          H           0.180456        0.8195     0.81954
   15          H           0.217102        0.7829     0.78290
   16          H           0.217340        0.7827     0.78266
   17          H           0.241911        0.7581     0.75809
   18          H           0.244366        0.7556     0.75563
   19          H           0.220602        0.7794     0.77940
 DIPOLE           X         Y         Z       TOTAL
 POINT-CHG.     3.454    -3.699     2.967     5.866
 HYBRID         0.286     0.228     0.467     0.593
 SUM            3.740    -3.471     3.434     6.150


          ATOMIC ORBITAL ELECTRON POPULATIONS

     Atom    s        px        py        pz   
    1  C   1.05137   1.06435   1.17431   1.14831
    2  C   1.06441   0.93577   1.20089   1.07909
    3  C   1.10094   0.88287   0.91113   0.86459
    4  C   1.10785   0.99889   0.97991   0.94873
    5  N   1.82618   1.00225   1.05773   1.14939
    6  C   1.10313   1.04590   1.01386   1.13461
    7  C   1.13078   0.98095   0.85720   1.01706
    8  C   1.11723   0.91221   0.91384   1.18429
    9  N   1.67847   1.12531   1.10810   1.16685
   10  H   0.82727
   11  H   0.80894
   12  H   0.84189
   13  H   0.80491
   14  H   0.81954
   15  H   0.78290
   16  H   0.78266
   17  H   0.75809
   18  H   0.75563
   19  H   0.77940


                    (SZ)    =    0.500000
                    (S**2)  =    0.755997


          ATOMIC ORBITAL SPIN POPULATIONS

    Atom   Total    s     px     py     pz   
         Atomic
    1  C -0.0017 -0.000 -0.002 -0.000  0.000
    2  C  0.0096  0.001  0.003  0.002  0.004
    3  C  0.0046 -0.005 -0.025  0.017  0.017
    4  C -0.0018  0.001  0.000 -0.003  0.000
    5  N  0.0086  0.000 -0.000  0.008  0.001
    6  C  0.0631  0.008 -0.002  0.041  0.016
    7  C  0.1103 -0.000  0.037 -0.021  0.093
    8  C  0.0618 -0.005 -0.026  0.080  0.012
    9  N  0.7084  0.045  0.030  0.210  0.423
   10  H  0.0001  0.000
   11  H -0.0001 -0.000
   12  H  0.0001  0.000
   13  H  0.0019  0.002
   14  H -0.0004 -0.000
   15  H  0.0142  0.014
   16  H -0.0017 -0.002
   17  H  0.0064  0.006
   18  H  0.0127  0.013
   19  H  0.0039  0.004

 **********************
 *                    *
 * JOB ENDED NORMALLY *
 *                    *
 **********************



 TOTAL JOB TIME:             0.84 SECONDS

 == MOPAC DONE ==
