 *******************************************************************************
 **                                                                           **
 **                              MOPAC v23.2                                  **
 **                                                                           **
 *******************************************************************************
 **          Digital Object Identifier (DOI): 10.5281/zenodo.6511958          **
 **    Visit the DOI location for information on how to cite this program.    **
 *******************************************************************************

                              PM7 CALCULATION RESULTS

 *******************************************************************************
 *  CALCULATION DONE: (MAX THREADS = 40)             Fri Sep 19 21:33:10 2025  *
 *  PM7        - The PM7 Hamiltonian to be used
 *
 *
 *
 *                 CHARGE ON SYSTEM = +1
 *
 *
 *
 *  1SCF       - DO 1 SCF AND THEN STOP 
 *  T=         - A TIME OF 172800.0 SECONDS REQUESTED
 *  DUMP=N     - RESTART FILE WRITTEN EVERY 7200.0 SECONDS REQUESTED
 *  RELSCF     - DEFAULT SCF CRITERION MULTIPLIED BY 0.0001
 *              (DEFAULT SCF CRITERION = 0.00010)
 *  GRADIENTS  - ALL GRADIENTS TO BE PRINTED
 *  DISP       - PRINT DISPERSION AND HYDROGEN BOND ENERGIES
 *******************************************************************************
PM7 1SCF GRADIENTS DISP RELSCF=0.0001 CHARGE=1
 Title: ASE calculation

   ATOM   CHEMICAL          X               Y               Z
  NUMBER   SYMBOL      (ANGSTROMS)     (ANGSTROMS)     (ANGSTROMS)

     1       C          1.64353232  *  -1.44009764  *  -0.54831313  *
     2       O          0.46361788  *  -0.68414084  *  -0.78817948  *
     3       C         -0.27105861  *  -0.34025016  *   0.35580041  *
     4       C         -0.83400188  *   1.03435126  *   0.17055618  *
     5       C         -0.05045177  *   2.24582089  *   0.07197337  *
     6       C         -2.29657093  *   0.94650278  *   0.02761932  *
     7       O         -2.61483630  *  -0.50339761  *   0.15184498  *
     8       C         -1.54177624  *  -1.19973634  *   0.33465922  *
     9       C         -1.67734779  *  -2.63493708  *   0.45506826  *
    10       H          2.35349437  *  -0.89218587  *   0.08051602  *
    11       H          2.05151564  *  -1.53767955  *  -1.57176394  *
    12       H          1.41791883  *  -2.42704721  *  -0.13849150  *
    13       H          0.30196439  *  -0.44839078  *   1.30878975  *
    14       H          0.72798245  *   2.32410839  *   0.85556100  *
    15       H          0.50426027  *   2.28917386  *  -0.89366744  *
    16       H         -0.64869203  *   3.17263120  *   0.12969411  *
    17       H         -2.89113091  *   1.43059990  *   0.83110315  *
    18       H         -2.69605816  *   1.22604623  *  -0.97230835  *
    19       H         -0.71207668  *  -3.17375082  *   0.55086788  *
    20       H         -2.30363750  *  -2.94809107  *   1.32614210  *
    21       H         -2.20368534  *  -3.09434366  *  -0.41952307  *



          CARTESIAN COORDINATES 

    NO.       ATOM           X           Y           Z

     1         C          1.6435     -1.4401     -0.5483
     2         O          0.4636     -0.6841     -0.7882
     3         C         -0.2711     -0.3403      0.3558
     4         C         -0.8340      1.0344      0.1706
     5         C         -0.0505      2.2458      0.0720
     6         C         -2.2966      0.9465      0.0276
     7         O         -2.6148     -0.5034      0.1518
     8         C         -1.5418     -1.1997      0.3347
     9         C         -1.6773     -2.6349      0.4551
    10         H          2.3535     -0.8922      0.0805
    11         H          2.0515     -1.5377     -1.5718
    12         H          1.4179     -2.4270     -0.1385
    13         H          0.3020     -0.4484      1.3088
    14         H          0.7280      2.3241      0.8556
    15         H          0.5043      2.2892     -0.8937
    16         H         -0.6487      3.1726      0.1297
    17         H         -2.8911      1.4306      0.8311
    18         H         -2.6961      1.2260     -0.9723
    19         H         -0.7121     -3.1738      0.5509
    20         H         -2.3036     -2.9481      1.3261
    21         H         -2.2037     -3.0943     -0.4195

 General Reference for PM7:
 "Optimization of Parameters for Semiempirical Methods VI: More Modifications to the 
 NDDO Approximations and Re-optimization of Parameters", J. J. P. Stewart, J. Mol. Mod., 1:32, 19 (2013)
 https://link.springer.com/article/10.1007/s00894-012-1667-x

           Empirical Formula: C7 H12 O2  =    21 atoms



      MOLECULAR POINT GROUP   :   C1  


          UHF CALCULATION, NO. OF ALPHA ELECTRONS =   26
                           NO. OF BETA  ELECTRONS =   25
  SCF CRITERION =    0.1000E-07

 -------------------------------------------------------------------------------
 PM7 1SCF GRADIENTS DISP RELSCF=0.0001 CHARGE=1
 Title: ASE calculation



     1SCF WAS SPECIFIED, SO BFGS WAS NOT USED                 
     SCF FIELD WAS ACHIEVED                                   


                              PM7 CALCULATION
                                                       MOPAC v23.2 Linux
                                                       Fri Sep 19 21:33:11 2025




          FINAL HEAT OF FORMATION =        106.25408 KCAL/MOL =     444.56707 KJ/MOL

          TOTAL ENERGY            =     -36988.65791 KCAL/MOL = ELECTRONIC ENERGY + CORE-CORE REPULSION
          ENERGY OF ATOMS         =      37097.27293 KCAL/MOL
                              SUM =        108.61502 KCAL/MOL
          DISPERSION ENERGY       =         -2.36094 KCAL/MOL
                              SUM =        106.25408 KCAL/MOL = FINAL HEAT OF FORMATION



          TOTAL ENERGY            =      -1603.98002 EV
          ELECTRONIC ENERGY       =      -7992.06268 EV 
          CORE-CORE REPULSION     =       6388.08266 EV
          COSMO AREA              =        171.70 SQUARE ANGSTROMS
          COSMO VOLUME            =        170.34 CUBIC ANGSTROMS

          GRADIENT NORM           =          1.31931          =       0.28790 PER ATOM
          IONIZATION POTENTIAL    =         13.404551 EV
          ALPHA SOMO LUMO (EV)    =        -13.405 -5.811
          BETA  SOMO LUMO (EV)    =        -14.669 -5.823
          NO. OF ALPHA ELECTRONS  =         26
          NO. OF BETA  ELECTRONS  =         25
          MOLECULAR WEIGHT        =        128.1706         POINT GROUP:  C1  

          MOLECULAR DIMENSIONS (Angstroms)

            Atom       Atom       Distance
            H    21    H    16     6.48033
            H    17    H    11     5.95390
            H    13    H    18     3.42759


          SCF CALCULATIONS        =          1

          WALL-CLOCK TIME         =      0.602 SECONDS
          COMPUTATION TIME        =      0.672 SECONDS

          LARGEST ATOMIC GRADIENTS

          Atom     Label                     Cartesian Gradients           Cartesian Coordinates       |Gradient|
                                           X          Y          Z        X          Y          Z

            13       H                  -0.406      0.166     -0.016    0.30196   -0.44839    1.30879      0.439
             6       C                   0.082      0.379      0.193   -2.29657    0.94650    0.02762      0.434
            18       H                   0.032     -0.278     -0.239   -2.69606    1.22605   -0.97231      0.368
            21       H                   0.119      0.324     -0.036   -2.20369   -3.09434   -0.41952      0.347
            16       H                  -0.043     -0.007      0.334   -0.64869    3.17263    0.12969      0.337
             1       C                   0.087     -0.158      0.280    1.64353   -1.44010   -0.54831      0.333
             8       C                  -0.203      0.256     -0.044   -1.54178   -1.19974    0.33466      0.330
            12       H                   0.125     -0.165     -0.250    1.41792   -2.42705   -0.13849      0.324
            11       H                  -0.026     -0.127     -0.285    2.05152   -1.53768   -1.57176      0.313
            19       H                   0.185     -0.239     -0.001   -0.71208   -3.17375    0.55087      0.303



       FINAL  POINT  AND  DERIVATIVES

   PARAMETER     ATOM    TYPE            VALUE        GRADIENT
      1          1  C    CARTESIAN X     1.643532      0.086762  KCAL/ANGSTROM
      2          1  C    CARTESIAN Y    -1.440098     -0.158114  KCAL/ANGSTROM
      3          1  C    CARTESIAN Z    -0.548313      0.279770  KCAL/ANGSTROM
      4          2  O    CARTESIAN X     0.463618      0.007496  KCAL/ANGSTROM
      5          2  O    CARTESIAN Y    -0.684141     -0.157441  KCAL/ANGSTROM
      6          2  O    CARTESIAN Z    -0.788179      0.202879  KCAL/ANGSTROM
      7          3  C    CARTESIAN X    -0.271059     -0.088864  KCAL/ANGSTROM
      8          3  C    CARTESIAN Y    -0.340250      0.076100  KCAL/ANGSTROM
      9          3  C    CARTESIAN Z     0.355800     -0.135410  KCAL/ANGSTROM
     10          4  C    CARTESIAN X    -0.834002     -0.163768  KCAL/ANGSTROM
     11          4  C    CARTESIAN Y     1.034351     -0.049665  KCAL/ANGSTROM
     12          4  C    CARTESIAN Z     0.170556     -0.088135  KCAL/ANGSTROM
     13          5  C    CARTESIAN X    -0.050452     -0.041539  KCAL/ANGSTROM
     14          5  C    CARTESIAN Y     2.245821      0.070977  KCAL/ANGSTROM
     15          5  C    CARTESIAN Z     0.071973     -0.009656  KCAL/ANGSTROM
     16          6  C    CARTESIAN X    -2.296571      0.082035  KCAL/ANGSTROM
     17          6  C    CARTESIAN Y     0.946503      0.379454  KCAL/ANGSTROM
     18          6  C    CARTESIAN Z     0.027619      0.192922  KCAL/ANGSTROM
     19          7  O    CARTESIAN X    -2.614836      0.247059  KCAL/ANGSTROM
     20          7  O    CARTESIAN Y    -0.503398      0.102573  KCAL/ANGSTROM
     21          7  O    CARTESIAN Z     0.151845     -0.135426  KCAL/ANGSTROM
     22          8  C    CARTESIAN X    -1.541776     -0.202909  KCAL/ANGSTROM
     23          8  C    CARTESIAN Y    -1.199736      0.256220  KCAL/ANGSTROM
     24          8  C    CARTESIAN Z     0.334659     -0.044457  KCAL/ANGSTROM
     25          9  C    CARTESIAN X    -1.677348      0.116375  KCAL/ANGSTROM
     26          9  C    CARTESIAN Y    -2.634937      0.045399  KCAL/ANGSTROM
     27          9  C    CARTESIAN Z     0.455068      0.162397  KCAL/ANGSTROM
     28         10  H    CARTESIAN X     2.353494      0.083103  KCAL/ANGSTROM
     29         10  H    CARTESIAN Y    -0.892186     -0.232165  KCAL/ANGSTROM
     30         10  H    CARTESIAN Z     0.080516     -0.020599  KCAL/ANGSTROM
     31         11  H    CARTESIAN X     2.051516     -0.025804  KCAL/ANGSTROM
     32         11  H    CARTESIAN Y    -1.537680     -0.127264  KCAL/ANGSTROM
     33         11  H    CARTESIAN Z    -1.571764     -0.285091  KCAL/ANGSTROM
     34         12  H    CARTESIAN X     1.417919      0.125224  KCAL/ANGSTROM
     35         12  H    CARTESIAN Y    -2.427047     -0.164715  KCAL/ANGSTROM
     36         12  H    CARTESIAN Z    -0.138491     -0.249870  KCAL/ANGSTROM
     37         13  H    CARTESIAN X     0.301964     -0.405776  KCAL/ANGSTROM
     38         13  H    CARTESIAN Y    -0.448391      0.165664  KCAL/ANGSTROM
     39         13  H    CARTESIAN Z     1.308790     -0.015717  KCAL/ANGSTROM
     40         14  H    CARTESIAN X     0.727982     -0.075888  KCAL/ANGSTROM
     41         14  H    CARTESIAN Y     2.324108      0.143802  KCAL/ANGSTROM
     42         14  H    CARTESIAN Z     0.855561      0.103071  KCAL/ANGSTROM
     43         15  H    CARTESIAN X     0.504260     -0.033735  KCAL/ANGSTROM
     44         15  H    CARTESIAN Y     2.289174     -0.055111  KCAL/ANGSTROM
     45         15  H    CARTESIAN Z    -0.893667     -0.199829  KCAL/ANGSTROM
     46         16  H    CARTESIAN X    -0.648692     -0.043342  KCAL/ANGSTROM
     47         16  H    CARTESIAN Y     3.172631     -0.007066  KCAL/ANGSTROM
     48         16  H    CARTESIAN Z     0.129694      0.333644  KCAL/ANGSTROM
     49         17  H    CARTESIAN X    -2.891131     -0.085818  KCAL/ANGSTROM
     50         17  H    CARTESIAN Y     1.430600     -0.157850  KCAL/ANGSTROM
     51         17  H    CARTESIAN Z     0.831103      0.101532  KCAL/ANGSTROM
     52         18  H    CARTESIAN X    -2.696058      0.032323  KCAL/ANGSTROM
     53         18  H    CARTESIAN Y     1.226046     -0.277741  KCAL/ANGSTROM
     54         18  H    CARTESIAN Z    -0.972308     -0.238952  KCAL/ANGSTROM
     55         19  H    CARTESIAN X    -0.712077      0.185349  KCAL/ANGSTROM
     56         19  H    CARTESIAN Y    -3.173751     -0.239491  KCAL/ANGSTROM
     57         19  H    CARTESIAN Z     0.550868     -0.001256  KCAL/ANGSTROM
     58         20  H    CARTESIAN X    -2.303637      0.082740  KCAL/ANGSTROM
     59         20  H    CARTESIAN Y    -2.948091      0.062406  KCAL/ANGSTROM
     60         20  H    CARTESIAN Z     1.326142      0.084144  KCAL/ANGSTROM
     61         21  H    CARTESIAN X    -2.203685      0.118979  KCAL/ANGSTROM
     62         21  H    CARTESIAN Y    -3.094344      0.324033  KCAL/ANGSTROM
     63         21  H    CARTESIAN Z    -0.419523     -0.035965  KCAL/ANGSTROM




   ATOM   CHEMICAL          X               Y               Z
  NUMBER   SYMBOL      (ANGSTROMS)     (ANGSTROMS)     (ANGSTROMS)

     1       C          1.64353232  *  -1.44009764  *  -0.54831313  *
     2       O          0.46361788  *  -0.68414084  *  -0.78817948  *
     3       C         -0.27105861  *  -0.34025016  *   0.35580041  *
     4       C         -0.83400188  *   1.03435126  *   0.17055618  *
     5       C         -0.05045177  *   2.24582089  *   0.07197337  *
     6       C         -2.29657093  *   0.94650278  *   0.02761932  *
     7       O         -2.61483630  *  -0.50339761  *   0.15184498  *
     8       C         -1.54177624  *  -1.19973634  *   0.33465922  *
     9       C         -1.67734779  *  -2.63493708  *   0.45506826  *
    10       H          2.35349437  *  -0.89218587  *   0.08051602  *
    11       H          2.05151564  *  -1.53767955  *  -1.57176394  *
    12       H          1.41791883  *  -2.42704721  *  -0.13849150  *
    13       H          0.30196439  *  -0.44839078  *   1.30878975  *
    14       H          0.72798245  *   2.32410839  *   0.85556100  *
    15       H          0.50426027  *   2.28917386  *  -0.89366744  *
    16       H         -0.64869203  *   3.17263120  *   0.12969411  *
    17       H         -2.89113091  *   1.43059990  *   0.83110315  *
    18       H         -2.69605816  *   1.22604623  *  -0.97230835  *
    19       H         -0.71207668  *  -3.17375082  *   0.55086788  *
    20       H         -2.30363750  *  -2.94809107  *   1.32614210  *
    21       H         -2.20368534  *  -3.09434366  *  -0.41952307  *

                             CARTESIAN COORDINATES

   1    C        1.643532320    -1.440097644    -0.548313134
   2    O        0.463617883    -0.684140841    -0.788179479
   3    C       -0.271058609    -0.340250160     0.355800415
   4    C       -0.834001882     1.034351261     0.170556181
   5    C       -0.050451768     2.245820895     0.071973366
   6    C       -2.296570932     0.946502779     0.027619319
   7    O       -2.614836298    -0.503397608     0.151844977
   8    C       -1.541776239    -1.199736339     0.334659222
   9    C       -1.677347787    -2.634937080     0.455068258
  10    H        2.353494374    -0.892185871     0.080516022
  11    H        2.051515640    -1.537679548    -1.571763937
  12    H        1.417918830    -2.427047212    -0.138491497
  13    H        0.301964391    -0.448390778     1.308789750
  14    H        0.727982450     2.324108392     0.855561000
  15    H        0.504260272     2.289173860    -0.893667441
  16    H       -0.648692028     3.172631197     0.129694109
  17    H       -2.891130914     1.430599898     0.831103148
  18    H       -2.696058164     1.226046234    -0.972308348
  19    H       -0.712076682    -3.173750820     0.550867884
  20    H       -2.303637497    -2.948091073     1.326142097
  21    H       -2.203685338    -3.094343657    -0.419523066


           Empirical Formula: C7 H12 O2  =    21 atoms



      MOLECULAR POINT GROUP   :   C1  


          ALPHA EIGENVALUES  
 -38.18897 -34.84035 -32.92014 -32.48811 -29.50017 -28.97119 -27.98833 -25.44113
 -23.91217 -22.42202 -22.14898 -20.75991 -20.56278 -20.12892 -19.51467 -19.18965
 -18.73425 -18.51717 -18.21184 -17.95192 -17.47314 -17.26521 -16.62263 -16.53917
 -14.72473 -13.40455  -5.81149  -4.16541  -2.68158  -2.43215  -1.94902  -1.28971
  -0.94585  -0.76675   0.13571   0.20393   0.36862   0.41592   0.46361   0.50906
   0.86883   1.45304   1.70920   1.74966   1.77482   1.86256   2.42498   2.99142


           BETA EIGENVALUES 
 -38.17185 -34.70409 -32.79664 -32.42896 -29.43447 -28.90441 -27.93239 -25.40095
 -23.73921 -22.28820 -22.10304 -20.68489 -20.49670 -20.04334 -19.36655 -19.14861
 -18.72554 -18.45543 -17.89972 -17.82007 -17.42315 -17.12858 -16.56794 -16.47592
 -14.66949  -5.82348  -4.31577  -4.16613  -2.68976  -2.18426  -1.85525  -1.27906
  -0.77807  -0.46526   0.17855   0.20952   0.37144   0.50771   0.60573   0.73335
   0.93274   1.45339   1.70974   1.77740   1.85906   1.90720   2.42669   3.03329


              NET ATOMIC CHARGES AND DIPOLE CONTRIBUTIONS

  ATOM NO.   TYPE          CHARGE      No. of ELECS.   s-Pop       p-Pop       
    1          C          -0.214339        4.2143     1.09233     3.12200
    2          O          -0.309117        6.3091     1.88509     4.42402
    3          C           0.007032        3.9930     1.10213     2.89084
    4          C          -0.096675        4.0967     1.09661     3.00007
    5          C          -0.436702        4.4367     1.04057     3.39613
    6          C          -0.061314        4.0613     1.12250     2.93882
    7          O          -0.164602        6.1646     1.86899     4.29561
    8          C           0.453019        3.5470     1.20479     2.34220
    9          C          -0.533002        4.5330     1.05584     3.47716
   10          H           0.150686        0.8493     0.84931
   11          H           0.185128        0.8149     0.81487
   12          H           0.133022        0.8670     0.86698
   13          H           0.195458        0.8045     0.80454
   14          H           0.189120        0.8109     0.81088
   15          H           0.204460        0.7955     0.79554
   16          H           0.185517        0.8145     0.81448
   17          H           0.201226        0.7988     0.79877
   18          H           0.203973        0.7960     0.79603
   19          H           0.220380        0.7796     0.77962
   20          H           0.242297        0.7577     0.75770
   21          H           0.244431        0.7556     0.75557
 DIPOLE           X         Y         Z       TOTAL
 POINT-CHG.    -0.668    -1.597     2.202     2.801
 HYBRID        -0.682    -0.308    -0.270     0.795
 SUM           -1.350    -1.905     1.932     3.030


          ATOMIC ORBITAL ELECTRON POPULATIONS

     Atom    s        px        py        pz   
    1  C   1.09233   0.89079   1.04287   1.18835
    2  O   1.88509   1.42720   1.74279   1.25403
    3  C   1.10213   0.93613   0.95007   1.00463
    4  C   1.09661   0.94848   0.97755   1.07403
    5  C   1.04057   1.14596   1.05021   1.19996
    6  C   1.12250   1.04132   0.71158   1.18592
    7  O   1.86899   1.37034   1.31837   1.60691
    8  C   1.20479   0.88377   0.93786   0.52057
    9  C   1.05584   1.24834   0.98955   1.23928
   10  H   0.84931
   11  H   0.81487
   12  H   0.86698
   13  H   0.80454
   14  H   0.81088
   15  H   0.79554
   16  H   0.81448
   17  H   0.79877
   18  H   0.79603
   19  H   0.77962
   20  H   0.75770
   21  H   0.75557


                    (SZ)    =    0.500000
                    (S**2)  =    0.754308


          ATOMIC ORBITAL SPIN POPULATIONS

    Atom   Total    s     px     py     pz   
         Atomic
    1  C -0.0007 -0.000 -0.000  0.001 -0.000
    2  O  0.0416  0.001  0.003  0.000  0.038
    3  C -0.0530 -0.005 -0.008 -0.023 -0.017
    4  C  0.9473  0.027  0.036  0.037  0.848
    5  C -0.0288 -0.005 -0.013 -0.016  0.006
    6  C -0.0394 -0.007 -0.026 -0.002 -0.005
    7  O -0.0020 -0.000 -0.000  0.001 -0.003
    8  C  0.0050  0.001  0.000  0.001  0.003
    9  C -0.0004 -0.000 -0.000 -0.000  0.000
   10  H  0.0001  0.000
   11  H  0.0015  0.001
   12  H -0.0001 -0.000
   13  H  0.0187  0.019
   14  H  0.0219  0.022
   15  H  0.0399  0.040
   16  H  0.0033  0.003
   17  H  0.0214  0.021
   18  H  0.0234  0.023
   19  H  0.0000  0.000
   20  H  0.0001  0.000
   21  H  0.0002  0.000

 **********************
 *                    *
 * JOB ENDED NORMALLY *
 *                    *
 **********************



 TOTAL JOB TIME:             1.05 SECONDS

 == MOPAC DONE ==
