 *******************************************************************************
 **                                                                           **
 **                              MOPAC v23.2                                  **
 **                                                                           **
 *******************************************************************************
 **          Digital Object Identifier (DOI): 10.5281/zenodo.6511958          **
 **    Visit the DOI location for information on how to cite this program.    **
 *******************************************************************************

                              PM7 CALCULATION RESULTS

 *******************************************************************************
 *  CALCULATION DONE: (MAX THREADS = 40)             Fri Sep 19 21:31:44 2025  *
 *  PM7        - The PM7 Hamiltonian to be used
 *  EPS=37.5   - USE ANDREAS KLAMT'S COSMO IMPLICIT SOLVATION MODEL
 *  1SCF       - DO 1 SCF AND THEN STOP 
 *  T=         - A TIME OF 172800.0 SECONDS REQUESTED
 *  DUMP=N     - RESTART FILE WRITTEN EVERY 7200.0 SECONDS REQUESTED
 *  RELSCF     - DEFAULT SCF CRITERION MULTIPLIED BY 0.0001
 *              (DEFAULT SCF CRITERION = 0.00010)
 *  GRADIENTS  - ALL GRADIENTS TO BE PRINTED
 *  DISP       - PRINT DISPERSION AND HYDROGEN BOND ENERGIES
 *******************************************************************************
PM7 1SCF GRADIENTS EPS=37.5 DISP RELSCF=0.0001
 Title: ASE calculation

   ATOM   CHEMICAL          X               Y               Z
  NUMBER   SYMBOL      (ANGSTROMS)     (ANGSTROMS)     (ANGSTROMS)

     1       C          2.21013275  *  -0.89679191  *  -0.96633025  *
     2       N          3.27087095  *  -0.10608024  *  -0.92270476  *
     3       O          2.93793685  *   1.06955436  *  -0.30550740  *
     4       C          1.60073286  *   1.01421176  *   0.05321487  *
     5       C          1.09762377  *  -0.20040264  *  -0.33471389  *
     6       O         -0.10211979  *  -0.80284075  *  -0.24380476  *
     7       C         -1.07976941  *  -0.03472290  *   0.42607974  *
     8       C         -2.46688541  *  -0.42365202  *  -0.01839117  *
     9       C         -1.89141747  *   0.91552668  *  -0.42175921  *
    10       H          2.18747933  *  -1.88250339  *  -1.39896927  *
    11       H          1.22211967  *   1.88250339  *   0.53255249  *
    12       H         -0.80984324  *   0.16304787  *   1.45993357  *
    13       H         -2.59025200  *  -1.20149896  *  -0.77101087  *
    14       H         -3.27087095  *  -0.48010476  *   0.70977178  *
    15       H         -2.28590361  *   1.82994702  *   0.01060131  *
    16       H         -1.60902326  *   1.08181298  *  -1.45993357  *



          CARTESIAN COORDINATES 

    NO.       ATOM           X           Y           Z

     1         C          2.2101     -0.8968     -0.9663
     2         N          3.2709     -0.1061     -0.9227
     3         O          2.9379      1.0696     -0.3055
     4         C          1.6007      1.0142      0.0532
     5         C          1.0976     -0.2004     -0.3347
     6         O         -0.1021     -0.8028     -0.2438
     7         C         -1.0798     -0.0347      0.4261
     8         C         -2.4669     -0.4237     -0.0184
     9         C         -1.8914      0.9155     -0.4218
    10         H          2.1875     -1.8825     -1.3990
    11         H          1.2221      1.8825      0.5326
    12         H         -0.8098      0.1630      1.4599
    13         H         -2.5903     -1.2015     -0.7710
    14         H         -3.2709     -0.4801      0.7098
    15         H         -2.2859      1.8299      0.0106
    16         H         -1.6090      1.0818     -1.4599

 General Reference for PM7:
 "Optimization of Parameters for Semiempirical Methods VI: More Modifications to the 
 NDDO Approximations and Re-optimization of Parameters", J. J. P. Stewart, J. Mol. Mod., 1:32, 19 (2013)
 https://link.springer.com/article/10.1007/s00894-012-1667-x

           Empirical Formula: C6 H7 N O2  =    16 atoms



      MOLECULAR POINT GROUP   :   C1  


      RHF CALCULATION, NO. OF DOUBLY OCCUPIED LEVELS = 24

  SCF CRITERION =    0.1000E-07

 -------------------------------------------------------------------------------
 PM7 1SCF GRADIENTS EPS=37.5 DISP RELSCF=0.0001
 Title: ASE calculation



     1SCF WAS SPECIFIED, SO BFGS WAS NOT USED                 
     SCF FIELD WAS ACHIEVED                                   


                              PM7 CALCULATION
                                                       MOPAC v23.2 Linux
                                                       Fri Sep 19 21:31:45 2025




          FINAL HEAT OF FORMATION =          5.90818 KCAL/MOL =      24.71981 KJ/MOL

          TOTAL ENERGY            =     -37016.79084 KCAL/MOL = ELECTRONIC ENERGY + CORE-CORE REPULSION + SOLVATION ENERGY
          ENERGY OF ATOMS         =      37024.20862 KCAL/MOL
                              SUM =          7.41778 KCAL/MOL
          DISPERSION ENERGY       =         -1.50960 KCAL/MOL
                              SUM =          5.90818 KCAL/MOL = FINAL HEAT OF FORMATION

          VAN DER WAALS AREA      =        156.52 SQUARE ANGSTROMS


          TOTAL ENERGY            =      -1605.19998 EV
          ELECTRONIC ENERGY       =      -2186.31463 EV 
          CORE-CORE REPULSION     =        581.11465 EV

          DIELECTRIC ENERGY       =         -0.33156 EV
          COSMO AREA              =        156.52 SQUARE ANGSTROMS
          COSMO VOLUME            =        149.64 CUBIC ANGSTROMS

          GRADIENT NORM           =         13.26860          =       3.31715 PER ATOM
          IONIZATION POTENTIAL    =          9.702555 EV
          HOMO LUMO ENERGIES (EV) =         -9.703 -0.409
          NO. OF FILLED LEVELS    =         24
          MOLECULAR WEIGHT        =        125.1268         POINT GROUP:  C1  

          MOLECULAR DIMENSIONS (Angstroms)

            Atom       Atom       Distance
            H    14    N     2     6.75272
            H    10    H    11     4.17292
            H    16    H    12     3.14495


          SCF CALCULATIONS        =          2

          WALL-CLOCK TIME         =      1.000 SECONDS
          COMPUTATION TIME        =      0.803 SECONDS

          LARGEST ATOMIC GRADIENTS

          Atom     Label                     Cartesian Gradients           Cartesian Coordinates       |Gradient|
                                           X          Y          Z        X          Y          Z

             3       O                   2.954     -5.506     -2.844    2.93794    1.06955   -0.30551      6.865
             7       C                   4.576     -2.035     -0.701   -1.07977   -0.03472    0.42608      5.057
             2       N                  -2.048      3.652      2.086    3.27087   -0.10608   -0.92270      4.678
             4       C                  -2.425      3.148      2.448    1.60073    1.01421    0.05321      4.667
            11       H                   0.832     -3.104     -2.078    1.22212    1.88250    0.53255      3.827
            10       H                  -0.192      3.328      1.446    2.18748   -1.88250   -1.39897      3.634
             9       C                  -0.890      2.561      0.353   -1.89142    0.91553   -0.42176      2.734
             1       C                   1.247     -1.677     -1.204    2.21013   -0.89679   -0.96633      2.413
             8       C                  -1.897      0.055      1.461   -2.46689   -0.42365   -0.01839      2.395
             6       O                  -1.874      0.377      0.713   -0.10212   -0.80284   -0.24380      2.041



       FINAL  POINT  AND  DERIVATIVES

   PARAMETER     ATOM    TYPE            VALUE        GRADIENT
      1          1  C    CARTESIAN X     2.210133      1.247440  KCAL/ANGSTROM
      2          1  C    CARTESIAN Y    -0.896792     -1.677499  KCAL/ANGSTROM
      3          1  C    CARTESIAN Z    -0.966330     -1.204198  KCAL/ANGSTROM
      4          2  N    CARTESIAN X     3.270871     -2.048053  KCAL/ANGSTROM
      5          2  N    CARTESIAN Y    -0.106080      3.652299  KCAL/ANGSTROM
      6          2  N    CARTESIAN Z    -0.922705      2.085546  KCAL/ANGSTROM
      7          3  O    CARTESIAN X     2.937937      2.953782  KCAL/ANGSTROM
      8          3  O    CARTESIAN Y     1.069554     -5.506147  KCAL/ANGSTROM
      9          3  O    CARTESIAN Z    -0.305507     -2.843889  KCAL/ANGSTROM
     10          4  C    CARTESIAN X     1.600733     -2.425181  KCAL/ANGSTROM
     11          4  C    CARTESIAN Y     1.014212      3.147740  KCAL/ANGSTROM
     12          4  C    CARTESIAN Z     0.053215      2.448435  KCAL/ANGSTROM
     13          5  C    CARTESIAN X     1.097624     -0.614375  KCAL/ANGSTROM
     14          5  C    CARTESIAN Y    -0.200403      1.069056  KCAL/ANGSTROM
     15          5  C    CARTESIAN Z    -0.334714      0.677862  KCAL/ANGSTROM
     16          6  O    CARTESIAN X    -0.102120     -1.874226  KCAL/ANGSTROM
     17          6  O    CARTESIAN Y    -0.802841      0.377299  KCAL/ANGSTROM
     18          6  O    CARTESIAN Z    -0.243805      0.713387  KCAL/ANGSTROM
     19          7  C    CARTESIAN X    -1.079769      4.575874  KCAL/ANGSTROM
     20          7  C    CARTESIAN Y    -0.034723     -2.035240  KCAL/ANGSTROM
     21          7  C    CARTESIAN Z     0.426080     -0.701306  KCAL/ANGSTROM
     22          8  C    CARTESIAN X    -2.466885     -1.896767  KCAL/ANGSTROM
     23          8  C    CARTESIAN Y    -0.423652      0.055286  KCAL/ANGSTROM
     24          8  C    CARTESIAN Z    -0.018391      1.461404  KCAL/ANGSTROM
     25          9  C    CARTESIAN X    -1.891417     -0.889771  KCAL/ANGSTROM
     26          9  C    CARTESIAN Y     0.915527      2.560885  KCAL/ANGSTROM
     27          9  C    CARTESIAN Z    -0.421759      0.353483  KCAL/ANGSTROM
     28         10  H    CARTESIAN X     2.187479     -0.191914  KCAL/ANGSTROM
     29         10  H    CARTESIAN Y    -1.882503      3.328004  KCAL/ANGSTROM
     30         10  H    CARTESIAN Z    -1.398969      1.445749  KCAL/ANGSTROM
     31         11  H    CARTESIAN X     1.222120      0.832156  KCAL/ANGSTROM
     32         11  H    CARTESIAN Y     1.882503     -3.103760  KCAL/ANGSTROM
     33         11  H    CARTESIAN Z     0.532552     -2.078491  KCAL/ANGSTROM
     34         12  H    CARTESIAN X    -0.809843     -0.633221  KCAL/ANGSTROM
     35         12  H    CARTESIAN Y     0.163048     -0.353280  KCAL/ANGSTROM
     36         12  H    CARTESIAN Z     1.459934     -1.071719  KCAL/ANGSTROM
     37         13  H    CARTESIAN X    -2.590252      0.426434  KCAL/ANGSTROM
     38         13  H    CARTESIAN Y    -1.201499      0.355475  KCAL/ANGSTROM
     39         13  H    CARTESIAN Z    -0.771011      0.287521  KCAL/ANGSTROM
     40         14  H    CARTESIAN X    -3.270871      0.702524  KCAL/ANGSTROM
     41         14  H    CARTESIAN Y    -0.480105      0.138059  KCAL/ANGSTROM
     42         14  H    CARTESIAN Z     0.709772     -1.135262  KCAL/ANGSTROM
     43         15  H    CARTESIAN X    -2.285904     -0.175969  KCAL/ANGSTROM
     44         15  H    CARTESIAN Y     1.829947     -1.409944  KCAL/ANGSTROM
     45         15  H    CARTESIAN Z     0.010601     -0.620185  KCAL/ANGSTROM
     46         16  H    CARTESIAN X    -1.609023      0.011265  KCAL/ANGSTROM
     47         16  H    CARTESIAN Y     1.081813     -0.598236  KCAL/ANGSTROM
     48         16  H    CARTESIAN Z    -1.459934      0.181658  KCAL/ANGSTROM




   ATOM   CHEMICAL          X               Y               Z
  NUMBER   SYMBOL      (ANGSTROMS)     (ANGSTROMS)     (ANGSTROMS)

     1       C          2.21013275  *  -0.89679191  *  -0.96633025  *
     2       N          3.27087095  *  -0.10608024  *  -0.92270476  *
     3       O          2.93793685  *   1.06955436  *  -0.30550740  *
     4       C          1.60073286  *   1.01421176  *   0.05321487  *
     5       C          1.09762377  *  -0.20040264  *  -0.33471389  *
     6       O         -0.10211979  *  -0.80284075  *  -0.24380476  *
     7       C         -1.07976941  *  -0.03472290  *   0.42607974  *
     8       C         -2.46688541  *  -0.42365202  *  -0.01839117  *
     9       C         -1.89141747  *   0.91552668  *  -0.42175921  *
    10       H          2.18747933  *  -1.88250339  *  -1.39896927  *
    11       H          1.22211967  *   1.88250339  *   0.53255249  *
    12       H         -0.80984324  *   0.16304787  *   1.45993357  *
    13       H         -2.59025200  *  -1.20149896  *  -0.77101087  *
    14       H         -3.27087095  *  -0.48010476  *   0.70977178  *
    15       H         -2.28590361  *   1.82994702  *   0.01060131  *
    16       H         -1.60902326  *   1.08181298  *  -1.45993357  *

                             CARTESIAN COORDINATES

   1    C        2.210132749    -0.896791910    -0.966330249
   2    N        3.270870946    -0.106080244    -0.922704763
   3    O        2.937936855     1.069554357    -0.305507405
   4    C        1.600732856     1.014211763     0.053214867
   5    C        1.097623773    -0.200402641    -0.334713892
   6    O       -0.102119793    -0.802840751    -0.243804760
   7    C       -1.079769413    -0.034722898     0.426079744
   8    C       -2.466885412    -0.423652015    -0.018391167
   9    C       -1.891417473     0.915526679    -0.421759212
  10    H        2.187479335    -1.882503389    -1.398969272
  11    H        1.222119674     1.882503389     0.532552490
  12    H       -0.809843244     0.163047875     1.459933573
  13    H       -2.590251996    -1.201498956    -0.771010875
  14    H       -3.270870946    -0.480104763     0.709771778
  15    H       -2.285903606     1.829947017     0.010601312
  16    H       -1.609023257     1.081812980    -1.459933573


           Empirical Formula: C6 H7 N O2  =    16 atoms



      MOLECULAR POINT GROUP   :   C1  


                  EIGENVALUES  
 -36.37605 -31.61653 -30.08480 -29.85897 -27.06739 -22.85270 -21.77788 -21.05625
 -20.47582 -18.75485 -17.29417 -16.72164 -16.19689 -16.07328 -14.87060 -14.39139
 -13.92454 -13.19260 -12.66594 -12.62601 -11.85205 -11.60917 -11.38930  -9.70256
  -0.40873   0.59457   0.68446   1.45255   2.07391   2.32601   3.61381   3.76216
   3.90081   4.00952   4.44881   4.70421   5.14850   5.35189   5.51573   5.67793
   5.91314   6.24558   6.30683


              NET ATOMIC CHARGES AND DIPOLE CONTRIBUTIONS

  ATOM NO.   TYPE          CHARGE      No. of ELECS.   s-Pop       p-Pop       
    1          C          -0.041954        4.0420     1.11279     2.92916
    2          N          -0.293239        5.2932     1.81060     3.48264
    3          O           0.048919        5.9511     1.91544     4.03564
    4          C          -0.164498        4.1645     1.13362     3.03088
    5          C           0.067903        3.9321     1.07880     2.85330
    6          O          -0.295124        6.2951     1.86305     4.43207
    7          C           0.042503        3.9575     1.07692     2.88058
    8          C          -0.328765        4.3288     1.05748     3.27129
    9          C          -0.353620        4.3536     1.05917     3.29445
   10          H           0.220102        0.7799     0.77990
   11          H           0.213896        0.7861     0.78610
   12          H           0.175298        0.8247     0.82470
   13          H           0.178640        0.8214     0.82136
   14          H           0.176158        0.8238     0.82384
   15          H           0.176388        0.8236     0.82361
   16          H           0.177392        0.8226     0.82261
 DIPOLE           X         Y         Z       TOTAL
 POINT-CHG.    -3.648     1.076     1.451     4.070
 HYBRID        -0.599    -0.064     0.037     0.604
 SUM           -4.247     1.012     1.488     4.613


          ATOMIC ORBITAL ELECTRON POPULATIONS

     Atom    s        px        py        pz   
    1  C   1.11279   0.88619   1.04735   0.99562
    2  N   1.81060   1.28263   1.01143   1.18858
    3  O   1.91544   1.23807   1.21969   1.57788
    4  C   1.13362   0.88240   1.06468   1.08380
    5  C   1.07880   0.86287   0.95361   1.03681
    6  O   1.86305   1.24319   1.42836   1.76053
    7  C   1.07692   0.84599   1.02806   1.00653
    8  C   1.05748   1.03563   1.06721   1.16845
    9  C   1.05917   1.12237   1.02746   1.14463
   10  H   0.77990
   11  H   0.78610
   12  H   0.82470
   13  H   0.82136
   14  H   0.82384
   15  H   0.82361
   16  H   0.82261

 **********************
 *                    *
 * JOB ENDED NORMALLY *
 *                    *
 **********************



 TOTAL JOB TIME:             1.50 SECONDS

 == MOPAC DONE ==
