 *******************************************************************************
 **                                                                           **
 **                              MOPAC v23.2                                  **
 **                                                                           **
 *******************************************************************************
 **          Digital Object Identifier (DOI): 10.5281/zenodo.6511958          **
 **    Visit the DOI location for information on how to cite this program.    **
 *******************************************************************************

                              PM7 CALCULATION RESULTS

 *******************************************************************************
 *  CALCULATION DONE: (MAX THREADS = 40)             Fri Sep 19 21:33:50 2025  *
 *  PM7        - The PM7 Hamiltonian to be used
 *
 *
 *
 *                 CHARGE ON SYSTEM = +1
 *
 *
 *
 *  1SCF       - DO 1 SCF AND THEN STOP 
 *  T=         - A TIME OF 172800.0 SECONDS REQUESTED
 *  DUMP=N     - RESTART FILE WRITTEN EVERY 7200.0 SECONDS REQUESTED
 *  RELSCF     - DEFAULT SCF CRITERION MULTIPLIED BY 0.0001
 *              (DEFAULT SCF CRITERION = 0.00010)
 *  GRADIENTS  - ALL GRADIENTS TO BE PRINTED
 *  DISP       - PRINT DISPERSION AND HYDROGEN BOND ENERGIES
 *******************************************************************************
PM7 1SCF GRADIENTS DISP RELSCF=0.0001 CHARGE=1
 Title: ASE calculation

   ATOM   CHEMICAL          X               Y               Z
  NUMBER   SYMBOL      (ANGSTROMS)     (ANGSTROMS)     (ANGSTROMS)

     1       N          3.32532097  *   1.73236570  *   0.24386544  *
     2       C          2.31644041  *   1.16288867  *   0.22430857  *
     3       C          1.10482260  *   0.45146475  *   0.20589311  *
     4       N          0.93505295  *  -0.91100617  *   0.35198569  *
     5       C         -0.36766692  *  -1.18208112  *   0.29014958  *
     6       C         -1.11780342  *   0.10229239  *   0.08730232  *
     7       C         -2.56862279  *   0.34719211  *  -0.02732873  *
     8       O         -2.67502930  *   1.74056213  *  -0.20455108  *
     9       N         -0.17228361  *   1.07206724  *   0.03645952  *
    10       H         -0.79240766  *  -2.18343601  *   0.37576259  *
    11       H         -3.02086356  *  -0.19757332  *  -0.89740957  *
    12       H         -3.11365293  *   0.03256386  *   0.90290212  *
    13       H         -3.61746861  *   2.02035392  *  -0.34722023  *
    14       H         -0.34529262  *   2.07475759  *  -0.09493458  *



          CARTESIAN COORDINATES 

    NO.       ATOM           X           Y           Z

     1         N          3.3253      1.7324      0.2439
     2         C          2.3164      1.1629      0.2243
     3         C          1.1048      0.4515      0.2059
     4         N          0.9351     -0.9110      0.3520
     5         C         -0.3677     -1.1821      0.2901
     6         C         -1.1178      0.1023      0.0873
     7         C         -2.5686      0.3472     -0.0273
     8         O         -2.6750      1.7406     -0.2046
     9         N         -0.1723      1.0721      0.0365
    10         H         -0.7924     -2.1834      0.3758
    11         H         -3.0209     -0.1976     -0.8974
    12         H         -3.1137      0.0326      0.9029
    13         H         -3.6175      2.0204     -0.3472
    14         H         -0.3453      2.0748     -0.0949

 General Reference for PM7:
 "Optimization of Parameters for Semiempirical Methods VI: More Modifications to the 
 NDDO Approximations and Re-optimization of Parameters", J. J. P. Stewart, J. Mol. Mod., 1:32, 19 (2013)
 https://link.springer.com/article/10.1007/s00894-012-1667-x

           Empirical Formula: C5 H5 N3 O  =    14 atoms



      MOLECULAR POINT GROUP   :   Cs  


          UHF CALCULATION, NO. OF ALPHA ELECTRONS =   23
                           NO. OF BETA  ELECTRONS =   22
  SCF CRITERION =    0.1000E-07

 -------------------------------------------------------------------------------
 PM7 1SCF GRADIENTS DISP RELSCF=0.0001 CHARGE=1
 Title: ASE calculation



     1SCF WAS SPECIFIED, SO BFGS WAS NOT USED                 
     SCF FIELD WAS ACHIEVED                                   


                              PM7 CALCULATION
                                                       MOPAC v23.2 Linux
                                                       Fri Sep 19 21:33:51 2025




          FINAL HEAT OF FORMATION =        234.16830 KCAL/MOL =     979.76017 KJ/MOL

          TOTAL ENERGY            =     -35171.70362 KCAL/MOL = ELECTRONIC ENERGY + CORE-CORE REPULSION
          ENERGY OF ATOMS         =      35407.34440 KCAL/MOL
                              SUM =        235.64079 KCAL/MOL
          DISPERSION ENERGY       =         -1.46998 KCAL/MOL
          H-BOND ENERGY           =         -0.00251 KCAL/MOL
                              SUM =        234.16830 KCAL/MOL = FINAL HEAT OF FORMATION



          TOTAL ENERGY            =      -1525.18942 EV
          ELECTRONIC ENERGY       =      -6407.00436 EV 
          CORE-CORE REPULSION     =       4881.81494 EV
          COSMO AREA              =        156.16 SQUARE ANGSTROMS
          COSMO VOLUME            =        144.64 CUBIC ANGSTROMS

          GRADIENT NORM           =          1.26243          =       0.33740 PER ATOM
          IONIZATION POTENTIAL    =         15.414725 EV
          ALPHA SOMO LUMO (EV)    =        -15.415 -6.372
          BETA  SOMO LUMO (EV)    =        -15.954 -8.313
          NO. OF ALPHA ELECTRONS  =         23
          NO. OF BETA  ELECTRONS  =         22
          MOLECULAR WEIGHT        =        123.1140         POINT GROUP:  Cs  

          MOLECULAR DIMENSIONS (Angstroms)

            Atom       Atom       Distance
            H    13    N     1     6.97385
            H    14    H    10     4.30129
            H    12    H    11     1.81653


          SCF CALCULATIONS        =          1

          WALL-CLOCK TIME         =      0.734 SECONDS
          COMPUTATION TIME        =      0.749 SECONDS

          LARGEST ATOMIC GRADIENTS

          Atom     Label                     Cartesian Gradients           Cartesian Coordinates       |Gradient|
                                           X          Y          Z        X          Y          Z

             8       O                   0.413     -0.077      0.068   -2.67503    1.74056   -0.20455      0.426
            11       H                  -0.383     -0.085     -0.107   -3.02086   -0.19757   -0.89741      0.407
            13       H                  -0.183      0.318     -0.141   -3.61747    2.02035   -0.34722      0.393
             1       N                   0.218      0.324      0.026    3.32532    1.73237    0.24387      0.391
             5       C                  -0.346      0.147     -0.079   -0.36767   -1.18208    0.29015      0.385
             9       N                   0.120     -0.142     -0.328   -0.17228    1.07207    0.03646      0.377
            10       H                   0.316     -0.098      0.031   -0.79241   -2.18344    0.37576      0.332
             7       C                  -0.120     -0.274      0.136   -2.56862    0.34719   -0.02733      0.328
             4       N                  -0.327     -0.001     -0.016    0.93505   -0.91101    0.35199      0.328
             2       C                  -0.188     -0.039      0.265    2.31644    1.16289    0.22431      0.327



       FINAL  POINT  AND  DERIVATIVES

   PARAMETER     ATOM    TYPE            VALUE        GRADIENT
      1          1  N    CARTESIAN X     3.325321      0.217875  KCAL/ANGSTROM
      2          1  N    CARTESIAN Y     1.732366      0.323924  KCAL/ANGSTROM
      3          1  N    CARTESIAN Z     0.243865      0.026224  KCAL/ANGSTROM
      4          2  C    CARTESIAN X     2.316440     -0.188415  KCAL/ANGSTROM
      5          2  C    CARTESIAN Y     1.162889     -0.038869  KCAL/ANGSTROM
      6          2  C    CARTESIAN Z     0.224309      0.264799  KCAL/ANGSTROM
      7          3  C    CARTESIAN X     1.104823      0.107189  KCAL/ANGSTROM
      8          3  C    CARTESIAN Y     0.451465     -0.145970  KCAL/ANGSTROM
      9          3  C    CARTESIAN Z     0.205893     -0.077024  KCAL/ANGSTROM
     10          4  N    CARTESIAN X     0.935053     -0.327153  KCAL/ANGSTROM
     11          4  N    CARTESIAN Y    -0.911006     -0.000781  KCAL/ANGSTROM
     12          4  N    CARTESIAN Z     0.351986     -0.015677  KCAL/ANGSTROM
     13          5  C    CARTESIAN X    -0.367667     -0.346495  KCAL/ANGSTROM
     14          5  C    CARTESIAN Y    -1.182081      0.146801  KCAL/ANGSTROM
     15          5  C    CARTESIAN Z     0.290150     -0.079066  KCAL/ANGSTROM
     16          6  C    CARTESIAN X    -1.117803     -0.048675  KCAL/ANGSTROM
     17          6  C    CARTESIAN Y     0.102292      0.088043  KCAL/ANGSTROM
     18          6  C    CARTESIAN Z     0.087302      0.073695  KCAL/ANGSTROM
     19          7  C    CARTESIAN X    -2.568623     -0.119527  KCAL/ANGSTROM
     20          7  C    CARTESIAN Y     0.347192     -0.273713  KCAL/ANGSTROM
     21          7  C    CARTESIAN Z    -0.027329      0.136379  KCAL/ANGSTROM
     22          8  O    CARTESIAN X    -2.675029      0.413149  KCAL/ANGSTROM
     23          8  O    CARTESIAN Y     1.740562     -0.077111  KCAL/ANGSTROM
     24          8  O    CARTESIAN Z    -0.204551      0.067574  KCAL/ANGSTROM
     25          9  N    CARTESIAN X    -0.172284      0.120360  KCAL/ANGSTROM
     26          9  N    CARTESIAN Y     1.072067     -0.142108  KCAL/ANGSTROM
     27          9  N    CARTESIAN Z     0.036460     -0.327828  KCAL/ANGSTROM
     28         10  H    CARTESIAN X    -0.792408      0.315562  KCAL/ANGSTROM
     29         10  H    CARTESIAN Y    -2.183436     -0.097730  KCAL/ANGSTROM
     30         10  H    CARTESIAN Z     0.375763      0.031191  KCAL/ANGSTROM
     31         11  H    CARTESIAN X    -3.020864     -0.383386  KCAL/ANGSTROM
     32         11  H    CARTESIAN Y    -0.197573     -0.084638  KCAL/ANGSTROM
     33         11  H    CARTESIAN Z    -0.897410     -0.106911  KCAL/ANGSTROM
     34         12  H    CARTESIAN X    -3.113653      0.158277  KCAL/ANGSTROM
     35         12  H    CARTESIAN Y     0.032564     -0.152316  KCAL/ANGSTROM
     36         12  H    CARTESIAN Z     0.902902      0.160566  KCAL/ANGSTROM
     37         13  H    CARTESIAN X    -3.617469     -0.183011  KCAL/ANGSTROM
     38         13  H    CARTESIAN Y     2.020354      0.318341  KCAL/ANGSTROM
     39         13  H    CARTESIAN Z    -0.347220     -0.140977  KCAL/ANGSTROM
     40         14  H    CARTESIAN X    -0.345293      0.264249  KCAL/ANGSTROM
     41         14  H    CARTESIAN Y     2.074758      0.136123  KCAL/ANGSTROM
     42         14  H    CARTESIAN Z    -0.094935     -0.012948  KCAL/ANGSTROM




   ATOM   CHEMICAL          X               Y               Z
  NUMBER   SYMBOL      (ANGSTROMS)     (ANGSTROMS)     (ANGSTROMS)

     1       N          3.32532097  *   1.73236570  *   0.24386544  *
     2       C          2.31644041  *   1.16288867  *   0.22430857  *
     3       C          1.10482260  *   0.45146475  *   0.20589311  *
     4       N          0.93505295  *  -0.91100617  *   0.35198569  *
     5       C         -0.36766692  *  -1.18208112  *   0.29014958  *
     6       C         -1.11780342  *   0.10229239  *   0.08730232  *
     7       C         -2.56862279  *   0.34719211  *  -0.02732873  *
     8       O         -2.67502930  *   1.74056213  *  -0.20455108  *
     9       N         -0.17228361  *   1.07206724  *   0.03645952  *
    10       H         -0.79240766  *  -2.18343601  *   0.37576259  *
    11       H         -3.02086356  *  -0.19757332  *  -0.89740957  *
    12       H         -3.11365293  *   0.03256386  *   0.90290212  *
    13       H         -3.61746861  *   2.02035392  *  -0.34722023  *
    14       H         -0.34529262  *   2.07475759  *  -0.09493458  *

                             CARTESIAN COORDINATES

   1    N        3.325320975     1.732365697     0.243865443
   2    C        2.316440411     1.162888670     0.224308574
   3    C        1.104822603     0.451464747     0.205893108
   4    N        0.935052953    -0.911006172     0.351985693
   5    C       -0.367666922    -1.182081120     0.290149581
   6    C       -1.117803420     0.102292394     0.087302319
   7    C       -2.568622790     0.347192113    -0.027328725
   8    O       -2.675029297     1.740562131    -0.204551084
   9    N       -0.172283607     1.072067244     0.036459519
  10    H       -0.792407656    -2.183436009     0.375762595
  11    H       -3.020863558    -0.197573324    -0.897409565
  12    H       -3.113652929     0.032563860     0.902902115
  13    H       -3.617468612     2.020353916    -0.347220226
  14    H       -0.345292617     2.074757589    -0.094934576


           Empirical Formula: C5 H5 N3 O  =    14 atoms



      MOLECULAR POINT GROUP   :   Cs  


          ALPHA EIGENVALUES  
 -45.12438 -40.03858 -39.53189 -34.84566 -32.74388 -30.19617 -28.18386 -27.02261
 -25.13522 -22.80900 -22.26995 -22.19196 -21.17311 -20.61356 -20.27928 -18.75147
 -18.45392 -18.37669 -18.06182 -17.26779 -16.91122 -16.18452 -15.41472  -6.37187
  -5.22782  -4.95738  -3.89895  -3.52934  -3.38795  -2.77241  -2.56756  -2.47945
  -2.26356  -1.72838  -0.65953  -0.25704  -0.07627   0.00621   0.18419   0.69490
   0.99738


           BETA EIGENVALUES 
 -45.29847 -40.33171 -39.23748 -34.81140 -32.58646 -30.10856 -28.14622 -26.98533
 -25.06950 -22.79796 -22.15558 -21.81399 -21.11018 -20.25549 -20.20513 -18.38904
 -18.29719 -18.19594 -18.00085 -17.60090 -17.05123 -15.95369  -8.31311  -5.50942
  -4.89112  -4.64035  -3.84148  -3.42242  -2.95858  -2.69539  -2.50841  -2.42790
  -2.17923  -1.64283  -0.61785  -0.19508  -0.03265   0.04264   0.18134   0.76725
   0.99815


              NET ATOMIC CHARGES AND DIPOLE CONTRIBUTIONS

  ATOM NO.   TYPE          CHARGE      No. of ELECS.   s-Pop       p-Pop       
    1          N           0.062486        4.9375     1.82632     3.11120
    2          C          -0.002261        4.0023     1.07084     2.93142
    3          C           0.354775        3.6452     1.08680     2.55843
    4          N          -0.249493        5.2495     1.75942     3.49008
    5          C           0.082503        3.9175     1.14850     2.76899
    6          C           0.190214        3.8098     1.14314     2.66664
    7          C          -0.019211        4.0192     1.08386     2.93535
    8          O          -0.548160        6.5482     1.85052     4.69764
    9          N          -0.282062        5.2821     1.53521     3.74685
   10          H           0.246675        0.7533     0.75332
   11          H           0.199114        0.8009     0.80089
   12          H           0.200604        0.7994     0.79940
   13          H           0.378941        0.6211     0.62106
   14          H           0.385875        0.6141     0.61412
 DIPOLE           X         Y         Z       TOTAL
 POINT-CHG.    -5.810    -1.899    -0.246     6.118
 HYBRID        -1.050     1.116    -0.237     1.551
 SUM           -6.860    -0.782    -0.483     6.921


          ATOMIC ORBITAL ELECTRON POPULATIONS

     Atom    s        px        py        pz   
    1  N   1.82632   1.12985   1.03220   0.94915
    2  C   1.07084   0.92809   0.98614   1.01719
    3  C   1.08680   0.83374   0.84543   0.87926
    4  N   1.75942   1.22113   1.12332   1.14562
    5  C   1.14850   0.87103   1.03384   0.86413
    6  C   1.14314   0.95883   0.91260   0.79521
    7  C   1.08386   0.92367   0.85207   1.15961
    8  O   1.85052   1.47394   1.25775   1.96596
    9  N   1.53521   1.11602   1.20533   1.42550
   10  H   0.75332
   11  H   0.80089
   12  H   0.79940
   13  H   0.62106
   14  H   0.61412


                    (SZ)    =    0.500000
                    (S**2)  =    0.812005


          ATOMIC ORBITAL SPIN POPULATIONS

    Atom   Total    s     px     py     pz   
         Atomic
    1  N  0.1770  0.002  0.012  0.026  0.138
    2  C -0.1293 -0.009 -0.016 -0.026 -0.078
    3  C  0.5374  0.017  0.021  0.026  0.474
    4  N -0.1986 -0.003 -0.016 -0.024 -0.156
    5  C  0.3816  0.009  0.013  0.011  0.347
    6  C  0.3564  0.008  0.012  0.011  0.326
    7  C -0.0073 -0.003 -0.012 -0.001  0.009
    8  O  0.0031  0.000  0.000  0.000  0.003
    9  N -0.1542 -0.008 -0.019 -0.011 -0.116
   10  H -0.0106 -0.011
   11  H  0.0196  0.020
   12  H  0.0203  0.020
   13  H -0.0005 -0.001
   14  H  0.0052  0.005

 **********************
 *                    *
 * JOB ENDED NORMALLY *
 *                    *
 **********************



 TOTAL JOB TIME:             0.92 SECONDS

 == MOPAC DONE ==
