 *******************************************************************************
 **                                                                           **
 **                              MOPAC v23.2                                  **
 **                                                                           **
 *******************************************************************************
 **          Digital Object Identifier (DOI): 10.5281/zenodo.6511958          **
 **    Visit the DOI location for information on how to cite this program.    **
 *******************************************************************************

                              PM7 CALCULATION RESULTS

 *******************************************************************************
 *  CALCULATION DONE: (MAX THREADS = 40)             Fri Sep 19 21:39:06 2025  *
 *  PM7        - The PM7 Hamiltonian to be used
 *
 *
 *
 *                 CHARGE ON SYSTEM = +1
 *
 *
 *
 *  EPS=37.5   - USE ANDREAS KLAMT'S COSMO IMPLICIT SOLVATION MODEL
 *  1SCF       - DO 1 SCF AND THEN STOP 
 *  T=         - A TIME OF 172800.0 SECONDS REQUESTED
 *  DUMP=N     - RESTART FILE WRITTEN EVERY 7200.0 SECONDS REQUESTED
 *  RELSCF     - DEFAULT SCF CRITERION MULTIPLIED BY 0.0001
 *              (DEFAULT SCF CRITERION = 0.00010)
 *  GRADIENTS  - ALL GRADIENTS TO BE PRINTED
 *  DISP       - PRINT DISPERSION AND HYDROGEN BOND ENERGIES
 *******************************************************************************
PM7 1SCF GRADIENTS EPS=37.5 DISP RELSCF=0.0001 CHARGE=1
 Title: ASE calculation

   ATOM   CHEMICAL          X               Y               Z
  NUMBER   SYMBOL      (ANGSTROMS)     (ANGSTROMS)     (ANGSTROMS)

     1       O         -2.46521701  *   1.58514300  *   1.28050365  *
     2       C         -1.88293455  *   0.78415128  *   0.61573100  *
     3       C         -1.99316499  *  -0.71538891  *   0.71613584  *
     4       C         -0.88160384  *  -1.31053880  *  -0.15053266  *
     5       C         -0.03327526  *  -0.11629215  *  -0.67245871  *
     6       N          1.21392976  *  -0.02092376  *   0.00951617  *
     7       C          2.14641264  *   0.84580148  *   0.65850848  *
     8       C          2.21407864  *  -0.68748640  *   0.78151188  *
     9       C         -0.87146335  *   1.14874731  *  -0.46473138  *
    10       H         -3.00581518  *  -1.04309869  *   0.38284711  *
    11       H         -1.94322546  *  -1.04955550  *   1.77272304  *
    12       H         -1.30614948  *  -1.87357531  *  -1.00996047  *
    13       H         -0.28050133  *  -2.05533903  *   0.40032048  *
    14       H          0.22409245  *  -0.26652798  *  -1.77272304  *
    15       H          1.80632539  *   1.48102052  *   1.49862567  *
    16       H          2.88773938  *   1.39844220  *   0.04902024  *
    17       H          1.93028973  *  -1.20812022  *   1.71430127  *
    18       H          3.00581518  *  -1.26145434  *   0.26308298  *
    19       H         -0.29578183  *   2.05533903  *  -0.20337127  *
    20       H         -1.41886412  *   1.43590143  *  -1.39335132  *



          CARTESIAN COORDINATES 

    NO.       ATOM           X           Y           Z

     1         O         -2.4652      1.5851      1.2805
     2         C         -1.8829      0.7842      0.6157
     3         C         -1.9932     -0.7154      0.7161
     4         C         -0.8816     -1.3105     -0.1505
     5         C         -0.0333     -0.1163     -0.6725
     6         N          1.2139     -0.0209      0.0095
     7         C          2.1464      0.8458      0.6585
     8         C          2.2141     -0.6875      0.7815
     9         C         -0.8715      1.1487     -0.4647
    10         H         -3.0058     -1.0431      0.3828
    11         H         -1.9432     -1.0496      1.7727
    12         H         -1.3061     -1.8736     -1.0100
    13         H         -0.2805     -2.0553      0.4003
    14         H          0.2241     -0.2665     -1.7727
    15         H          1.8063      1.4810      1.4986
    16         H          2.8877      1.3984      0.0490
    17         H          1.9303     -1.2081      1.7143
    18         H          3.0058     -1.2615      0.2631
    19         H         -0.2958      2.0553     -0.2034
    20         H         -1.4189      1.4359     -1.3934

 General Reference for PM7:
 "Optimization of Parameters for Semiempirical Methods VI: More Modifications to the 
 NDDO Approximations and Re-optimization of Parameters", J. J. P. Stewart, J. Mol. Mod., 1:32, 19 (2013)
 https://link.springer.com/article/10.1007/s00894-012-1667-x

           Empirical Formula: C7 H11 N O  =    20 atoms



      MOLECULAR POINT GROUP   :   C1  


          UHF CALCULATION, NO. OF ALPHA ELECTRONS =   25
                           NO. OF BETA  ELECTRONS =   24
  SCF CRITERION =    0.1000E-07

 -------------------------------------------------------------------------------
 PM7 1SCF GRADIENTS EPS=37.5 DISP RELSCF=0.0001 CHARGE=1
 Title: ASE calculation



     1SCF WAS SPECIFIED, SO BFGS WAS NOT USED                 
     SCF FIELD WAS ACHIEVED                                   


                              PM7 CALCULATION
                                                       MOPAC v23.2 Linux
                                                       Fri Sep 19 21:39:07 2025




          FINAL HEAT OF FORMATION =        121.72453 KCAL/MOL =     509.29544 KJ/MOL

          TOTAL ENERGY            =     -34200.10077 KCAL/MOL = ELECTRONIC ENERGY + CORE-CORE REPULSION + SOLVATION ENERGY
          ENERGY OF ATOMS         =      34323.93363 KCAL/MOL
                              SUM =        123.83287 KCAL/MOL
          DISPERSION ENERGY       =         -2.10834 KCAL/MOL
                              SUM =        121.72453 KCAL/MOL = FINAL HEAT OF FORMATION

          VAN DER WAALS AREA      =        166.35 SQUARE ANGSTROMS


          TOTAL ENERGY            =      -1483.05673 EV
          ELECTRONIC ENERGY       =      -2242.42999 EV 
          CORE-CORE REPULSION     =        759.37325 EV

          DIELECTRIC ENERGY       =         -2.75080 EV
          COSMO AREA              =        166.35 SQUARE ANGSTROMS
          COSMO VOLUME            =        166.43 CUBIC ANGSTROMS

          GRADIENT NORM           =         41.45368          =       9.26933 PER ATOM
          IONIZATION POTENTIAL    =         11.005708 EV
          ALPHA SOMO LUMO (EV)    =        -11.006 -0.547
          BETA  SOMO LUMO (EV)    =        -11.017 -2.172
          NO. OF ALPHA ELECTRONS  =         25
          NO. OF BETA  ELECTRONS  =         24
          MOLECULAR WEIGHT        =        125.1700         POINT GROUP:  C1  

          MOLECULAR DIMENSIONS (Angstroms)

            Atom       Atom       Distance
            H    16    H    10     6.38800
            H    17    H    20     4.91838
            O     1    H    12     4.11877


          SCF CALCULATIONS        =          2

          WALL-CLOCK TIME         =      1.266 SECONDS
          COMPUTATION TIME        =      0.769 SECONDS

          LARGEST ATOMIC GRADIENTS

          Atom     Label                     Cartesian Gradients           Cartesian Coordinates       |Gradient|
                                           X          Y          Z        X          Y          Z

             2       C                 -18.810     17.672     19.640   -1.88293    0.78415    0.61573     32.432
             1       O                  11.815    -12.717    -11.374   -2.46522    1.58514    1.28050     20.753
             9       C                   8.020      0.789     -8.379   -0.87146    1.14875   -0.46473     11.626
             3       C                   3.325     -5.142     -2.370   -1.99316   -0.71539    0.71614      6.566
             5       C                  -1.682      0.744     -3.166   -0.03328   -0.11629   -0.67246      3.661
             4       C                   1.881     -2.844      0.262   -0.88160   -1.31054   -0.15053      3.420
            19       H                  -1.995     -0.187      0.743   -0.29578    2.05534   -0.20337      2.137
            14       H                  -0.680      0.303      1.998    0.22409   -0.26653   -1.77272      2.132
             6       N                  -0.201      0.323     -1.967    1.21393   -0.02092    0.00952      2.003
            11       H                  -1.623      0.543     -0.312   -1.94323   -1.04956    1.77272      1.740



       FINAL  POINT  AND  DERIVATIVES

   PARAMETER     ATOM    TYPE            VALUE        GRADIENT
      1          1  O    CARTESIAN X    -2.465217     11.815105  KCAL/ANGSTROM
      2          1  O    CARTESIAN Y     1.585143    -12.716865  KCAL/ANGSTROM
      3          1  O    CARTESIAN Z     1.280504    -11.373866  KCAL/ANGSTROM
      4          2  C    CARTESIAN X    -1.882935    -18.809825  KCAL/ANGSTROM
      5          2  C    CARTESIAN Y     0.784151     17.672314  KCAL/ANGSTROM
      6          2  C    CARTESIAN Z     0.615731     19.640349  KCAL/ANGSTROM
      7          3  C    CARTESIAN X    -1.993165      3.325111  KCAL/ANGSTROM
      8          3  C    CARTESIAN Y    -0.715389     -5.142199  KCAL/ANGSTROM
      9          3  C    CARTESIAN Z     0.716136     -2.369777  KCAL/ANGSTROM
     10          4  C    CARTESIAN X    -0.881604      1.880597  KCAL/ANGSTROM
     11          4  C    CARTESIAN Y    -1.310539     -2.844020  KCAL/ANGSTROM
     12          4  C    CARTESIAN Z    -0.150533      0.262141  KCAL/ANGSTROM
     13          5  C    CARTESIAN X    -0.033275     -1.682125  KCAL/ANGSTROM
     14          5  C    CARTESIAN Y    -0.116292      0.743745  KCAL/ANGSTROM
     15          5  C    CARTESIAN Z    -0.672459     -3.165625  KCAL/ANGSTROM
     16          6  N    CARTESIAN X     1.213930     -0.201063  KCAL/ANGSTROM
     17          6  N    CARTESIAN Y    -0.020924      0.323231  KCAL/ANGSTROM
     18          6  N    CARTESIAN Z     0.009516     -1.966592  KCAL/ANGSTROM
     19          7  C    CARTESIAN X     2.146413      1.169784  KCAL/ANGSTROM
     20          7  C    CARTESIAN Y     0.845801      0.790754  KCAL/ANGSTROM
     21          7  C    CARTESIAN Z     0.658508      0.186062  KCAL/ANGSTROM
     22          8  C    CARTESIAN X     2.214079      1.002849  KCAL/ANGSTROM
     23          8  C    CARTESIAN Y    -0.687486     -1.243762  KCAL/ANGSTROM
     24          8  C    CARTESIAN Z     0.781512      0.686398  KCAL/ANGSTROM
     25          9  C    CARTESIAN X    -0.871463      8.020485  KCAL/ANGSTROM
     26          9  C    CARTESIAN Y     1.148747      0.789466  KCAL/ANGSTROM
     27          9  C    CARTESIAN Z    -0.464731     -8.379175  KCAL/ANGSTROM
     28         10  H    CARTESIAN X    -3.005815     -1.058972  KCAL/ANGSTROM
     29         10  H    CARTESIAN Y    -1.043099      0.525230  KCAL/ANGSTROM
     30         10  H    CARTESIAN Z     0.382847      0.391843  KCAL/ANGSTROM
     31         11  H    CARTESIAN X    -1.943225     -1.623122  KCAL/ANGSTROM
     32         11  H    CARTESIAN Y    -1.049556      0.542941  KCAL/ANGSTROM
     33         11  H    CARTESIAN Z     1.772723     -0.311696  KCAL/ANGSTROM
     34         12  H    CARTESIAN X    -1.306149     -0.887931  KCAL/ANGSTROM
     35         12  H    CARTESIAN Y    -1.873575     -0.494471  KCAL/ANGSTROM
     36         12  H    CARTESIAN Z    -1.009960      0.091441  KCAL/ANGSTROM
     37         13  H    CARTESIAN X    -0.280501     -1.185473  KCAL/ANGSTROM
     38         13  H    CARTESIAN Y    -2.055339     -0.120181  KCAL/ANGSTROM
     39         13  H    CARTESIAN Z     0.400320     -0.138897  KCAL/ANGSTROM
     40         14  H    CARTESIAN X     0.224092     -0.679908  KCAL/ANGSTROM
     41         14  H    CARTESIAN Y    -0.266528      0.302877  KCAL/ANGSTROM
     42         14  H    CARTESIAN Z    -1.772723      1.997795  KCAL/ANGSTROM
     43         15  H    CARTESIAN X     1.806325     -0.281292  KCAL/ANGSTROM
     44         15  H    CARTESIAN Y     1.481021      0.782133  KCAL/ANGSTROM
     45         15  H    CARTESIAN Z     1.498626      0.981310  KCAL/ANGSTROM
     46         16  H    CARTESIAN X     2.887739      0.900114  KCAL/ANGSTROM
     47         16  H    CARTESIAN Y     1.398442      0.673328  KCAL/ANGSTROM
     48         16  H    CARTESIAN Z     0.049020      0.283151  KCAL/ANGSTROM
     49         17  H    CARTESIAN X     1.930290      0.473934  KCAL/ANGSTROM
     50         17  H    CARTESIAN Y    -1.208120     -0.191392  KCAL/ANGSTROM
     51         17  H    CARTESIAN Z     1.714301      0.718126  KCAL/ANGSTROM
     52         18  H    CARTESIAN X     3.005815      0.866784  KCAL/ANGSTROM
     53         18  H    CARTESIAN Y    -1.261454     -0.244844  KCAL/ANGSTROM
     54         18  H    CARTESIAN Z     0.263083      0.663026  KCAL/ANGSTROM
     55         19  H    CARTESIAN X    -0.295782     -1.995202  KCAL/ANGSTROM
     56         19  H    CARTESIAN Y     2.055339     -0.187062  KCAL/ANGSTROM
     57         19  H    CARTESIAN Z    -0.203371      0.742706  KCAL/ANGSTROM
     58         20  H    CARTESIAN X    -1.418864     -1.049850  KCAL/ANGSTROM
     59         20  H    CARTESIAN Y     1.435901      0.038773  KCAL/ANGSTROM
     60         20  H    CARTESIAN Z    -1.393351      1.061277  KCAL/ANGSTROM




   ATOM   CHEMICAL          X               Y               Z
  NUMBER   SYMBOL      (ANGSTROMS)     (ANGSTROMS)     (ANGSTROMS)

     1       O         -2.46521701  *   1.58514300  *   1.28050365  *
     2       C         -1.88293455  *   0.78415128  *   0.61573100  *
     3       C         -1.99316499  *  -0.71538891  *   0.71613584  *
     4       C         -0.88160384  *  -1.31053880  *  -0.15053266  *
     5       C         -0.03327526  *  -0.11629215  *  -0.67245871  *
     6       N          1.21392976  *  -0.02092376  *   0.00951617  *
     7       C          2.14641264  *   0.84580148  *   0.65850848  *
     8       C          2.21407864  *  -0.68748640  *   0.78151188  *
     9       C         -0.87146335  *   1.14874731  *  -0.46473138  *
    10       H         -3.00581518  *  -1.04309869  *   0.38284711  *
    11       H         -1.94322546  *  -1.04955550  *   1.77272304  *
    12       H         -1.30614948  *  -1.87357531  *  -1.00996047  *
    13       H         -0.28050133  *  -2.05533903  *   0.40032048  *
    14       H          0.22409245  *  -0.26652798  *  -1.77272304  *
    15       H          1.80632539  *   1.48102052  *   1.49862567  *
    16       H          2.88773938  *   1.39844220  *   0.04902024  *
    17       H          1.93028973  *  -1.20812022  *   1.71430127  *
    18       H          3.00581518  *  -1.26145434  *   0.26308298  *
    19       H         -0.29578183  *   2.05533903  *  -0.20337127  *
    20       H         -1.41886412  *   1.43590143  *  -1.39335132  *

                             CARTESIAN COORDINATES

   1    O       -2.465217009     1.585143001     1.280503646
   2    C       -1.882934550     0.784151285     0.615731003
   3    C       -1.993164987    -0.715388911     0.716135838
   4    C       -0.881603842    -1.310538796    -0.150532664
   5    C       -0.033275261    -0.116292147    -0.672458705
   6    N        1.213929755    -0.020923757     0.009516174
   7    C        2.146412637     0.845801477     0.658508481
   8    C        2.214078636    -0.687486401     0.781511883
   9    C       -0.871463347     1.148747306    -0.464731379
  10    H       -3.005815176    -1.043098692     0.382847106
  11    H       -1.943225457    -1.049555503     1.772723039
  12    H       -1.306149478    -1.873575312    -1.009960470
  13    H       -0.280501333    -2.055339025     0.400320478
  14    H        0.224092446    -0.266527980    -1.772723039
  15    H        1.806325390     1.481020520     1.498625665
  16    H        2.887739377     1.398442204     0.049020235
  17    H        1.930289728    -1.208120223     1.714301267
  18    H        3.005815176    -1.261454344     0.263082984
  19    H       -0.295781831     2.055339025    -0.203371267
  20    H       -1.418864124     1.435901426    -1.393351325


           Empirical Formula: C7 H11 N O  =    20 atoms



      MOLECULAR POINT GROUP   :   C1  


          ALPHA EIGENVALUES  
 -39.61908 -32.19494 -30.95782 -27.56939 -25.75729 -23.67952 -22.91779 -20.55847
 -19.65461 -19.31374 -18.39401 -17.17451 -16.45673 -16.35843 -15.29971 -14.82780
 -14.49221 -13.92629 -13.87080 -13.64278 -13.40565 -13.23816 -12.40664 -11.91142
 -11.00571  -0.54677   0.22688   0.75625   1.96913   2.19825   2.60407   2.86680
   3.22677   3.32311   3.56066   4.18302   4.35908   4.56853   4.61562   4.65589
   4.77332   4.83670   4.86764   5.22687   5.57601   5.74364   5.90736


           BETA EIGENVALUES 
 -38.05909 -32.17854 -30.87811 -27.24688 -25.67656 -23.41643 -22.75692 -20.35839
 -19.54880 -18.70656 -17.97418 -16.97420 -16.32795 -16.05791 -15.24740 -14.77446
 -14.21802 -13.87614 -13.68141 -13.47341 -13.30049 -13.12091 -12.37252 -11.01735
  -2.17170   0.09835   0.22841   0.91800   1.98024   2.24000   2.70575   2.97604
   3.24369   3.54189   3.83765   4.36724   4.53887   4.59925   4.63976   4.67890
   4.82762   4.85562   4.91536   5.23133   5.57860   5.74740   5.90686


              NET ATOMIC CHARGES AND DIPOLE CONTRIBUTIONS

  ATOM NO.   TYPE          CHARGE      No. of ELECS.   s-Pop       p-Pop       
    1          O          -0.537041        6.5370     1.86621     4.67083
    2          C           0.559117        3.4409     1.12631     2.31457
    3          C          -0.394382        4.3944     1.07349     3.32090
    4          C          -0.282258        4.2823     1.07118     3.21108
    5          C           0.059717        3.9403     1.08889     2.85140
    6          N          -0.038662        5.0387     1.56231     3.47635
    7          C          -0.160893        4.1609     1.09620     3.06469
    8          C          -0.154757        4.1548     1.09569     3.05907
    9          C          -0.434528        4.4345     1.08394     3.35059
   10          H           0.211099        0.7889     0.78890
   11          H           0.201118        0.7989     0.79888
   12          H           0.190747        0.8093     0.80925
   13          H           0.177327        0.8227     0.82267
   14          H           0.243537        0.7565     0.75646
   15          H           0.229379        0.7706     0.77062
   16          H           0.233926        0.7661     0.76607
   17          H           0.228206        0.7718     0.77179
   18          H           0.232458        0.7675     0.76754
   19          H           0.208070        0.7919     0.79193
   20          H           0.227819        0.7722     0.77218
 DIPOLE           X         Y         Z       TOTAL
 POINT-CHG.     8.712    -4.022    -3.064    10.073
 HYBRID        -0.163     0.243    -0.047     0.297
 SUM            8.549    -3.778    -3.111     9.851


          ATOMIC ORBITAL ELECTRON POPULATIONS

     Atom    s        px        py        pz   
    1  O   1.86621   1.52809   1.62674   1.51600
    2  C   1.12631   0.71397   0.87054   0.73006
    3  C   1.07349   1.12321   1.03423   1.16345
    4  C   1.07118   1.04412   1.03247   1.13449
    5  C   1.08889   0.79439   1.00911   1.04789
    6  N   1.56231   1.10790   1.25026   1.11819
    7  C   1.09620   0.98512   0.99285   1.08672
    8  C   1.09569   0.97224   1.01338   1.07344
    9  C   1.08394   1.10926   1.07023   1.17110
   10  H   0.78890
   11  H   0.79888
   12  H   0.80925
   13  H   0.82267
   14  H   0.75646
   15  H   0.77062
   16  H   0.76607
   17  H   0.77179
   18  H   0.76754
   19  H   0.79193
   20  H   0.77218


                    (SZ)    =    0.500000
                    (S**2)  =    0.762836


          ATOMIC ORBITAL SPIN POPULATIONS

    Atom   Total    s     px     py     pz   
         Atomic
    1  O  0.0005 -0.000 -0.000 -0.000  0.001
    2  C  0.0005  0.001 -0.000  0.000  0.000
    3  C  0.0002 -0.000  0.001 -0.000  0.000
    4  C  0.0280  0.004  0.009  0.011  0.003
    5  C -0.0475 -0.004 -0.017 -0.008 -0.018
    6  N  0.9659  0.050  0.253  0.066  0.597
    7  C -0.0567 -0.005 -0.043 -0.001 -0.008
    8  C -0.0564 -0.005 -0.043  0.000 -0.009
    9  C  0.0179  0.003  0.005  0.008  0.001
   10  H  0.0003  0.000
   11  H  0.0001  0.000
   12  H -0.0019 -0.002
   13  H -0.0016 -0.002
   14  H  0.0489  0.049
   15  H  0.0264  0.026
   16  H  0.0259  0.026
   17  H  0.0264  0.026
   18  H  0.0260  0.026
   19  H -0.0011 -0.001
   20  H -0.0018 -0.002

 **********************
 *                    *
 * JOB ENDED NORMALLY *
 *                    *
 **********************



 TOTAL JOB TIME:             1.65 SECONDS

 == MOPAC DONE ==
