 *******************************************************************************
 **                                                                           **
 **                              MOPAC v23.2                                  **
 **                                                                           **
 *******************************************************************************
 **          Digital Object Identifier (DOI): 10.5281/zenodo.6511958          **
 **    Visit the DOI location for information on how to cite this program.    **
 *******************************************************************************

                              PM7 CALCULATION RESULTS

 *******************************************************************************
 *  CALCULATION DONE: (MAX THREADS = 40)             Fri Sep 19 21:34:09 2025  *
 *  PM7        - The PM7 Hamiltonian to be used
 *
 *
 *
 *                 CHARGE ON SYSTEM = +1
 *
 *
 *
 *  EPS=37.5   - USE ANDREAS KLAMT'S COSMO IMPLICIT SOLVATION MODEL
 *  1SCF       - DO 1 SCF AND THEN STOP 
 *  T=         - A TIME OF 172800.0 SECONDS REQUESTED
 *  DUMP=N     - RESTART FILE WRITTEN EVERY 7200.0 SECONDS REQUESTED
 *  RELSCF     - DEFAULT SCF CRITERION MULTIPLIED BY 0.0001
 *              (DEFAULT SCF CRITERION = 0.00010)
 *  GRADIENTS  - ALL GRADIENTS TO BE PRINTED
 *  DISP       - PRINT DISPERSION AND HYDROGEN BOND ENERGIES
 *******************************************************************************
PM7 1SCF GRADIENTS EPS=37.5 DISP RELSCF=0.0001 CHARGE=1
 Title: ASE calculation

   ATOM   CHEMICAL          X               Y               Z
  NUMBER   SYMBOL      (ANGSTROMS)     (ANGSTROMS)     (ANGSTROMS)

     1       C         -3.81949322  *  -0.19399503  *   1.57176160  *
     2       C         -2.66842072  *  -0.37814057  *   1.24596409  *
     3       C         -1.30655500  *  -0.61859906  *   0.86560622  *
     4       C         -0.71795688  *   0.66569270  *   0.24211212  *
     5       C          0.65318455  *   0.37997587  *  -0.29439363  *
     6       N          0.86211043  *   0.25713135  *  -1.58586479  *
     7       O          1.60507657  *   0.47729910  *   0.58948641  *
     8       C          3.00416112  *   0.18809136  *   0.22076832  *
     9       C          3.71531116  *   0.43960998  *   1.52226771  *
    10       H         -4.80511436  *  -0.03874445  *   1.84941338  *
    11       H         -1.25514014  *  -1.47459658  *   0.15046362  *
    12       H         -0.70787581  *  -0.93300658  *   1.75850242  *
    13       H         -1.40879828  *   1.06332684  *  -0.54184568  *
    14       H         -0.67170833  *   1.47459658  *   1.01803518  *
    15       H          0.76947660  *  -0.38947432  *  -2.33043279  *
    16       H          3.05759646  *  -0.86092961  *  -0.11813747  *
    17       H          3.29282863  *   0.88930959  *  -0.58496296  *
    18       H          3.58736625  *   1.47108954  *   1.88972489  *
    19       H          3.38752842  *  -0.23349936  *   2.33043279  *
    20       H          4.80511436  *   0.28478014  *   1.40920834  *



          CARTESIAN COORDINATES 

    NO.       ATOM           X           Y           Z

     1         C         -3.8195     -0.1940      1.5718
     2         C         -2.6684     -0.3781      1.2460
     3         C         -1.3066     -0.6186      0.8656
     4         C         -0.7180      0.6657      0.2421
     5         C          0.6532      0.3800     -0.2944
     6         N          0.8621      0.2571     -1.5859
     7         O          1.6051      0.4773      0.5895
     8         C          3.0042      0.1881      0.2208
     9         C          3.7153      0.4396      1.5223
    10         H         -4.8051     -0.0387      1.8494
    11         H         -1.2551     -1.4746      0.1505
    12         H         -0.7079     -0.9330      1.7585
    13         H         -1.4088      1.0633     -0.5418
    14         H         -0.6717      1.4746      1.0180
    15         H          0.7695     -0.3895     -2.3304
    16         H          3.0576     -0.8609     -0.1181
    17         H          3.2928      0.8893     -0.5850
    18         H          3.5874      1.4711      1.8897
    19         H          3.3875     -0.2335      2.3304
    20         H          4.8051      0.2848      1.4092

 General Reference for PM7:
 "Optimization of Parameters for Semiempirical Methods VI: More Modifications to the 
 NDDO Approximations and Re-optimization of Parameters", J. J. P. Stewart, J. Mol. Mod., 1:32, 19 (2013)
 https://link.springer.com/article/10.1007/s00894-012-1667-x

           Empirical Formula: C7 H11 N O  =    20 atoms



      MOLECULAR POINT GROUP   :   C1  


          UHF CALCULATION, NO. OF ALPHA ELECTRONS =   25
                           NO. OF BETA  ELECTRONS =   24
  SCF CRITERION =    0.1000E-07

 -------------------------------------------------------------------------------
 PM7 1SCF GRADIENTS EPS=37.5 DISP RELSCF=0.0001 CHARGE=1
 Title: ASE calculation



     1SCF WAS SPECIFIED, SO BFGS WAS NOT USED                 
     SCF FIELD WAS ACHIEVED                                   


                              PM7 CALCULATION
                                                       MOPAC v23.2 Linux
                                                       Fri Sep 19 21:34:10 2025




          FINAL HEAT OF FORMATION =        161.72441 KCAL/MOL =     676.65495 KJ/MOL

          TOTAL ENERGY            =     -34172.23392 KCAL/MOL = ELECTRONIC ENERGY + CORE-CORE REPULSION + SOLVATION ENERGY
          ENERGY OF ATOMS         =      34323.93363 KCAL/MOL
                              SUM =        151.69971 KCAL/MOL
          DISPERSION ENERGY       =         -1.97529 KCAL/MOL
                              SUM =        149.72442 KCAL/MOL = FINAL HEAT OF FORMATION

     *    WARNING - An energy term is incorrect or missing!

     *    FINAL HEAT OF FORMATION     =    161.72441 KCAL/MOL
     *    SUM OF CONTRIBUTIONS TO HoF =    149.72442 KCAL/MOL
     *                     DIFFERENCE =     12.00000 KCAL/MOL

          VAN DER WAALS AREA      =        187.38 SQUARE ANGSTROMS


          TOTAL ENERGY            =      -1481.84831 EV
          ELECTRONIC ENERGY       =      -2010.22399 EV 
          CORE-CORE REPULSION     =        528.37567 EV

          DIELECTRIC ENERGY       =         -2.48013 EV
          COSMO AREA              =        187.38 SQUARE ANGSTROMS
          COSMO VOLUME            =        177.09 CUBIC ANGSTROMS

          GRADIENT NORM           =         23.76782          =       5.31465 PER ATOM
          IONIZATION POTENTIAL    =         11.151409 EV
          ALPHA SOMO LUMO (EV)    =        -11.151 -1.272
          BETA  SOMO LUMO (EV)    =        -11.152 -2.671
          NO. OF ALPHA ELECTRONS  =         25
          NO. OF BETA  ELECTRONS  =         24
          MOLECULAR WEIGHT        =        125.1700         POINT GROUP:  C1  

          MOLECULAR DIMENSIONS (Angstroms)

            Atom       Atom       Distance
            H    20    H    10     9.62574
            H    15    H    19     4.77637
            H    11    H    14     2.91485


          SCF CALCULATIONS        =          2

          WALL-CLOCK TIME         =      1.070 SECONDS
          COMPUTATION TIME        =      0.772 SECONDS

          LARGEST ATOMIC GRADIENTS

          Atom     Label                     Cartesian Gradients           Cartesian Coordinates       |Gradient|
                                           X          Y          Z        X          Y          Z

             5       C                   2.394      3.092     13.385    0.65318    0.37998   -0.29439     13.945
             6       N                   1.690     -6.136    -11.123    0.86211    0.25713   -1.58586     12.815
             7       O                  -4.509     -0.863     -4.130    1.60508    0.47730    0.58949      6.175
             4       C                   1.174      3.585     -4.648   -0.71796    0.66569    0.24211      5.986
             9       C                  -3.897     -1.032     -3.915    3.71531    0.43961    1.52227      5.619
             3       C                   2.252     -4.740     -0.233   -1.30656   -0.61860    0.86561      5.253
            15       H                  -1.034      3.573      2.067    0.76948   -0.38947   -2.33043      4.255
             8       C                   3.426     -0.950     -0.613    3.00416    0.18809    0.22077      3.608
            11       H                  -2.035      1.021      1.085   -1.25514   -1.47460    0.15046      2.522
            13       H                  -1.911     -0.499      1.408   -1.40880    1.06333   -0.54185      2.426



       FINAL  POINT  AND  DERIVATIVES

   PARAMETER     ATOM    TYPE            VALUE        GRADIENT
      1          1  C    CARTESIAN X    -3.819493      1.833130  KCAL/ANGSTROM
      2          1  C    CARTESIAN Y    -0.193995     -0.288744  KCAL/ANGSTROM
      3          1  C    CARTESIAN Z     1.571762     -0.585395  KCAL/ANGSTROM
      4          2  C    CARTESIAN X    -2.668421      0.884940  KCAL/ANGSTROM
      5          2  C    CARTESIAN Y    -0.378141      0.862373  KCAL/ANGSTROM
      6          2  C    CARTESIAN Z     1.245964     -0.550118  KCAL/ANGSTROM
      7          3  C    CARTESIAN X    -1.306555      2.252324  KCAL/ANGSTROM
      8          3  C    CARTESIAN Y    -0.618599     -4.739513  KCAL/ANGSTROM
      9          3  C    CARTESIAN Z     0.865606     -0.233247  KCAL/ANGSTROM
     10          4  C    CARTESIAN X    -0.717957      1.174177  KCAL/ANGSTROM
     11          4  C    CARTESIAN Y     0.665693      3.585044  KCAL/ANGSTROM
     12          4  C    CARTESIAN Z     0.242112     -4.647526  KCAL/ANGSTROM
     13          5  C    CARTESIAN X     0.653185      2.394330  KCAL/ANGSTROM
     14          5  C    CARTESIAN Y     0.379976      3.091941  KCAL/ANGSTROM
     15          5  C    CARTESIAN Z    -0.294394     13.385296  KCAL/ANGSTROM
     16          6  N    CARTESIAN X     0.862110      1.690195  KCAL/ANGSTROM
     17          6  N    CARTESIAN Y     0.257131     -6.136274  KCAL/ANGSTROM
     18          6  N    CARTESIAN Z    -1.585865    -11.122965  KCAL/ANGSTROM
     19          7  O    CARTESIAN X     1.605077     -4.508728  KCAL/ANGSTROM
     20          7  O    CARTESIAN Y     0.477299     -0.863187  KCAL/ANGSTROM
     21          7  O    CARTESIAN Z     0.589486     -4.130241  KCAL/ANGSTROM
     22          8  C    CARTESIAN X     3.004161      3.426484  KCAL/ANGSTROM
     23          8  C    CARTESIAN Y     0.188091     -0.949501  KCAL/ANGSTROM
     24          8  C    CARTESIAN Z     0.220768     -0.612515  KCAL/ANGSTROM
     25          9  C    CARTESIAN X     3.715311     -3.896761  KCAL/ANGSTROM
     26          9  C    CARTESIAN Y     0.439610     -1.032160  KCAL/ANGSTROM
     27          9  C    CARTESIAN Z     1.522268     -3.914926  KCAL/ANGSTROM
     28         10  H    CARTESIAN X    -4.805114     -2.262096  KCAL/ANGSTROM
     29         10  H    CARTESIAN Y    -0.038744      0.051398  KCAL/ANGSTROM
     30         10  H    CARTESIAN Z     1.849413      0.674292  KCAL/ANGSTROM
     31         11  H    CARTESIAN X    -1.255140     -2.034593  KCAL/ANGSTROM
     32         11  H    CARTESIAN Y    -1.474597      1.020946  KCAL/ANGSTROM
     33         11  H    CARTESIAN Z     0.150464      1.085279  KCAL/ANGSTROM
     34         12  H    CARTESIAN X    -0.707876     -1.823033  KCAL/ANGSTROM
     35         12  H    CARTESIAN Y    -0.933007      0.671912  KCAL/ANGSTROM
     36         12  H    CARTESIAN Z     1.758502      1.025401  KCAL/ANGSTROM
     37         13  H    CARTESIAN X    -1.408798     -1.911040  KCAL/ANGSTROM
     38         13  H    CARTESIAN Y     1.063327     -0.499208  KCAL/ANGSTROM
     39         13  H    CARTESIAN Z    -0.541846      1.408040  KCAL/ANGSTROM
     40         14  H    CARTESIAN X    -0.671708     -0.726492  KCAL/ANGSTROM
     41         14  H    CARTESIAN Y     1.474597     -0.484033  KCAL/ANGSTROM
     42         14  H    CARTESIAN Z     1.018035      1.341442  KCAL/ANGSTROM
     43         15  H    CARTESIAN X     0.769477     -1.033635  KCAL/ANGSTROM
     44         15  H    CARTESIAN Y    -0.389474      3.573283  KCAL/ANGSTROM
     45         15  H    CARTESIAN Z    -2.330433      2.066936  KCAL/ANGSTROM
     46         16  H    CARTESIAN X     3.057596      0.617126  KCAL/ANGSTROM
     47         16  H    CARTESIAN Y    -0.860930      0.369970  KCAL/ANGSTROM
     48         16  H    CARTESIAN Z    -0.118137      1.187622  KCAL/ANGSTROM
     49         17  H    CARTESIAN X     3.292829      0.715928  KCAL/ANGSTROM
     50         17  H    CARTESIAN Y     0.889310      0.888453  KCAL/ANGSTROM
     51         17  H    CARTESIAN Z    -0.584963      0.365373  KCAL/ANGSTROM
     52         18  H    CARTESIAN X     3.587366      0.984150  KCAL/ANGSTROM
     53         18  H    CARTESIAN Y     1.471090      0.665815  KCAL/ANGSTROM
     54         18  H    CARTESIAN Z     1.889725      1.103735  KCAL/ANGSTROM
     55         19  H    CARTESIAN X     3.387528      0.868570  KCAL/ANGSTROM
     56         19  H    CARTESIAN Y    -0.233499     -0.041785  KCAL/ANGSTROM
     57         19  H    CARTESIAN Z     2.330433      1.369728  KCAL/ANGSTROM
     58         20  H    CARTESIAN X     4.805114      1.355019  KCAL/ANGSTROM
     59         20  H    CARTESIAN Y     0.284780      0.253268  KCAL/ANGSTROM
     60         20  H    CARTESIAN Z     1.409208      0.783786  KCAL/ANGSTROM




   ATOM   CHEMICAL          X               Y               Z
  NUMBER   SYMBOL      (ANGSTROMS)     (ANGSTROMS)     (ANGSTROMS)

     1       C         -3.81949322  *  -0.19399503  *   1.57176160  *
     2       C         -2.66842072  *  -0.37814057  *   1.24596409  *
     3       C         -1.30655500  *  -0.61859906  *   0.86560622  *
     4       C         -0.71795688  *   0.66569270  *   0.24211212  *
     5       C          0.65318455  *   0.37997587  *  -0.29439363  *
     6       N          0.86211043  *   0.25713135  *  -1.58586479  *
     7       O          1.60507657  *   0.47729910  *   0.58948641  *
     8       C          3.00416112  *   0.18809136  *   0.22076832  *
     9       C          3.71531116  *   0.43960998  *   1.52226771  *
    10       H         -4.80511436  *  -0.03874445  *   1.84941338  *
    11       H         -1.25514014  *  -1.47459658  *   0.15046362  *
    12       H         -0.70787581  *  -0.93300658  *   1.75850242  *
    13       H         -1.40879828  *   1.06332684  *  -0.54184568  *
    14       H         -0.67170833  *   1.47459658  *   1.01803518  *
    15       H          0.76947660  *  -0.38947432  *  -2.33043279  *
    16       H          3.05759646  *  -0.86092961  *  -0.11813747  *
    17       H          3.29282863  *   0.88930959  *  -0.58496296  *
    18       H          3.58736625  *   1.47108954  *   1.88972489  *
    19       H          3.38752842  *  -0.23349936  *   2.33043279  *
    20       H          4.80511436  *   0.28478014  *   1.40920834  *

                             CARTESIAN COORDINATES

   1    C       -3.819493223    -0.193995031     1.571761605
   2    C       -2.668420721    -0.378140572     1.245964095
   3    C       -1.306555002    -0.618599056     0.865606217
   4    C       -0.717956875     0.665692699     0.242112117
   5    C        0.653184552     0.379975868    -0.294393627
   6    N        0.862110431     0.257131352    -1.585864794
   7    O        1.605076572     0.477299105     0.589486410
   8    C        3.004161122     0.188091362     0.220768319
   9    C        3.715311156     0.439609983     1.522267713
  10    H       -4.805114361    -0.038744453     1.849413378
  11    H       -1.255140145    -1.474596577     0.150463622
  12    H       -0.707875810    -0.933006582     1.758502421
  13    H       -1.408798284     1.063326842    -0.541845676
  14    H       -0.671708334     1.474596577     1.018035176
  15    H        0.769476600    -0.389474322    -2.330432793
  16    H        3.057596458    -0.860929609    -0.118137471
  17    H        3.292828633     0.889309591    -0.584962962
  18    H        3.587366254     1.471089540     1.889724892
  19    H        3.387528415    -0.233499365     2.330432793
  20    H        4.805114361     0.284780136     1.409208342


           Empirical Formula: C7 H11 N O  =    20 atoms



      MOLECULAR POINT GROUP   :   C1  


          ALPHA EIGENVALUES  
 -37.71913 -32.67558 -29.62056 -27.95172 -26.47609 -24.45562 -22.39036 -21.89880
 -19.89070 -18.81229 -17.77071 -17.46287 -16.39988 -16.00606 -15.22187 -14.95759
 -14.36357 -14.28832 -13.62701 -13.36305 -13.29317 -13.04657 -12.34588 -11.39067
 -11.15141  -1.27166  -0.11518   0.94359   1.12695   1.24289   2.03103   2.81529
   3.01825   3.72805   3.87800   4.39837   4.71022   4.98258   5.02116   5.26896
   5.31290   5.35999   5.44746   5.45610   5.97226   6.48397   6.63134


           BETA EIGENVALUES 
 -35.74059 -32.38722 -29.51204 -27.93632 -26.40076 -24.27839 -22.21283 -21.76661
 -19.65927 -18.73788 -17.63484 -17.20111 -16.34893 -15.88290 -15.15245 -14.69415
 -14.26388 -13.98208 -13.47471 -13.26956 -12.79344 -12.02223 -11.39509 -11.15155
  -2.67136  -1.17130   0.09788   1.10716   1.24205   1.53688   2.26405   2.92462
   3.04488   3.75801   3.88207   4.40896   4.70741   4.98613   5.02302   5.27567
   5.32015   5.44735   5.45299   5.83068   5.97317   6.48506   6.63123


              NET ATOMIC CHARGES AND DIPOLE CONTRIBUTIONS

  ATOM NO.   TYPE          CHARGE      No. of ELECS.   s-Pop       p-Pop       
    1          C          -0.209169        4.2092     1.14099     3.06818
    2          C          -0.077359        4.0774     1.10043     2.97693
    3          C          -0.239467        4.2395     1.04289     3.19658
    4          C          -0.305076        4.3051     1.07374     3.23134
    5          C           0.506446        3.4936     1.12165     2.37190
    6          N          -0.259152        5.2592     1.65006     3.60910
    7          O          -0.255229        6.2552     1.86404     4.39119
    8          C          -0.011150        4.0112     1.11615     2.89500
    9          C          -0.477717        4.4777     1.05423     3.42348
   10          H           0.205748        0.7943     0.79425
   11          H           0.191755        0.8082     0.80824
   12          H           0.195045        0.8050     0.80496
   13          H           0.222182        0.7778     0.77782
   14          H           0.224192        0.7758     0.77581
   15          H           0.409127        0.5909     0.59087
   16          H           0.166216        0.8338     0.83378
   17          H           0.166741        0.8333     0.83326
   18          H           0.177624        0.8224     0.82238
   19          H           0.176765        0.8232     0.82323
   20          H           0.192478        0.8075     0.80752
 DIPOLE           X         Y         Z       TOTAL
 POINT-CHG.     4.109    -0.599    -4.730     6.294
 HYBRID         0.234    -0.359    -0.293     0.519
 SUM            4.343    -0.958    -5.023     6.709


          ATOMIC ORBITAL ELECTRON POPULATIONS

     Atom    s        px        py        pz   
    1  C   1.14099   1.03752   1.00378   1.02689
    2  C   1.10043   0.97272   1.00911   0.99510
    3  C   1.04289   1.00864   1.03023   1.15771
    4  C   1.07374   0.94622   1.10544   1.17968
    5  C   1.12165   0.90467   0.70902   0.75821
    6  N   1.65006   1.03192   1.42892   1.14825
    7  O   1.86404   1.28044   1.71479   1.39596
    8  C   1.11615   0.68665   1.14710   1.06125
    9  C   1.05423   1.15491   1.20698   1.06160
   10  H   0.79425
   11  H   0.80824
   12  H   0.80496
   13  H   0.77782
   14  H   0.77581
   15  H   0.59087
   16  H   0.83378
   17  H   0.83326
   18  H   0.82238
   19  H   0.82323
   20  H   0.80752


                    (SZ)    =    0.500000
                    (S**2)  =    0.779099


          ATOMIC ORBITAL SPIN POPULATIONS

    Atom   Total    s     px     py     pz   
         Atomic
    1  C  0.0002  0.000 -0.000  0.000 -0.000
    2  C  0.0013  0.001  0.001 -0.000  0.000
    3  C -0.0034 -0.001 -0.000 -0.002 -0.000
    4  C  0.0570  0.007  0.027  0.003  0.020
    5  C -0.1476 -0.013 -0.031 -0.078 -0.026
    6  N  1.1081  0.040  0.885  0.121  0.062
    7  O  0.0174 -0.001  0.011 -0.029  0.036
    8  C  0.0016 -0.000  0.002 -0.000  0.000
    9  C  0.0010  0.000  0.001 -0.000  0.000
   10  H  0.0000  0.000
   11  H  0.0005  0.001
   12  H  0.0001  0.000
   13  H -0.0024 -0.002
   14  H -0.0006 -0.001
   15  H -0.0332 -0.033
   16  H -0.0009 -0.001
   17  H -0.0006 -0.001
   18  H  0.0001  0.000
   19  H  0.0002  0.000
   20  H  0.0012  0.001

 **********************
 *                    *
 * JOB ENDED NORMALLY *
 *                    *
 **********************



 TOTAL JOB TIME:             1.51 SECONDS

 == MOPAC DONE ==
