 *******************************************************************************
 **                                                                           **
 **                              MOPAC v23.2                                  **
 **                                                                           **
 *******************************************************************************
 **          Digital Object Identifier (DOI): 10.5281/zenodo.6511958          **
 **    Visit the DOI location for information on how to cite this program.    **
 *******************************************************************************

                              PM7 CALCULATION RESULTS

 *******************************************************************************
 *  CALCULATION DONE: (MAX THREADS = 40)             Fri Sep 19 21:50:10 2025  *
 *  PM7        - The PM7 Hamiltonian to be used
 *  1SCF       - DO 1 SCF AND THEN STOP 
 *  T=         - A TIME OF 172800.0 SECONDS REQUESTED
 *  DUMP=N     - RESTART FILE WRITTEN EVERY 7200.0 SECONDS REQUESTED
 *  RELSCF     - DEFAULT SCF CRITERION MULTIPLIED BY 0.0001
 *              (DEFAULT SCF CRITERION = 0.00010)
 *  GRADIENTS  - ALL GRADIENTS TO BE PRINTED
 *  DISP       - PRINT DISPERSION AND HYDROGEN BOND ENERGIES
 *******************************************************************************
PM7 1SCF GRADIENTS DISP RELSCF=0.0001
 Title: ASE calculation

   ATOM   CHEMICAL          X               Y               Z
  NUMBER   SYMBOL      (ANGSTROMS)     (ANGSTROMS)     (ANGSTROMS)

     1       C          1.87126874  *  -0.53493371  *  -1.64844205  *
     2       O          0.80962919  *   0.33361995  *  -1.27827444  *
     3       C          0.14150563  *  -0.07846880  *  -0.14853828  *
     4       C          0.78967612  *   0.22967807  *   1.21882378  *
     5       C         -0.46757207  *   1.05517657  *   1.63494620  *
     6       C         -1.13993216  *   0.79577887  *   0.26791394  *
     7       C         -1.97888410  *  -0.48665299  *   0.19955431  *
     8       C         -1.89880102  *  -1.11361470  *  -1.17332480  *
     9       C         -0.74569095  *  -1.33121999  *  -0.21930903  *
    10       H          2.59108120  *  -0.64444025  *  -0.83219627  *
    11       H          2.32774932  *  -0.01686799  *  -2.50031212  *
    12       H          1.47522202  *  -1.50936723  *  -1.95170342  *
    13       H          0.99542555  *  -0.63965543  *   1.84504197  *
    14       H          1.70388047  *   0.82578618  *   1.13891011  *
    15       H         -1.00835059  *   0.64905141  *   2.49369742  *
    16       H         -0.25825424  *   2.11124132  *   1.82875265  *
    17       H         -1.46303196  *   1.65019540  *  -0.30862184  *
    18       H         -2.74414859  *  -0.70416657  *   0.91448964  *
    19       H         -2.55156502  *  -1.95129343  *  -1.40388287  *
    20       H         -1.76057757  *  -0.48875346  *  -2.05459139  *
    21       H         -0.41489313  *  -2.29004852  *   0.11294292  *



          CARTESIAN COORDINATES 

    NO.       ATOM           X           Y           Z

     1         C          1.8713     -0.5349     -1.6484
     2         O          0.8096      0.3336     -1.2783
     3         C          0.1415     -0.0785     -0.1485
     4         C          0.7897      0.2297      1.2188
     5         C         -0.4676      1.0552      1.6349
     6         C         -1.1399      0.7958      0.2679
     7         C         -1.9789     -0.4867      0.1996
     8         C         -1.8988     -1.1136     -1.1733
     9         C         -0.7457     -1.3312     -0.2193
    10         H          2.5911     -0.6444     -0.8322
    11         H          2.3277     -0.0169     -2.5003
    12         H          1.4752     -1.5094     -1.9517
    13         H          0.9954     -0.6397      1.8450
    14         H          1.7039      0.8258      1.1389
    15         H         -1.0084      0.6491      2.4937
    16         H         -0.2583      2.1112      1.8288
    17         H         -1.4630      1.6502     -0.3086
    18         H         -2.7441     -0.7042      0.9145
    19         H         -2.5516     -1.9513     -1.4039
    20         H         -1.7606     -0.4888     -2.0546
    21         H         -0.4149     -2.2900      0.1129

 General Reference for PM7:
 "Optimization of Parameters for Semiempirical Methods VI: More Modifications to the 
 NDDO Approximations and Re-optimization of Parameters", J. J. P. Stewart, J. Mol. Mod., 1:32, 19 (2013)
 https://link.springer.com/article/10.1007/s00894-012-1667-x

           Empirical Formula: C8 H12 O  =    21 atoms



      MOLECULAR POINT GROUP   :   C1  


      RHF CALCULATION, NO. OF DOUBLY OCCUPIED LEVELS = 25

  SCF CRITERION =    0.1000E-07

 -------------------------------------------------------------------------------
 PM7 1SCF GRADIENTS DISP RELSCF=0.0001
 Title: ASE calculation



     1SCF WAS SPECIFIED, SO BFGS WAS NOT USED                 
     SCF FIELD WAS ACHIEVED                                   


                              PM7 CALCULATION
                                                       MOPAC v23.2 Linux
                                                       Fri Sep 19 21:50:11 2025




          FINAL HEAT OF FORMATION =         16.23305 KCAL/MOL =      67.91908 KJ/MOL

          TOTAL ENERGY            =     -33149.24936 KCAL/MOL = ELECTRONIC ENERGY + CORE-CORE REPULSION
          ENERGY OF ATOMS         =      33167.45855 KCAL/MOL
                              SUM =         18.20919 KCAL/MOL
          DISPERSION ENERGY       =         -1.97614 KCAL/MOL
                              SUM =         16.23305 KCAL/MOL = FINAL HEAT OF FORMATION



          TOTAL ENERGY            =      -1437.48750 EV
          ELECTRONIC ENERGY       =      -7602.85127 EV 
          CORE-CORE REPULSION     =       6165.36377 EV
          COSMO AREA              =        164.70 SQUARE ANGSTROMS
          COSMO VOLUME            =        167.82 CUBIC ANGSTROMS

          GRADIENT NORM           =          1.19983          =       0.26182 PER ATOM
          IONIZATION POTENTIAL    =          9.872444 EV
          HOMO LUMO ENERGIES (EV) =         -9.872  2.057
          NO. OF FILLED LEVELS    =         25
          MOLECULAR WEIGHT        =        124.1822         POINT GROUP:  C1  

          MOLECULAR DIMENSIONS (Angstroms)

            Atom       Atom       Distance
            H    18    H    11     6.15284
            H    19    H    16     5.64896
            H    17    H    13     3.91357


          SCF CALCULATIONS        =          1

          WALL-CLOCK TIME         =      1.383 SECONDS
          COMPUTATION TIME        =      0.799 SECONDS

          LARGEST ATOMIC GRADIENTS

          Atom     Label                     Cartesian Gradients           Cartesian Coordinates       |Gradient|
                                           X          Y          Z        X          Y          Z

             2       O                  -0.188      0.024     -0.342    0.80963    0.33362   -1.27827      0.391
             7       C                   0.137     -0.313      0.124   -1.97888   -0.48665    0.19955      0.364
            19       H                  -0.173      0.080      0.297   -2.55157   -1.95129   -1.40388      0.353
            13       H                   0.072     -0.125      0.296    0.99543   -0.63966    1.84504      0.329
            15       H                  -0.040     -0.175      0.267   -1.00835    0.64905    2.49370      0.322
            16       H                   0.083      0.307      0.044   -0.25825    2.11124    1.82875      0.321
            21       H                  -0.028     -0.007     -0.300   -0.41489   -2.29005    0.11294      0.301
            14       H                   0.271      0.088     -0.030    1.70388    0.82579    1.13891      0.286
            11       H                   0.222      0.123      0.108    2.32775   -0.01687   -2.50031      0.276
             3       C                  -0.081      0.153     -0.213    0.14151   -0.07847   -0.14854      0.275



       FINAL  POINT  AND  DERIVATIVES

   PARAMETER     ATOM    TYPE            VALUE        GRADIENT
      1          1  C    CARTESIAN X     1.871269     -0.008410  KCAL/ANGSTROM
      2          1  C    CARTESIAN Y    -0.534934      0.040521  KCAL/ANGSTROM
      3          1  C    CARTESIAN Z    -1.648442     -0.004144  KCAL/ANGSTROM
      4          2  O    CARTESIAN X     0.809629     -0.188134  KCAL/ANGSTROM
      5          2  O    CARTESIAN Y     0.333620      0.024165  KCAL/ANGSTROM
      6          2  O    CARTESIAN Z    -1.278274     -0.342193  KCAL/ANGSTROM
      7          3  C    CARTESIAN X     0.141506     -0.081320  KCAL/ANGSTROM
      8          3  C    CARTESIAN Y    -0.078469      0.152971  KCAL/ANGSTROM
      9          3  C    CARTESIAN Z    -0.148538     -0.213309  KCAL/ANGSTROM
     10          4  C    CARTESIAN X     0.789676      0.115000  KCAL/ANGSTROM
     11          4  C    CARTESIAN Y     0.229678     -0.066975  KCAL/ANGSTROM
     12          4  C    CARTESIAN Z     1.218824     -0.107243  KCAL/ANGSTROM
     13          5  C    CARTESIAN X    -0.467572     -0.085992  KCAL/ANGSTROM
     14          5  C    CARTESIAN Y     1.055177      0.089638  KCAL/ANGSTROM
     15          5  C    CARTESIAN Z     1.634946      0.030087  KCAL/ANGSTROM
     16          6  C    CARTESIAN X    -1.139932      0.031216  KCAL/ANGSTROM
     17          6  C    CARTESIAN Y     0.795779      0.019090  KCAL/ANGSTROM
     18          6  C    CARTESIAN Z     0.267914     -0.191169  KCAL/ANGSTROM
     19          7  C    CARTESIAN X    -1.978884      0.137004  KCAL/ANGSTROM
     20          7  C    CARTESIAN Y    -0.486653     -0.313275  KCAL/ANGSTROM
     21          7  C    CARTESIAN Z     0.199554      0.123642  KCAL/ANGSTROM
     22          8  C    CARTESIAN X    -1.898801      0.091663  KCAL/ANGSTROM
     23          8  C    CARTESIAN Y    -1.113615     -0.140554  KCAL/ANGSTROM
     24          8  C    CARTESIAN Z    -1.173325     -0.127337  KCAL/ANGSTROM
     25          9  C    CARTESIAN X    -0.745691     -0.125152  KCAL/ANGSTROM
     26          9  C    CARTESIAN Y    -1.331220     -0.069089  KCAL/ANGSTROM
     27          9  C    CARTESIAN Z    -0.219309      0.110801  KCAL/ANGSTROM
     28         10  H    CARTESIAN X     2.591081     -0.172941  KCAL/ANGSTROM
     29         10  H    CARTESIAN Y    -0.644440     -0.085209  KCAL/ANGSTROM
     30         10  H    CARTESIAN Z    -0.832196      0.171089  KCAL/ANGSTROM
     31         11  H    CARTESIAN X     2.327749      0.221750  KCAL/ANGSTROM
     32         11  H    CARTESIAN Y    -0.016868      0.122667  KCAL/ANGSTROM
     33         11  H    CARTESIAN Z    -2.500312      0.108380  KCAL/ANGSTROM
     34         12  H    CARTESIAN X     1.475222      0.021499  KCAL/ANGSTROM
     35         12  H    CARTESIAN Y    -1.509367     -0.036529  KCAL/ANGSTROM
     36         12  H    CARTESIAN Z    -1.951703      0.140887  KCAL/ANGSTROM
     37         13  H    CARTESIAN X     0.995426      0.072039  KCAL/ANGSTROM
     38         13  H    CARTESIAN Y    -0.639655     -0.124802  KCAL/ANGSTROM
     39         13  H    CARTESIAN Z     1.845042      0.296118  KCAL/ANGSTROM
     40         14  H    CARTESIAN X     1.703880      0.270611  KCAL/ANGSTROM
     41         14  H    CARTESIAN Y     0.825786      0.087635  KCAL/ANGSTROM
     42         14  H    CARTESIAN Z     1.138910     -0.029668  KCAL/ANGSTROM
     43         15  H    CARTESIAN X    -1.008351     -0.039580  KCAL/ANGSTROM
     44         15  H    CARTESIAN Y     0.649051     -0.175298  KCAL/ANGSTROM
     45         15  H    CARTESIAN Z     2.493697      0.266683  KCAL/ANGSTROM
     46         16  H    CARTESIAN X    -0.258254      0.083313  KCAL/ANGSTROM
     47         16  H    CARTESIAN Y     2.111241      0.306900  KCAL/ANGSTROM
     48         16  H    CARTESIAN Z     1.828753      0.043826  KCAL/ANGSTROM
     49         17  H    CARTESIAN X    -1.463032      0.075926  KCAL/ANGSTROM
     50         17  H    CARTESIAN Y     1.650195      0.236906  KCAL/ANGSTROM
     51         17  H    CARTESIAN Z    -0.308622     -0.078327  KCAL/ANGSTROM
     52         18  H    CARTESIAN X    -2.744149     -0.096859  KCAL/ANGSTROM
     53         18  H    CARTESIAN Y    -0.704167     -0.154430  KCAL/ANGSTROM
     54         18  H    CARTESIAN Z     0.914490     -0.148049  KCAL/ANGSTROM
     55         19  H    CARTESIAN X    -2.551565     -0.172842  KCAL/ANGSTROM
     56         19  H    CARTESIAN Y    -1.951293      0.080031  KCAL/ANGSTROM
     57         19  H    CARTESIAN Z    -1.403883      0.297492  KCAL/ANGSTROM
     58         20  H    CARTESIAN X    -1.760578     -0.120536  KCAL/ANGSTROM
     59         20  H    CARTESIAN Y    -0.488753      0.012476  KCAL/ANGSTROM
     60         20  H    CARTESIAN Z    -2.054591     -0.047480  KCAL/ANGSTROM
     61         21  H    CARTESIAN X    -0.414893     -0.028255  KCAL/ANGSTROM
     62         21  H    CARTESIAN Y    -2.290049     -0.006844  KCAL/ANGSTROM
     63         21  H    CARTESIAN Z     0.112943     -0.300088  KCAL/ANGSTROM




   ATOM   CHEMICAL          X               Y               Z
  NUMBER   SYMBOL      (ANGSTROMS)     (ANGSTROMS)     (ANGSTROMS)

     1       C          1.87126874  *  -0.53493371  *  -1.64844205  *
     2       O          0.80962919  *   0.33361995  *  -1.27827444  *
     3       C          0.14150563  *  -0.07846880  *  -0.14853828  *
     4       C          0.78967612  *   0.22967807  *   1.21882378  *
     5       C         -0.46757207  *   1.05517657  *   1.63494620  *
     6       C         -1.13993216  *   0.79577887  *   0.26791394  *
     7       C         -1.97888410  *  -0.48665299  *   0.19955431  *
     8       C         -1.89880102  *  -1.11361470  *  -1.17332480  *
     9       C         -0.74569095  *  -1.33121999  *  -0.21930903  *
    10       H          2.59108120  *  -0.64444025  *  -0.83219627  *
    11       H          2.32774932  *  -0.01686799  *  -2.50031212  *
    12       H          1.47522202  *  -1.50936723  *  -1.95170342  *
    13       H          0.99542555  *  -0.63965543  *   1.84504197  *
    14       H          1.70388047  *   0.82578618  *   1.13891011  *
    15       H         -1.00835059  *   0.64905141  *   2.49369742  *
    16       H         -0.25825424  *   2.11124132  *   1.82875265  *
    17       H         -1.46303196  *   1.65019540  *  -0.30862184  *
    18       H         -2.74414859  *  -0.70416657  *   0.91448964  *
    19       H         -2.55156502  *  -1.95129343  *  -1.40388287  *
    20       H         -1.76057757  *  -0.48875346  *  -2.05459139  *
    21       H         -0.41489313  *  -2.29004852  *   0.11294292  *

                             CARTESIAN COORDINATES

   1    C        1.871268742    -0.534933707    -1.648442047
   2    O        0.809629189     0.333619948    -1.278274435
   3    C        0.141505629    -0.078468800    -0.148538276
   4    C        0.789676121     0.229678069     1.218823782
   5    C       -0.467572073     1.055176567     1.634946196
   6    C       -1.139932164     0.795778865     0.267913941
   7    C       -1.978884096    -0.486652987     0.199554313
   8    C       -1.898801018    -1.113614697    -1.173324804
   9    C       -0.745690955    -1.331219993    -0.219309033
  10    H        2.591081204    -0.644440249    -0.832196269
  11    H        2.327749317    -0.016867989    -2.500312123
  12    H        1.475222020    -1.509367230    -1.951703416
  13    H        0.995425550    -0.639655434     1.845041972
  14    H        1.703880471     0.825786178     1.138910108
  15    H       -1.008350587     0.649051410     2.493697424
  16    H       -0.258254237     2.111241325     1.828752646
  17    H       -1.463031963     1.650195404    -0.308621843
  18    H       -2.744148594    -0.704166566     0.914489645
  19    H       -2.551565017    -1.951293429    -1.403882867
  20    H       -1.760577567    -0.488753464    -2.054591389
  21    H       -0.414893131    -2.290048519     0.112942918


           Empirical Formula: C8 H12 O  =    21 atoms



      MOLECULAR POINT GROUP   :   C1  


                  EIGENVALUES  
 -32.68215 -29.53385 -28.28293 -24.34252 -23.13943 -22.39362 -20.25522 -20.13085
 -17.68936 -17.12773 -16.68084 -16.35869 -15.19773 -14.90035 -14.22063 -13.61684
 -12.96223 -12.82656 -12.47627 -12.37422 -11.43774 -11.19146 -10.86023 -10.29454
  -9.87244   2.05732   2.37726   3.03436   3.47367   3.51897   3.59821   3.77796
   4.53171   4.88495   4.96890   5.32758   5.52854   5.65216   5.74466   5.80491
   6.06879   6.18635   6.22417   6.30974   6.43555   6.46415   6.52138   6.56410


              NET ATOMIC CHARGES AND DIPOLE CONTRIBUTIONS

  ATOM NO.   TYPE          CHARGE      No. of ELECS.   s-Pop       p-Pop       
    1          C          -0.196203        4.1962     1.08284     3.11336
    2          O          -0.365144        6.3651     1.87073     4.49442
    3          C           0.229869        3.7701     1.09451     2.67562
    4          C          -0.329244        4.3292     1.07572     3.25353
    5          C          -0.272404        4.2724     1.06687     3.20553
    6          C          -0.148877        4.1489     1.08864     3.06023
    7          C          -0.168365        4.1684     1.06544     3.10292
    8          C          -0.300098        4.3001     1.05603     3.24407
    9          C          -0.242630        4.2426     1.07206     3.17057
   10          H           0.123880        0.8761     0.87612
   11          H           0.146242        0.8538     0.85376
   12          H           0.129090        0.8709     0.87091
   13          H           0.145756        0.8542     0.85424
   14          H           0.154795        0.8452     0.84520
   15          H           0.145075        0.8549     0.85492
   16          H           0.145693        0.8543     0.85431
   17          H           0.155012        0.8450     0.84499
   18          H           0.161357        0.8386     0.83864
   19          H           0.156335        0.8437     0.84366
   20          H           0.169472        0.8305     0.83053
   21          H           0.160386        0.8396     0.83961
 DIPOLE           X         Y         Z       TOTAL
 POINT-CHG.     0.644    -1.110     0.692     1.458
 HYBRID        -0.012    -0.062     0.006     0.064
 SUM            0.632    -1.172     0.698     1.503


          ATOMIC ORBITAL ELECTRON POPULATIONS

     Atom    s        px        py        pz   
    1  C   1.08284   0.95515   1.04541   1.11280
    2  O   1.87073   1.50684   1.50376   1.48381
    3  C   1.09451   0.90049   0.94065   0.83448
    4  C   1.07572   1.06883   1.12496   1.05974
    5  C   1.06687   1.03444   1.12123   1.04987
    6  C   1.08864   0.99720   1.03531   1.02772
    7  C   1.06544   1.04828   0.99840   1.05624
    8  C   1.05603   1.07743   1.14526   1.02138
    9  C   1.07206   0.96654   1.07014   1.13389
   10  H   0.87612
   11  H   0.85376
   12  H   0.87091
   13  H   0.85424
   14  H   0.84520
   15  H   0.85492
   16  H   0.85431
   17  H   0.84499
   18  H   0.83864
   19  H   0.84366
   20  H   0.83053
   21  H   0.83961

 **********************
 *                    *
 * JOB ENDED NORMALLY *
 *                    *
 **********************



 TOTAL JOB TIME:             1.84 SECONDS

 == MOPAC DONE ==
