 *******************************************************************************
 **                                                                           **
 **                              MOPAC v23.2                                  **
 **                                                                           **
 *******************************************************************************
 **          Digital Object Identifier (DOI): 10.5281/zenodo.6511958          **
 **    Visit the DOI location for information on how to cite this program.    **
 *******************************************************************************

                              PM7 CALCULATION RESULTS

 *******************************************************************************
 *  CALCULATION DONE: (MAX THREADS = 40)             Fri Sep 19 21:36:35 2025  *
 *  PM7        - The PM7 Hamiltonian to be used
 *  1SCF       - DO 1 SCF AND THEN STOP 
 *  T=         - A TIME OF 172800.0 SECONDS REQUESTED
 *  DUMP=N     - RESTART FILE WRITTEN EVERY 7200.0 SECONDS REQUESTED
 *  RELSCF     - DEFAULT SCF CRITERION MULTIPLIED BY 0.0001
 *              (DEFAULT SCF CRITERION = 0.00010)
 *  GRADIENTS  - ALL GRADIENTS TO BE PRINTED
 *  DISP       - PRINT DISPERSION AND HYDROGEN BOND ENERGIES
 *******************************************************************************
PM7 1SCF GRADIENTS DISP RELSCF=0.0001
 Title: ASE calculation

   ATOM   CHEMICAL          X               Y               Z
  NUMBER   SYMBOL      (ANGSTROMS)     (ANGSTROMS)     (ANGSTROMS)

     1       C         -1.60274051  *   1.61028974  *  -1.70137758  *
     2       C         -0.84533758  *   1.12934803  *  -0.78181435  *
     3       C         -0.02549122  *   0.60980577  *   0.21288464  *
     4       C          1.19188470  *   1.26720949  *   0.46058102  *
     5       N          2.19807039  *   1.80620004  *   0.66946249  *
     6       C         -0.39424625  *  -0.52486936  *   0.94318878  *
     7       N         -1.58535266  *  -1.17341634  *   0.70852794  *
     8       N          0.40820724  *  -1.05197162  *   1.93081917  *
     9       H         -2.19751417  *   1.99585597  *  -2.43065026  *
    10       H         -2.20399903  *  -0.82815581  *  -0.00422556  *
    11       H         -1.86722175  *  -1.98284553  *   1.21285082  *
    12       H          0.15412423  *  -1.85744321  *   2.45629260  *
    13       H          1.28800289  *  -0.62068212  *   2.14971198  *



          CARTESIAN COORDINATES 

    NO.       ATOM           X           Y           Z

     1         C         -1.6027      1.6103     -1.7014
     2         C         -0.8453      1.1293     -0.7818
     3         C         -0.0255      0.6098      0.2129
     4         C          1.1919      1.2672      0.4606
     5         N          2.1981      1.8062      0.6695
     6         C         -0.3942     -0.5249      0.9432
     7         N         -1.5854     -1.1734      0.7085
     8         N          0.4082     -1.0520      1.9308
     9         H         -2.1975      1.9959     -2.4307
    10         H         -2.2040     -0.8282     -0.0042
    11         H         -1.8672     -1.9828      1.2129
    12         H          0.1541     -1.8574      2.4563
    13         H          1.2880     -0.6207      2.1497

 General Reference for PM7:
 "Optimization of Parameters for Semiempirical Methods VI: More Modifications to the 
 NDDO Approximations and Re-optimization of Parameters", J. J. P. Stewart, J. Mol. Mod., 1:32, 19 (2013)
 https://link.springer.com/article/10.1007/s00894-012-1667-x

           Empirical Formula: C5 H5 N3  =    13 atoms



      MOLECULAR POINT GROUP   :   Cs  


      RHF CALCULATION, NO. OF DOUBLY OCCUPIED LEVELS = 20

  SCF CRITERION =    0.1000E-07

 -------------------------------------------------------------------------------
 PM7 1SCF GRADIENTS DISP RELSCF=0.0001
 Title: ASE calculation



     1SCF WAS SPECIFIED, SO BFGS WAS NOT USED                 
     SCF FIELD WAS ACHIEVED                                   


                              PM7 CALCULATION
                                                       MOPAC v23.2 Linux
                                                       Fri Sep 19 21:36:36 2025




          FINAL HEAT OF FORMATION =         91.14958 KCAL/MOL =     381.36986 KJ/MOL

          TOTAL ENERGY            =     -28551.22983 KCAL/MOL = ELECTRONIC ENERGY + CORE-CORE REPULSION
          ENERGY OF ATOMS         =      28638.74936 KCAL/MOL
                              SUM =         87.51953 KCAL/MOL
          DISPERSION ENERGY       =         -1.35952 KCAL/MOL
                              SUM =         86.16001 KCAL/MOL = FINAL HEAT OF FORMATION

     *    WARNING - An energy term is incorrect or missing!

     *    FINAL HEAT OF FORMATION     =     91.14958 KCAL/MOL
     *    SUM OF CONTRIBUTIONS TO HoF =     86.16001 KCAL/MOL
     *                     DIFFERENCE =      4.98957 KCAL/MOL



          TOTAL ENERGY            =      -1238.09851 EV
          ELECTRONIC ENERGY       =      -4986.26555 EV 
          CORE-CORE REPULSION     =       3748.16705 EV
          COSMO AREA              =        151.81 SQUARE ANGSTROMS
          COSMO VOLUME            =        140.75 CUBIC ANGSTROMS

          GRADIENT NORM           =          0.85033          =       0.23584 PER ATOM
          IONIZATION POTENTIAL    =          8.573891 EV
          HOMO LUMO ENERGIES (EV) =         -8.574 -0.120
          NO. OF FILLED LEVELS    =         20
          MOLECULAR WEIGHT        =        107.1146         POINT GROUP:  Cs  

          MOLECULAR DIMENSIONS (Angstroms)

            Atom       Atom       Distance
            H    12    H     9     6.65284
            H    11    N     5     5.46266
            N     7    N     8     0.00369


          SCF CALCULATIONS        =          1

          WALL-CLOCK TIME         =      0.773 SECONDS
          COMPUTATION TIME        =      0.644 SECONDS

          LARGEST ATOMIC GRADIENTS

          Atom     Label                     Cartesian Gradients           Cartesian Coordinates       |Gradient|
                                           X          Y          Z        X          Y          Z

             9       H                   0.030     -0.329      0.301   -2.19751    1.99586   -2.43065      0.447
             1       C                   0.309      0.082      0.125   -1.60274    1.61029   -1.70138      0.344
            12       H                   0.225      0.150      0.006    0.15412   -1.85744    2.45629      0.270
             2       C                   0.049      0.211     -0.157   -0.84534    1.12935   -0.78181      0.267
            10       H                   0.045      0.200     -0.142   -2.20400   -0.82816   -0.00423      0.250
             5       N                  -0.202     -0.123     -0.046    2.19807    1.80620    0.66946      0.241
            11       H                  -0.070     -0.129      0.111   -1.86722   -1.98285    1.21285      0.184
             8       N                  -0.041      0.134     -0.090    0.40821   -1.05197    1.93082      0.167
             6       C                  -0.110      0.025     -0.093   -0.39425   -0.52487    0.94319      0.146
             7       N                  -0.110     -0.077     -0.045   -1.58535   -1.17342    0.70853      0.142



       FINAL  POINT  AND  DERIVATIVES

   PARAMETER     ATOM    TYPE            VALUE        GRADIENT
      1          1  C    CARTESIAN X    -1.602741      0.309423  KCAL/ANGSTROM
      2          1  C    CARTESIAN Y     1.610290      0.082405  KCAL/ANGSTROM
      3          1  C    CARTESIAN Z    -1.701378      0.125170  KCAL/ANGSTROM
      4          2  C    CARTESIAN X    -0.845338      0.049065  KCAL/ANGSTROM
      5          2  C    CARTESIAN Y     1.129348      0.211164  KCAL/ANGSTROM
      6          2  C    CARTESIAN Z    -0.781814     -0.156629  KCAL/ANGSTROM
      7          3  C    CARTESIAN X    -0.025491     -0.044425  KCAL/ANGSTROM
      8          3  C    CARTESIAN Y     0.609806     -0.048372  KCAL/ANGSTROM
      9          3  C    CARTESIAN Z     0.212885      0.006025  KCAL/ANGSTROM
     10          4  C    CARTESIAN X     1.191885     -0.099031  KCAL/ANGSTROM
     11          4  C    CARTESIAN Y     1.267209     -0.004277  KCAL/ANGSTROM
     12          4  C    CARTESIAN Z     0.460581     -0.069931  KCAL/ANGSTROM
     13          5  N    CARTESIAN X     2.198070     -0.201843  KCAL/ANGSTROM
     14          5  N    CARTESIAN Y     1.806200     -0.122897  KCAL/ANGSTROM
     15          5  N    CARTESIAN Z     0.669462     -0.045950  KCAL/ANGSTROM
     16          6  C    CARTESIAN X    -0.394246     -0.110084  KCAL/ANGSTROM
     17          6  C    CARTESIAN Y    -0.524869      0.025026  KCAL/ANGSTROM
     18          6  C    CARTESIAN Z     0.943189     -0.092547  KCAL/ANGSTROM
     19          7  N    CARTESIAN X    -1.585353     -0.110180  KCAL/ANGSTROM
     20          7  N    CARTESIAN Y    -1.173416     -0.077087  KCAL/ANGSTROM
     21          7  N    CARTESIAN Z     0.708528     -0.045387  KCAL/ANGSTROM
     22          8  N    CARTESIAN X     0.408207     -0.040604  KCAL/ANGSTROM
     23          8  N    CARTESIAN Y    -1.051972      0.134334  KCAL/ANGSTROM
     24          8  N    CARTESIAN Z     1.930819     -0.090300  KCAL/ANGSTROM
     25          9  H    CARTESIAN X    -2.197514      0.030460  KCAL/ANGSTROM
     26          9  H    CARTESIAN Y     1.995856     -0.329174  KCAL/ANGSTROM
     27          9  H    CARTESIAN Z    -2.430650      0.301243  KCAL/ANGSTROM
     28         10  H    CARTESIAN X    -2.203999      0.044671  KCAL/ANGSTROM
     29         10  H    CARTESIAN Y    -0.828156      0.200343  KCAL/ANGSTROM
     30         10  H    CARTESIAN Z    -0.004226     -0.142260  KCAL/ANGSTROM
     31         11  H    CARTESIAN X    -1.867222     -0.069795  KCAL/ANGSTROM
     32         11  H    CARTESIAN Y    -1.982846     -0.129284  KCAL/ANGSTROM
     33         11  H    CARTESIAN Z     1.212851      0.110626  KCAL/ANGSTROM
     34         12  H    CARTESIAN X     0.154124      0.224514  KCAL/ANGSTROM
     35         12  H    CARTESIAN Y    -1.857443      0.150315  KCAL/ANGSTROM
     36         12  H    CARTESIAN Z     2.456293      0.005746  KCAL/ANGSTROM
     37         13  H    CARTESIAN X     1.288003      0.017824  KCAL/ANGSTROM
     38         13  H    CARTESIAN Y    -0.620682     -0.092500  KCAL/ANGSTROM
     39         13  H    CARTESIAN Z     2.149712      0.094191  KCAL/ANGSTROM




   ATOM   CHEMICAL          X               Y               Z
  NUMBER   SYMBOL      (ANGSTROMS)     (ANGSTROMS)     (ANGSTROMS)

     1       C         -1.60274051  *   1.61028974  *  -1.70137758  *
     2       C         -0.84533758  *   1.12934803  *  -0.78181435  *
     3       C         -0.02549122  *   0.60980577  *   0.21288464  *
     4       C          1.19188470  *   1.26720949  *   0.46058102  *
     5       N          2.19807039  *   1.80620004  *   0.66946249  *
     6       C         -0.39424625  *  -0.52486936  *   0.94318878  *
     7       N         -1.58535266  *  -1.17341634  *   0.70852794  *
     8       N          0.40820724  *  -1.05197162  *   1.93081917  *
     9       H         -2.19751417  *   1.99585597  *  -2.43065026  *
    10       H         -2.20399903  *  -0.82815581  *  -0.00422556  *
    11       H         -1.86722175  *  -1.98284553  *   1.21285082  *
    12       H          0.15412423  *  -1.85744321  *   2.45629260  *
    13       H          1.28800289  *  -0.62068212  *   2.14971198  *

                             CARTESIAN COORDINATES

   1    C       -1.602740508     1.610289736    -1.701377581
   2    C       -0.845337577     1.129348029    -0.781814353
   3    C       -0.025491218     0.609805771     0.212884639
   4    C        1.191884702     1.267209486     0.460581017
   5    N        2.198070388     1.806200040     0.669462488
   6    C       -0.394246253    -0.524869362     0.943188781
   7    N       -1.585352656    -1.173416339     0.708527940
   8    N        0.408207243    -1.051971616     1.930819170
   9    H       -2.197514168     1.995855971    -2.430650263
  10    H       -2.203999025    -0.828155806    -0.004225555
  11    H       -1.867221753    -1.982845534     1.212850820
  12    H        0.154124232    -1.857443213     2.456292600
  13    H        1.288002894    -0.620682122     2.149711984


           Empirical Formula: C5 H5 N3  =    13 atoms



      MOLECULAR POINT GROUP   :   Cs  


                  EIGENVALUES  
 -39.13300 -36.70468 -34.43067 -27.89702 -24.89803 -22.70403 -20.32713 -20.01910
 -18.21628 -16.80188 -16.56643 -15.61670 -15.27926 -13.42864 -13.14374 -12.70729
 -11.45840 -11.06059 -10.54978  -8.57389  -0.12005   1.05476   1.30214   1.53439
   1.54974   2.03740   2.48710   3.79975   4.01638   4.79491   4.81314   5.02819
   5.85694   5.91711   6.16044   6.51774   7.01852


              NET ATOMIC CHARGES AND DIPOLE CONTRIBUTIONS

  ATOM NO.   TYPE          CHARGE      No. of ELECS.   s-Pop       p-Pop       
    1          C          -0.254238        4.2542     1.14341     3.11083
    2          C          -0.007521        4.0075     1.09087     2.91665
    3          C          -0.358845        4.3588     0.97660     3.38224
    4          C           0.187562        3.8124     1.09167     2.72077
    5          N          -0.313814        5.3138     1.83436     3.47945
    6          C           0.540602        3.4594     1.04067     2.41873
    7          N          -0.631831        5.6318     1.51568     4.11616
    8          N          -0.638821        5.6388     1.51611     4.12271
    9          H           0.185356        0.8146     0.81464
   10          H           0.335793        0.6642     0.66421
   11          H           0.309811        0.6902     0.69019
   12          H           0.310399        0.6896     0.68960
   13          H           0.335546        0.6645     0.66445
 DIPOLE           X         Y         Z       TOTAL
 POINT-CHG.    -3.657    -5.492     2.280     6.981
 HYBRID        -0.542    -0.774     0.301     0.992
 SUM           -4.199    -6.266     2.581     7.972


          ATOMIC ORBITAL ELECTRON POPULATIONS

     Atom    s        px        py        pz   
    1  C   1.14341   1.02352   1.02763   1.05968
    2  C   1.09087   0.97380   0.99187   0.95098
    3  C   0.97660   1.06444   1.11530   1.20250
    4  C   1.09167   0.89872   0.91320   0.90885
    5  N   1.83436   1.20632   1.14014   1.13299
    6  C   1.04067   0.75775   0.85581   0.80517
    7  N   1.51568   1.26215   1.37907   1.47494
    8  N   1.51611   1.30838   1.39117   1.42316
    9  H   0.81464
   10  H   0.66421
   11  H   0.69019
   12  H   0.68960
   13  H   0.66445

 **********************
 *                    *
 * JOB ENDED NORMALLY *
 *                    *
 **********************



 TOTAL JOB TIME:             1.30 SECONDS

 == MOPAC DONE ==
