 *******************************************************************************
 **                                                                           **
 **                              MOPAC v23.2                                  **
 **                                                                           **
 *******************************************************************************
 **          Digital Object Identifier (DOI): 10.5281/zenodo.6511958          **
 **    Visit the DOI location for information on how to cite this program.    **
 *******************************************************************************

                              PM7 CALCULATION RESULTS

 *******************************************************************************
 *  CALCULATION DONE: (MAX THREADS = 40)             Fri Sep 19 21:32:02 2025  *
 *  PM7        - The PM7 Hamiltonian to be used
 *  EPS=37.5   - USE ANDREAS KLAMT'S COSMO IMPLICIT SOLVATION MODEL
 *  1SCF       - DO 1 SCF AND THEN STOP 
 *  T=         - A TIME OF 172800.0 SECONDS REQUESTED
 *  DUMP=N     - RESTART FILE WRITTEN EVERY 7200.0 SECONDS REQUESTED
 *  RELSCF     - DEFAULT SCF CRITERION MULTIPLIED BY 0.0001
 *              (DEFAULT SCF CRITERION = 0.00010)
 *  GRADIENTS  - ALL GRADIENTS TO BE PRINTED
 *  DISP       - PRINT DISPERSION AND HYDROGEN BOND ENERGIES
 *******************************************************************************
PM7 1SCF GRADIENTS EPS=37.5 DISP RELSCF=0.0001
 Title: ASE calculation

   ATOM   CHEMICAL          X               Y               Z
  NUMBER   SYMBOL      (ANGSTROMS)     (ANGSTROMS)     (ANGSTROMS)

     1       O         -3.62740834  *   0.14114923  *  -1.14358632  *
     2       C         -2.69051225  *   0.56269706  *  -0.51492279  *
     3       C         -1.31487659  *  -0.02964773  *  -0.66693866  *
     4       C         -0.22540341  *   1.01854664  *  -0.48243823  *
     5       O          1.05095320  *   0.38193069  *  -0.51530570  *
     6       C          1.47037376  *  -0.23937890  *   0.61618246  *
     7       O          0.85820814  *  -0.20482010  *   1.64873200  *
     8       C          2.80377860  *  -0.91163142  *   0.36128426  *
     9       O          2.81513367  *  -1.59936850  *  -0.86088494  *
    10       H         -2.81338797  *   1.38252243  *   0.20437948  *
    11       H         -1.20889745  *  -0.53942304  *  -1.64873200  *
    12       H         -1.19349138  *  -0.84837198  *   0.08077393  *
    13       H         -0.15171062  *   1.71280505  *  -1.34217963  *
    14       H         -0.33462545  *   1.58895187  *   0.45912976  *
    15       H          2.98599921  *  -1.71280505  *   1.11206087  *
    16       H          3.62740834  *  -0.17065764  *   0.39544444  *
    17       H          2.59426386  *  -0.99190939  *  -1.60499333  *



          CARTESIAN COORDINATES 

    NO.       ATOM           X           Y           Z

     1         O         -3.6274      0.1411     -1.1436
     2         C         -2.6905      0.5627     -0.5149
     3         C         -1.3149     -0.0296     -0.6669
     4         C         -0.2254      1.0185     -0.4824
     5         O          1.0510      0.3819     -0.5153
     6         C          1.4704     -0.2394      0.6162
     7         O          0.8582     -0.2048      1.6487
     8         C          2.8038     -0.9116      0.3613
     9         O          2.8151     -1.5994     -0.8609
    10         H         -2.8134      1.3825      0.2044
    11         H         -1.2089     -0.5394     -1.6487
    12         H         -1.1935     -0.8484      0.0808
    13         H         -0.1517      1.7128     -1.3422
    14         H         -0.3346      1.5890      0.4591
    15         H          2.9860     -1.7128      1.1121
    16         H          3.6274     -0.1707      0.3954
    17         H          2.5943     -0.9919     -1.6050

 General Reference for PM7:
 "Optimization of Parameters for Semiempirical Methods VI: More Modifications to the 
 NDDO Approximations and Re-optimization of Parameters", J. J. P. Stewart, J. Mol. Mod., 1:32, 19 (2013)
 https://link.springer.com/article/10.1007/s00894-012-1667-x

           Empirical Formula: C5 H8 O4  =    17 atoms



      MOLECULAR POINT GROUP   :   C1  


      RHF CALCULATION, NO. OF DOUBLY OCCUPIED LEVELS = 26

  SCF CRITERION =    0.1000E-07

 -------------------------------------------------------------------------------
 PM7 1SCF GRADIENTS EPS=37.5 DISP RELSCF=0.0001
 Title: ASE calculation



     1SCF WAS SPECIFIED, SO BFGS WAS NOT USED                 
     SCF FIELD WAS ACHIEVED                                   


                              PM7 CALCULATION
                                                       MOPAC v23.2 Linux
                                                       Fri Sep 19 21:32:03 2025




          FINAL HEAT OF FORMATION =       -180.23549 KCAL/MOL =    -754.10529 KJ/MOL

          TOTAL ENERGY            =     -43905.89074 KCAL/MOL = ELECTRONIC ENERGY + CORE-CORE REPULSION + SOLVATION ENERGY
          ENERGY OF ATOMS         =      43727.36230 KCAL/MOL
                              SUM =       -178.52843 KCAL/MOL
          DISPERSION ENERGY       =         -1.63890 KCAL/MOL
          H-BOND ENERGY           =         -0.06816 KCAL/MOL
                              SUM =       -180.23549 KCAL/MOL = FINAL HEAT OF FORMATION

          VAN DER WAALS AREA      =        163.74 SQUARE ANGSTROMS


          TOTAL ENERGY            =      -1903.93962 EV
          ELECTRONIC ENERGY       =      -2387.92060 EV 
          CORE-CORE REPULSION     =        483.98097 EV

          DIELECTRIC ENERGY       =         -0.74907 EV
          COSMO AREA              =        163.74 SQUARE ANGSTROMS
          COSMO VOLUME            =        155.65 CUBIC ANGSTROMS

          GRADIENT NORM           =         32.59315          =       7.90500 PER ATOM
          IONIZATION POTENTIAL    =         10.741571 EV
          HOMO LUMO ENERGIES (EV) =        -10.742  0.366
          NO. OF FILLED LEVELS    =         26
          MOLECULAR WEIGHT        =        132.1158         POINT GROUP:  C1  

          MOLECULAR DIMENSIONS (Angstroms)

            Atom       Atom       Distance
            H    16    O     1     7.42282
            H    15    H    13     3.71066
            H    10    H    17     3.57176


          SCF CALCULATIONS        =          2

          WALL-CLOCK TIME         =      0.852 SECONDS
          COMPUTATION TIME        =      0.465 SECONDS

          LARGEST ATOMIC GRADIENTS

          Atom     Label                     Cartesian Gradients           Cartesian Coordinates       |Gradient|
                                           X          Y          Z        X          Y          Z

             6       C                  -5.610     -2.836     17.252    1.47037   -0.23938    0.61618     18.361
             2       C                 -15.558     -3.349     -7.411   -2.69051    0.56270   -0.51492     17.556
             1       O                   9.622      4.931      6.611   -3.62741    0.14115   -1.14359     12.673
             7       O                   4.681      0.364     -9.271    0.85821   -0.20482    1.64873     10.392
             5       O                  -1.611      4.304     -6.729    1.05095    0.38193   -0.51531      8.148
             3       C                   4.318     -0.826      1.472   -1.31488   -0.02965   -0.66694      4.637
             8       C                   1.784      3.011     -2.542    2.80378   -0.91163    0.36128      4.326
            17       H                  -0.075     -1.486      3.625    2.59426   -0.99191   -1.60499      3.918
             4       C                   2.387     -0.348     -0.397   -0.22540    1.01855   -0.48244      2.444
            10       H                   1.477     -1.424     -0.276   -2.81339    1.38252    0.20438      2.070



       FINAL  POINT  AND  DERIVATIVES

   PARAMETER     ATOM    TYPE            VALUE        GRADIENT
      1          1  O    CARTESIAN X    -3.627408      9.622457  KCAL/ANGSTROM
      2          1  O    CARTESIAN Y     0.141149      4.931056  KCAL/ANGSTROM
      3          1  O    CARTESIAN Z    -1.143586      6.610523  KCAL/ANGSTROM
      4          2  C    CARTESIAN X    -2.690512    -15.558452  KCAL/ANGSTROM
      5          2  C    CARTESIAN Y     0.562697     -3.348621  KCAL/ANGSTROM
      6          2  C    CARTESIAN Z    -0.514923     -7.410847  KCAL/ANGSTROM
      7          3  C    CARTESIAN X    -1.314877      4.318369  KCAL/ANGSTROM
      8          3  C    CARTESIAN Y    -0.029648     -0.825722  KCAL/ANGSTROM
      9          3  C    CARTESIAN Z    -0.666939      1.472200  KCAL/ANGSTROM
     10          4  C    CARTESIAN X    -0.225403      2.386765  KCAL/ANGSTROM
     11          4  C    CARTESIAN Y     1.018547     -0.347839  KCAL/ANGSTROM
     12          4  C    CARTESIAN Z    -0.482438     -0.397057  KCAL/ANGSTROM
     13          5  O    CARTESIAN X     1.050953     -1.610535  KCAL/ANGSTROM
     14          5  O    CARTESIAN Y     0.381931      4.304396  KCAL/ANGSTROM
     15          5  O    CARTESIAN Z    -0.515306     -6.728762  KCAL/ANGSTROM
     16          6  C    CARTESIAN X     1.470374     -5.610458  KCAL/ANGSTROM
     17          6  C    CARTESIAN Y    -0.239379     -2.835571  KCAL/ANGSTROM
     18          6  C    CARTESIAN Z     0.616182     17.251859  KCAL/ANGSTROM
     19          7  O    CARTESIAN X     0.858208      4.681492  KCAL/ANGSTROM
     20          7  O    CARTESIAN Y    -0.204820      0.363760  KCAL/ANGSTROM
     21          7  O    CARTESIAN Z     1.648732     -9.270617  KCAL/ANGSTROM
     22          8  C    CARTESIAN X     2.803779      1.783975  KCAL/ANGSTROM
     23          8  C    CARTESIAN Y    -0.911631      3.011497  KCAL/ANGSTROM
     24          8  C    CARTESIAN Z     0.361284     -2.541552  KCAL/ANGSTROM
     25          9  O    CARTESIAN X     2.815134      1.008291  KCAL/ANGSTROM
     26          9  O    CARTESIAN Y    -1.599369      0.119224  KCAL/ANGSTROM
     27          9  O    CARTESIAN Z    -0.860885     -1.343611  KCAL/ANGSTROM
     28         10  H    CARTESIAN X    -2.813388      1.477448  KCAL/ANGSTROM
     29         10  H    CARTESIAN Y     1.382522     -1.423598  KCAL/ANGSTROM
     30         10  H    CARTESIAN Z     0.204379     -0.275679  KCAL/ANGSTROM
     31         11  H    CARTESIAN X    -1.208897     -0.680964  KCAL/ANGSTROM
     32         11  H    CARTESIAN Y    -0.539423      0.504530  KCAL/ANGSTROM
     33         11  H    CARTESIAN Z    -1.648732      0.664394  KCAL/ANGSTROM
     34         12  H    CARTESIAN X    -1.193491      0.469351  KCAL/ANGSTROM
     35         12  H    CARTESIAN Y    -0.848372      0.868870  KCAL/ANGSTROM
     36         12  H    CARTESIAN Z     0.080774     -0.647114  KCAL/ANGSTROM
     37         13  H    CARTESIAN X    -0.151711     -0.004564  KCAL/ANGSTROM
     38         13  H    CARTESIAN Y     1.712805     -1.420712  KCAL/ANGSTROM
     39         13  H    CARTESIAN Z    -1.342180      0.562074  KCAL/ANGSTROM
     40         14  H    CARTESIAN X    -0.334625      0.316351  KCAL/ANGSTROM
     41         14  H    CARTESIAN Y     1.588952     -1.114657  KCAL/ANGSTROM
     42         14  H    CARTESIAN Z     0.459130      0.164869  KCAL/ANGSTROM
     43         15  H    CARTESIAN X     2.985999     -1.333724  KCAL/ANGSTROM
     44         15  H    CARTESIAN Y    -1.712805     -0.027055  KCAL/ANGSTROM
     45         15  H    CARTESIAN Z     1.112061     -1.473330  KCAL/ANGSTROM
     46         16  H    CARTESIAN X     3.627408     -1.190465  KCAL/ANGSTROM
     47         16  H    CARTESIAN Y    -0.170658     -1.273115  KCAL/ANGSTROM
     48         16  H    CARTESIAN Z     0.395444     -0.261959  KCAL/ANGSTROM
     49         17  H    CARTESIAN X     2.594264     -0.075340  KCAL/ANGSTROM
     50         17  H    CARTESIAN Y    -0.991909     -1.486443  KCAL/ANGSTROM
     51         17  H    CARTESIAN Z    -1.604993      3.624568  KCAL/ANGSTROM




   ATOM   CHEMICAL          X               Y               Z
  NUMBER   SYMBOL      (ANGSTROMS)     (ANGSTROMS)     (ANGSTROMS)

     1       O         -3.62740834  *   0.14114923  *  -1.14358632  *
     2       C         -2.69051225  *   0.56269706  *  -0.51492279  *
     3       C         -1.31487659  *  -0.02964773  *  -0.66693866  *
     4       C         -0.22540341  *   1.01854664  *  -0.48243823  *
     5       O          1.05095320  *   0.38193069  *  -0.51530570  *
     6       C          1.47037376  *  -0.23937890  *   0.61618246  *
     7       O          0.85820814  *  -0.20482010  *   1.64873200  *
     8       C          2.80377860  *  -0.91163142  *   0.36128426  *
     9       O          2.81513367  *  -1.59936850  *  -0.86088494  *
    10       H         -2.81338797  *   1.38252243  *   0.20437948  *
    11       H         -1.20889745  *  -0.53942304  *  -1.64873200  *
    12       H         -1.19349138  *  -0.84837198  *   0.08077393  *
    13       H         -0.15171062  *   1.71280505  *  -1.34217963  *
    14       H         -0.33462545  *   1.58895187  *   0.45912976  *
    15       H          2.98599921  *  -1.71280505  *   1.11206087  *
    16       H          3.62740834  *  -0.17065764  *   0.39544444  *
    17       H          2.59426386  *  -0.99190939  *  -1.60499333  *

                             CARTESIAN COORDINATES

   1    O       -3.627408339     0.141149230    -1.143586324
   2    C       -2.690512255     0.562697060    -0.514922787
   3    C       -1.314876586    -0.029647727    -0.666938664
   4    C       -0.225403412     1.018546641    -0.482438230
   5    O        1.050953199     0.381930693    -0.515305701
   6    C        1.470373765    -0.239378900     0.616182462
   7    O        0.858208137    -0.204820103     1.648731995
   8    C        2.803778603    -0.911631418     0.361284256
   9    O        2.815133674    -1.599368505    -0.860884936
  10    H       -2.813387971     1.382522426     0.204379477
  11    H       -1.208897446    -0.539423043    -1.648731995
  12    H       -1.193491382    -0.848371984     0.080773926
  13    H       -0.151710623     1.712805053    -1.342179625
  14    H       -0.334625446     1.588951872     0.459129760
  15    H        2.985999211    -1.712805053     1.112060866
  16    H        3.627408339    -0.170657638     0.395444441
  17    H        2.594263862    -0.991909393    -1.604993332


           Empirical Formula: C5 H8 O4  =    17 atoms



      MOLECULAR POINT GROUP   :   C1  


                  EIGENVALUES  
 -31.97083 -31.41350 -30.65124 -30.07599 -27.82084 -25.72912 -23.21056 -20.93148
 -20.56735 -18.37458 -17.59219 -16.95563 -16.80778 -15.82896 -15.50973 -15.24557
 -14.89171 -14.37199 -13.88090 -13.57886 -13.09568 -12.46121 -11.90965 -11.81141
 -11.07583 -10.74157   0.36606   0.45657   1.01172   2.35080   2.76982   3.24956
   3.48691   3.71628   4.57024   4.60122   4.84207   4.96272   5.17601   5.23419
   5.42908   5.60725   5.76201   6.11178


              NET ATOMIC CHARGES AND DIPOLE CONTRIBUTIONS

  ATOM NO.   TYPE          CHARGE      No. of ELECS.   s-Pop       p-Pop       
    1          O          -0.562604        6.5626     1.87053     4.69208
    2          C           0.441975        3.5580     1.14809     2.40994
    3          C          -0.458924        4.4589     1.07757     3.38135
    4          C          -0.000687        4.0007     1.09377     2.90692
    5          O          -0.436208        6.4362     1.86396     4.57225
    6          C           0.615371        3.3846     1.14123     2.24340
    7          O          -0.578540        6.5785     1.87090     4.70764
    8          C          -0.066633        4.0666     1.09668     2.96995
    9          O          -0.564584        6.5646     1.84695     4.71763
   10          H           0.144079        0.8559     0.85592
   11          H           0.198352        0.8016     0.80165
   12          H           0.208405        0.7916     0.79159
   13          H           0.166280        0.8337     0.83372
   14          H           0.156839        0.8432     0.84316
   15          H           0.194873        0.8051     0.80513
   16          H           0.179399        0.8206     0.82060
   17          H           0.362607        0.6374     0.63739
 DIPOLE           X         Y         Z       TOTAL
 POINT-CHG.     3.990     3.246     0.519     5.170
 HYBRID        -0.408    -0.175    -0.498     0.667
 SUM            3.582     3.072     0.021     4.719


          ATOMIC ORBITAL ELECTRON POPULATIONS

     Atom    s        px        py        pz   
    1  O   1.87053   1.52692   1.65107   1.51409
    2  C   1.14809   0.83684   0.81607   0.75702
    3  C   1.07757   1.03826   1.11663   1.22646
    4  C   1.09377   0.77522   0.96982   1.16188
    5  O   1.86396   1.42902   1.67570   1.46753
    6  C   1.14123   0.81792   0.68388   0.74160
    7  O   1.87090   1.64846   1.64796   1.41121
    8  C   1.09668   1.00921   1.07803   0.88271
    9  O   1.84695   1.94384   1.48004   1.29376
   10  H   0.85592
   11  H   0.80165
   12  H   0.79159
   13  H   0.83372
   14  H   0.84316
   15  H   0.80513
   16  H   0.82060
   17  H   0.63739

 **********************
 *                    *
 * JOB ENDED NORMALLY *
 *                    *
 **********************



 TOTAL JOB TIME:             1.34 SECONDS

 == MOPAC DONE ==
