 *******************************************************************************
 **                                                                           **
 **                              MOPAC v23.2                                  **
 **                                                                           **
 *******************************************************************************
 **          Digital Object Identifier (DOI): 10.5281/zenodo.6511958          **
 **    Visit the DOI location for information on how to cite this program.    **
 *******************************************************************************

                              PM7 CALCULATION RESULTS

 *******************************************************************************
 *  CALCULATION DONE: (MAX THREADS = 40)             Fri Sep 19 21:54:57 2025  *
 *  PM7        - The PM7 Hamiltonian to be used
 *  1SCF       - DO 1 SCF AND THEN STOP 
 *  T=         - A TIME OF 172800.0 SECONDS REQUESTED
 *  DUMP=N     - RESTART FILE WRITTEN EVERY 7200.0 SECONDS REQUESTED
 *  RELSCF     - DEFAULT SCF CRITERION MULTIPLIED BY 0.0001
 *              (DEFAULT SCF CRITERION = 0.00010)
 *  GRADIENTS  - ALL GRADIENTS TO BE PRINTED
 *  DISP       - PRINT DISPERSION AND HYDROGEN BOND ENERGIES
 *******************************************************************************
PM7 1SCF GRADIENTS DISP RELSCF=0.0001
 Title: ASE calculation

   ATOM   CHEMICAL          X               Y               Z
  NUMBER   SYMBOL      (ANGSTROMS)     (ANGSTROMS)     (ANGSTROMS)

     1       C         -0.94133519  *  -1.81558728  *   1.33837071  *
     2       C         -0.29651438  *  -0.76086595  *   0.51396062  *
     3       C          0.56722994  *  -1.01371216  *  -0.49750365  *
     4       O          1.14487769  *  -0.02644059  *  -1.23834824  *
     5       C          0.85820430  *   1.30940794  *  -0.97193601  *
     6       N          1.41791853  *   2.18967437  *  -1.68594993  *
     7       C         -0.09294570  *   1.51317493  *   0.14553682  *
     8       O         -0.37622663  *   2.79745005  *   0.41006711  *
     9       N         -0.63676564  *   0.56048556  *   0.84368155  *
    10       H         -0.69132459  *  -1.69050456  *   2.40570374  *
    11       H         -2.04076708  *  -1.75394005  *   1.26903699  *
    12       H         -0.64286454  *  -2.82838355  *   1.04045350  *
    13       H          0.92347462  *  -1.96421072  *  -0.86753740  *
    14       H          2.05521679  *   1.97124290  *  -2.43111079  *
    15       H         -1.02611482  *   2.87225594  *   1.17515471  *



          CARTESIAN COORDINATES 

    NO.       ATOM           X           Y           Z

     1         C         -0.9413     -1.8156      1.3384
     2         C         -0.2965     -0.7609      0.5140
     3         C          0.5672     -1.0137     -0.4975
     4         O          1.1449     -0.0264     -1.2383
     5         C          0.8582      1.3094     -0.9719
     6         N          1.4179      2.1897     -1.6859
     7         C         -0.0929      1.5132      0.1455
     8         O         -0.3762      2.7975      0.4101
     9         N         -0.6368      0.5605      0.8437
    10         H         -0.6913     -1.6905      2.4057
    11         H         -2.0408     -1.7539      1.2690
    12         H         -0.6429     -2.8284      1.0405
    13         H          0.9235     -1.9642     -0.8675
    14         H          2.0552      1.9712     -2.4311
    15         H         -1.0261      2.8723      1.1752

 General Reference for PM7:
 "Optimization of Parameters for Semiempirical Methods VI: More Modifications to the 
 NDDO Approximations and Re-optimization of Parameters", J. J. P. Stewart, J. Mol. Mod., 1:32, 19 (2013)
 https://link.springer.com/article/10.1007/s00894-012-1667-x

           Empirical Formula: C5 H6 N2 O2  =    15 atoms



      MOLECULAR POINT GROUP   :   Cs  


      RHF CALCULATION, NO. OF DOUBLY OCCUPIED LEVELS = 24

  SCF CRITERION =    0.1000E-07

 -------------------------------------------------------------------------------
 PM7 1SCF GRADIENTS DISP RELSCF=0.0001
 Title: ASE calculation



     1SCF WAS SPECIFIED, SO BFGS WAS NOT USED                 
     SCF FIELD WAS ACHIEVED                                   


                              PM7 CALCULATION
                                                       MOPAC v23.2 Linux
                                                       Fri Sep 19 21:54:57 2025




          FINAL HEAT OF FORMATION =        -34.09593 KCAL/MOL =    -142.65738 KJ/MOL

          TOTAL ENERGY            =     -38213.13135 KCAL/MOL = ELECTRONIC ENERGY + CORE-CORE REPULSION
          ENERGY OF ATOMS         =      38180.68370 KCAL/MOL
                              SUM =        -32.44765 KCAL/MOL
          DISPERSION ENERGY       =         -1.64828 KCAL/MOL
                              SUM =        -34.09593 KCAL/MOL = FINAL HEAT OF FORMATION



          TOTAL ENERGY            =      -1657.07821 EV
          ELECTRONIC ENERGY       =      -7155.88955 EV 
          CORE-CORE REPULSION     =       5498.81134 EV
          COSMO AREA              =        152.29 SQUARE ANGSTROMS
          COSMO VOLUME            =        142.80 CUBIC ANGSTROMS

          GRADIENT NORM           =          0.67661          =       0.17470 PER ATOM
          IONIZATION POTENTIAL    =          9.165122 EV
          HOMO LUMO ENERGIES (EV) =         -9.165 -0.729
          NO. OF FILLED LEVELS    =         24
          MOLECULAR WEIGHT        =        126.1146         POINT GROUP:  Cs  

          MOLECULAR DIMENSIONS (Angstroms)

            Atom       Atom       Distance
            H    14    H    10     6.65933
            H    15    H    13     5.58809
            H    11    H    14     1.74985


          SCF CALCULATIONS        =          1

          WALL-CLOCK TIME         =      0.570 SECONDS
          COMPUTATION TIME        =      0.718 SECONDS

          LARGEST ATOMIC GRADIENTS

          Atom     Label                     Cartesian Gradients           Cartesian Coordinates       |Gradient|
                                           X          Y          Z        X          Y          Z

             6       N                  -0.004     -0.294      0.022    1.41792    2.18967   -1.68595      0.294
            13       H                  -0.059      0.282      0.061    0.92347   -1.96421   -0.86754      0.294
            15       H                   0.140      0.172     -0.169   -1.02611    2.87226    1.17515      0.279
             7       C                  -0.162      0.012      0.191   -0.09295    1.51317    0.14554      0.251
             9       N                  -0.019     -0.163      0.031   -0.63677    0.56049    0.84368      0.167
            12       H                   0.052      0.121     -0.071   -0.64286   -2.82838    1.04045      0.150
             3       C                   0.091      0.022     -0.109    0.56723   -1.01371   -0.49750      0.144
            14       H                  -0.078      0.015      0.095    2.05522    1.97124   -2.43111      0.124
             8       O                   0.036      0.094     -0.044   -0.37623    2.79745    0.41007      0.110
            11       H                  -0.002     -0.057     -0.092   -2.04077   -1.75394    1.26904      0.108



       FINAL  POINT  AND  DERIVATIVES

   PARAMETER     ATOM    TYPE            VALUE        GRADIENT
      1          1  C    CARTESIAN X    -0.941335      0.005624  KCAL/ANGSTROM
      2          1  C    CARTESIAN Y    -1.815587      0.013033  KCAL/ANGSTROM
      3          1  C    CARTESIAN Z     1.338371     -0.012604  KCAL/ANGSTROM
      4          2  C    CARTESIAN X    -0.296514     -0.037384  KCAL/ANGSTROM
      5          2  C    CARTESIAN Y    -0.760866     -0.078799  KCAL/ANGSTROM
      6          2  C    CARTESIAN Z     0.513961      0.047081  KCAL/ANGSTROM
      7          3  C    CARTESIAN X     0.567230      0.091219  KCAL/ANGSTROM
      8          3  C    CARTESIAN Y    -1.013712      0.022438  KCAL/ANGSTROM
      9          3  C    CARTESIAN Z    -0.497504     -0.108886  KCAL/ANGSTROM
     10          4  O    CARTESIAN X     1.144878     -0.029191  KCAL/ANGSTROM
     11          4  O    CARTESIAN Y    -0.026441      0.011552  KCAL/ANGSTROM
     12          4  O    CARTESIAN Z    -1.238348      0.035636  KCAL/ANGSTROM
     13          5  C    CARTESIAN X     0.858204     -0.018952  KCAL/ANGSTROM
     14          5  C    CARTESIAN Y     1.309408     -0.099868  KCAL/ANGSTROM
     15          5  C    CARTESIAN Z    -0.971936      0.029811  KCAL/ANGSTROM
     16          6  N    CARTESIAN X     1.417919     -0.003696  KCAL/ANGSTROM
     17          6  N    CARTESIAN Y     2.189674     -0.293600  KCAL/ANGSTROM
     18          6  N    CARTESIAN Z    -1.685950      0.021706  KCAL/ANGSTROM
     19          7  C    CARTESIAN X    -0.092946     -0.161725  KCAL/ANGSTROM
     20          7  C    CARTESIAN Y     1.513175      0.012369  KCAL/ANGSTROM
     21          7  C    CARTESIAN Z     0.145537      0.191184  KCAL/ANGSTROM
     22          8  O    CARTESIAN X    -0.376227      0.035825  KCAL/ANGSTROM
     23          8  O    CARTESIAN Y     2.797450      0.094097  KCAL/ANGSTROM
     24          8  O    CARTESIAN Z     0.410067     -0.043838  KCAL/ANGSTROM
     25          9  N    CARTESIAN X    -0.636766     -0.019363  KCAL/ANGSTROM
     26          9  N    CARTESIAN Y     0.560486     -0.162924  KCAL/ANGSTROM
     27          9  N    CARTESIAN Z     0.843682      0.030615  KCAL/ANGSTROM
     28         10  H    CARTESIAN X    -0.691325      0.084779  KCAL/ANGSTROM
     29         10  H    CARTESIAN Y    -1.690505     -0.050976  KCAL/ANGSTROM
     30         10  H    CARTESIAN Z     2.405704     -0.014692  KCAL/ANGSTROM
     31         11  H    CARTESIAN X    -2.040767     -0.002266  KCAL/ANGSTROM
     32         11  H    CARTESIAN Y    -1.753940     -0.057406  KCAL/ANGSTROM
     33         11  H    CARTESIAN Z     1.269037     -0.091719  KCAL/ANGSTROM
     34         12  H    CARTESIAN X    -0.642865      0.052069  KCAL/ANGSTROM
     35         12  H    CARTESIAN Y    -2.828384      0.121497  KCAL/ANGSTROM
     36         12  H    CARTESIAN Z     1.040454     -0.070863  KCAL/ANGSTROM
     37         13  H    CARTESIAN X     0.923475     -0.059359  KCAL/ANGSTROM
     38         13  H    CARTESIAN Y    -1.964211      0.281508  KCAL/ANGSTROM
     39         13  H    CARTESIAN Z    -0.867537      0.060996  KCAL/ANGSTROM
     40         14  H    CARTESIAN X     2.055217     -0.077795  KCAL/ANGSTROM
     41         14  H    CARTESIAN Y     1.971243      0.014801  KCAL/ANGSTROM
     42         14  H    CARTESIAN Z    -2.431111      0.094910  KCAL/ANGSTROM
     43         15  H    CARTESIAN X    -1.026115      0.140214  KCAL/ANGSTROM
     44         15  H    CARTESIAN Y     2.872256      0.172279  KCAL/ANGSTROM
     45         15  H    CARTESIAN Z     1.175155     -0.169337  KCAL/ANGSTROM




   ATOM   CHEMICAL          X               Y               Z
  NUMBER   SYMBOL      (ANGSTROMS)     (ANGSTROMS)     (ANGSTROMS)

     1       C         -0.94133519  *  -1.81558728  *   1.33837071  *
     2       C         -0.29651438  *  -0.76086595  *   0.51396062  *
     3       C          0.56722994  *  -1.01371216  *  -0.49750365  *
     4       O          1.14487769  *  -0.02644059  *  -1.23834824  *
     5       C          0.85820430  *   1.30940794  *  -0.97193601  *
     6       N          1.41791853  *   2.18967437  *  -1.68594993  *
     7       C         -0.09294570  *   1.51317493  *   0.14553682  *
     8       O         -0.37622663  *   2.79745005  *   0.41006711  *
     9       N         -0.63676564  *   0.56048556  *   0.84368155  *
    10       H         -0.69132459  *  -1.69050456  *   2.40570374  *
    11       H         -2.04076708  *  -1.75394005  *   1.26903699  *
    12       H         -0.64286454  *  -2.82838355  *   1.04045350  *
    13       H          0.92347462  *  -1.96421072  *  -0.86753740  *
    14       H          2.05521679  *   1.97124290  *  -2.43111079  *
    15       H         -1.02611482  *   2.87225594  *   1.17515471  *

                             CARTESIAN COORDINATES

   1    C       -0.941335186    -1.815587283     1.338370711
   2    C       -0.296514380    -0.760865954     0.513960624
   3    C        0.567229943    -1.013712157    -0.497503647
   4    O        1.144877689    -0.026440590    -1.238348238
   5    C        0.858204298     1.309407939    -0.971936013
   6    N        1.417918534     2.189674374    -1.685949934
   7    C       -0.092945704     1.513174925     0.145536820
   8    O       -0.376226629     2.797450051     0.410067109
   9    N       -0.636765635     0.560485564     0.843681549
  10    H       -0.691324594    -1.690504564     2.405703735
  11    H       -2.040767080    -1.753940052     1.269036989
  12    H       -0.642864543    -2.828383550     1.040453502
  13    H        0.923474617    -1.964210720    -0.867537404
  14    H        2.055216794     1.971242896    -2.431110791
  15    H       -1.026114822     2.872255945     1.175154708


           Empirical Formula: C5 H6 N2 O2  =    15 atoms



      MOLECULAR POINT GROUP   :   Cs  


                  EIGENVALUES  
 -36.50792 -35.89319 -31.41464 -30.68013 -27.81545 -24.86362 -24.51489 -22.00415
 -19.67388 -18.73090 -17.96081 -16.57694 -15.93046 -15.38706 -14.78397 -14.63398
 -14.45183 -13.77843 -13.42118 -12.33782 -11.80516 -11.71548 -10.73839  -9.16512
  -0.72911   0.24414   0.76901   1.56458   1.67989   2.23116   2.89997   3.39884
   3.86771   4.33251   4.51440   4.86906   5.13141   5.33560   5.36887   5.51284
   6.46838   6.49906


              NET ATOMIC CHARGES AND DIPOLE CONTRIBUTIONS

  ATOM NO.   TYPE          CHARGE      No. of ELECS.   s-Pop       p-Pop       
    1          C          -0.418651        4.4187     1.04562     3.37303
    2          C           0.081557        3.9184     1.05417     2.86428
    3          C          -0.023359        4.0234     1.11444     2.90892
    4          O          -0.340457        6.3405     1.85883     4.48163
    5          C           0.343535        3.6565     1.09666     2.55981
    6          N          -0.491002        5.4910     1.70594     3.78506
    7          C           0.356142        3.6439     1.07851     2.56535
    8          O          -0.383867        6.3839     1.84925     4.53462
    9          N          -0.451665        5.4517     1.74603     3.70563
   10          H           0.172802        0.8272     0.82720
   11          H           0.172804        0.8272     0.82720
   12          H           0.154134        0.8459     0.84587
   13          H           0.184713        0.8153     0.81529
   14          H           0.298872        0.7011     0.70113
   15          H           0.344442        0.6556     0.65556
 DIPOLE           X         Y         Z       TOTAL
 POINT-CHG.    -0.842    -2.393     1.131     2.777
 HYBRID         0.624    -0.275    -0.726     0.996
 SUM           -0.219    -2.668     0.405     2.707


          ATOMIC ORBITAL ELECTRON POPULATIONS

     Atom    s        px        py        pz   
    1  C   1.04562   1.15999   1.07624   1.13680
    2  C   1.05417   0.99973   0.87702   0.98753
    3  C   1.11444   1.00543   0.92945   0.97404
    4  O   1.85883   1.65125   1.24966   1.58072
    5  C   1.09666   0.90703   0.73929   0.91348
    6  N   1.70594   1.21441   1.37694   1.19371
    7  C   1.07851   0.87586   0.81547   0.87401
    8  O   1.84925   1.66454   1.27867   1.59140
    9  N   1.74603   1.30275   1.08301   1.31988
   10  H   0.82720
   11  H   0.82720
   12  H   0.84587
   13  H   0.81529
   14  H   0.70113
   15  H   0.65556

 **********************
 *                    *
 * JOB ENDED NORMALLY *
 *                    *
 **********************



 TOTAL JOB TIME:             1.04 SECONDS

 == MOPAC DONE ==
