 *******************************************************************************
 **                                                                           **
 **                              MOPAC v23.2                                  **
 **                                                                           **
 *******************************************************************************
 **          Digital Object Identifier (DOI): 10.5281/zenodo.6511958          **
 **    Visit the DOI location for information on how to cite this program.    **
 *******************************************************************************

                              PM7 CALCULATION RESULTS

 *******************************************************************************
 *  CALCULATION DONE: (MAX THREADS = 40)             Fri Sep 19 21:36:50 2025  *
 *  PM7        - The PM7 Hamiltonian to be used
 *
 *
 *
 *                 CHARGE ON SYSTEM = +1
 *
 *
 *
 *  1SCF       - DO 1 SCF AND THEN STOP 
 *  T=         - A TIME OF 172800.0 SECONDS REQUESTED
 *  DUMP=N     - RESTART FILE WRITTEN EVERY 7200.0 SECONDS REQUESTED
 *  RELSCF     - DEFAULT SCF CRITERION MULTIPLIED BY 0.0001
 *              (DEFAULT SCF CRITERION = 0.00010)
 *  GRADIENTS  - ALL GRADIENTS TO BE PRINTED
 *  DISP       - PRINT DISPERSION AND HYDROGEN BOND ENERGIES
 *******************************************************************************
PM7 1SCF GRADIENTS DISP RELSCF=0.0001 CHARGE=1
 Title: ASE calculation

   ATOM   CHEMICAL          X               Y               Z
  NUMBER   SYMBOL      (ANGSTROMS)     (ANGSTROMS)     (ANGSTROMS)

     1       C         -1.92248847  *  -0.21302994  *  -0.89720683  *
     2       C         -0.71153113  *  -0.13051910  *   0.00327607  *
     3       O         -1.17630694  *  -0.41694605  *   1.27925991  *
     4       C         -0.09266728  *   1.33004774  *   0.03480712  *
     5       N          1.28879051  *   1.20844896  *  -0.19951941  *
     6       C          1.69761744  *  -0.21603638  *  -0.49233412  *
     7       O          2.84520725  *  -0.40279359  *  -0.71355658  *
     8       C          0.47104205  *  -1.04067700  *  -0.42058921  *
     9       H         -1.72227149  *   0.07273452  *  -1.93600518  *
    10       H         -2.74880879  *   0.41901499  *  -0.52271012  *
    11       H         -2.34518853  *  -1.23532932  *  -0.90958119  *
    12       H         -0.47971821  *  -0.68402212  *   1.91899155  *
    13       H         -0.34995637  *   1.84902822  *   1.00885254  *
    14       H         -0.60414446  *   2.01276935  *  -0.70897585  *
    15       H          1.94317929  *   1.98522860  *  -0.18181698  *
    16       H          0.58793334  *  -1.90980512  *   0.27493769  *
    17       H          0.26792535  *  -1.55014917  *  -1.39801199  *



          CARTESIAN COORDINATES 

    NO.       ATOM           X           Y           Z

     1         C         -1.9225     -0.2130     -0.8972
     2         C         -0.7115     -0.1305      0.0033
     3         O         -1.1763     -0.4169      1.2793
     4         C         -0.0927      1.3300      0.0348
     5         N          1.2888      1.2084     -0.1995
     6         C          1.6976     -0.2160     -0.4923
     7         O          2.8452     -0.4028     -0.7136
     8         C          0.4710     -1.0407     -0.4206
     9         H         -1.7223      0.0727     -1.9360
    10         H         -2.7488      0.4190     -0.5227
    11         H         -2.3452     -1.2353     -0.9096
    12         H         -0.4797     -0.6840      1.9190
    13         H         -0.3500      1.8490      1.0089
    14         H         -0.6041      2.0128     -0.7090
    15         H          1.9432      1.9852     -0.1818
    16         H          0.5879     -1.9098      0.2749
    17         H          0.2679     -1.5501     -1.3980

 General Reference for PM7:
 "Optimization of Parameters for Semiempirical Methods VI: More Modifications to the 
 NDDO Approximations and Re-optimization of Parameters", J. J. P. Stewart, J. Mol. Mod., 1:32, 19 (2013)
 https://link.springer.com/article/10.1007/s00894-012-1667-x

           Empirical Formula: C5 H9 N O2  =    17 atoms



      MOLECULAR POINT GROUP   :   C1  


          UHF CALCULATION, NO. OF ALPHA ELECTRONS =   23
                           NO. OF BETA  ELECTRONS =   22
  SCF CRITERION =    0.1000E-07

 -------------------------------------------------------------------------------
 PM7 1SCF GRADIENTS DISP RELSCF=0.0001 CHARGE=1
 Title: ASE calculation



     1SCF WAS SPECIFIED, SO BFGS WAS NOT USED                 
     SCF FIELD WAS ACHIEVED                                   


                              PM7 CALCULATION
                                                       MOPAC v23.2 Linux
                                                       Fri Sep 19 21:36:51 2025




          FINAL HEAT OF FORMATION =        104.30644 KCAL/MOL =     436.41815 KJ/MOL

          TOTAL ENERGY            =     -34694.49462 KCAL/MOL = ELECTRONIC ENERGY + CORE-CORE REPULSION
          ENERGY OF ATOMS         =      34800.19765 KCAL/MOL
                              SUM =        105.70303 KCAL/MOL
          DISPERSION ENERGY       =         -1.39699 KCAL/MOL
          H-BOND ENERGY           =         -0.00013 KCAL/MOL
          MM CORR. FOR -CO-NH-    =          0.00053 KCAL/MOL
                              SUM =        104.30644 KCAL/MOL = FINAL HEAT OF FORMATION



          TOTAL ENERGY            =      -1504.49568 EV
          ELECTRONIC ENERGY       =      -6712.97076 EV 
          CORE-CORE REPULSION     =       5208.47508 EV
          COSMO AREA              =        145.96 SQUARE ANGSTROMS
          COSMO VOLUME            =        140.89 CUBIC ANGSTROMS

          GRADIENT NORM           =          0.71577          =       0.17360 PER ATOM
          IONIZATION POTENTIAL    =         15.614379 EV
          ALPHA SOMO LUMO (EV)    =        -15.619 -4.948
          BETA  SOMO LUMO (EV)    =        -15.614 -7.798
          NO. OF ALPHA ELECTRONS  =         23
          NO. OF BETA  ELECTRONS  =         22
          MOLECULAR WEIGHT        =        115.1316         POINT GROUP:  C1  

          MOLECULAR DIMENSIONS (Angstroms)

            Atom       Atom       Distance
            H    10    O     7     5.65728
            H    16    H    15     4.07345
            H     9    H    12     3.81615


          SCF CALCULATIONS        =          1

          WALL-CLOCK TIME         =      1.375 SECONDS
          COMPUTATION TIME        =      0.781 SECONDS

          LARGEST ATOMIC GRADIENTS

          Atom     Label                     Cartesian Gradients           Cartesian Coordinates       |Gradient|
                                           X          Y          Z        X          Y          Z

            17       H                   0.075     -0.262      0.096    0.26793   -1.55015   -1.39801      0.289
             7       O                   0.234      0.018     -0.112    2.84521   -0.40279   -0.71356      0.260
             9       H                  -0.177      0.164     -0.080   -1.72227    0.07273   -1.93601      0.254
            13       H                  -0.124      0.209     -0.006   -0.34996    1.84903    1.00885      0.243
            10       H                   0.167      0.109      0.084   -2.74881    0.41901   -0.52271      0.217
            11       H                  -0.165      0.035     -0.070   -2.34519   -1.23533   -0.90958      0.182
            14       H                  -0.033     -0.139     -0.113   -0.60414    2.01277   -0.70898      0.182
             5       N                   0.015     -0.079      0.155    1.28879    1.20845   -0.19952      0.175
            12       H                   0.039     -0.148      0.048   -0.47972   -0.68402    1.91899      0.161
             6       C                  -0.074      0.102     -0.014    1.69762   -0.21604   -0.49233      0.127



       FINAL  POINT  AND  DERIVATIVES

   PARAMETER     ATOM    TYPE            VALUE        GRADIENT
      1          1  C    CARTESIAN X    -1.922488      0.027830  KCAL/ANGSTROM
      2          1  C    CARTESIAN Y    -0.213030      0.003073  KCAL/ANGSTROM
      3          1  C    CARTESIAN Z    -0.897207      0.034692  KCAL/ANGSTROM
      4          2  C    CARTESIAN X    -0.711531      0.036386  KCAL/ANGSTROM
      5          2  C    CARTESIAN Y    -0.130519     -0.069600  KCAL/ANGSTROM
      6          2  C    CARTESIAN Z     0.003276      0.032536  KCAL/ANGSTROM
      7          3  O    CARTESIAN X    -1.176307     -0.067313  KCAL/ANGSTROM
      8          3  O    CARTESIAN Y    -0.416946      0.058864  KCAL/ANGSTROM
      9          3  O    CARTESIAN Z     1.279260     -0.042178  KCAL/ANGSTROM
     10          4  C    CARTESIAN X    -0.092667     -0.072234  KCAL/ANGSTROM
     11          4  C    CARTESIAN Y     1.330048     -0.078313  KCAL/ANGSTROM
     12          4  C    CARTESIAN Z     0.034807     -0.034761  KCAL/ANGSTROM
     13          5  N    CARTESIAN X     1.288791      0.014938  KCAL/ANGSTROM
     14          5  N    CARTESIAN Y     1.208449     -0.079329  KCAL/ANGSTROM
     15          5  N    CARTESIAN Z    -0.199519      0.155324  KCAL/ANGSTROM
     16          6  C    CARTESIAN X     1.697617     -0.073529  KCAL/ANGSTROM
     17          6  C    CARTESIAN Y    -0.216036      0.102270  KCAL/ANGSTROM
     18          6  C    CARTESIAN Z    -0.492334     -0.014264  KCAL/ANGSTROM
     19          7  O    CARTESIAN X     2.845207      0.233777  KCAL/ANGSTROM
     20          7  O    CARTESIAN Y    -0.402794      0.018478  KCAL/ANGSTROM
     21          7  O    CARTESIAN Z    -0.713557     -0.111507  KCAL/ANGSTROM
     22          8  C    CARTESIAN X     0.471042      0.045232  KCAL/ANGSTROM
     23          8  C    CARTESIAN Y    -1.040677      0.021819  KCAL/ANGSTROM
     24          8  C    CARTESIAN Z    -0.420589     -0.064112  KCAL/ANGSTROM
     25          9  H    CARTESIAN X    -1.722271     -0.176692  KCAL/ANGSTROM
     26          9  H    CARTESIAN Y     0.072735      0.163830  KCAL/ANGSTROM
     27          9  H    CARTESIAN Z    -1.936005     -0.080256  KCAL/ANGSTROM
     28         10  H    CARTESIAN X    -2.748809      0.166969  KCAL/ANGSTROM
     29         10  H    CARTESIAN Y     0.419015      0.109354  KCAL/ANGSTROM
     30         10  H    CARTESIAN Z    -0.522710      0.084335  KCAL/ANGSTROM
     31         11  H    CARTESIAN X    -2.345189     -0.164710  KCAL/ANGSTROM
     32         11  H    CARTESIAN Y    -1.235329      0.035343  KCAL/ANGSTROM
     33         11  H    CARTESIAN Z    -0.909581     -0.070074  KCAL/ANGSTROM
     34         12  H    CARTESIAN X    -0.479718      0.039495  KCAL/ANGSTROM
     35         12  H    CARTESIAN Y    -0.684022     -0.148330  KCAL/ANGSTROM
     36         12  H    CARTESIAN Z     1.918992      0.048374  KCAL/ANGSTROM
     37         13  H    CARTESIAN X    -0.349956     -0.124030  KCAL/ANGSTROM
     38         13  H    CARTESIAN Y     1.849028      0.208701  KCAL/ANGSTROM
     39         13  H    CARTESIAN Z     1.008853     -0.006235  KCAL/ANGSTROM
     40         14  H    CARTESIAN X    -0.604144     -0.032553  KCAL/ANGSTROM
     41         14  H    CARTESIAN Y     2.012769     -0.139239  KCAL/ANGSTROM
     42         14  H    CARTESIAN Z    -0.708976     -0.112763  KCAL/ANGSTROM
     43         15  H    CARTESIAN X     1.943179      0.004999  KCAL/ANGSTROM
     44         15  H    CARTESIAN Y     1.985229      0.073747  KCAL/ANGSTROM
     45         15  H    CARTESIAN Z    -0.181817      0.045683  KCAL/ANGSTROM
     46         16  H    CARTESIAN X     0.587933      0.066750  KCAL/ANGSTROM
     47         16  H    CARTESIAN Y    -1.909805     -0.018942  KCAL/ANGSTROM
     48         16  H    CARTESIAN Z     0.274938      0.038952  KCAL/ANGSTROM
     49         17  H    CARTESIAN X     0.267925      0.074681  KCAL/ANGSTROM
     50         17  H    CARTESIAN Y    -1.550149     -0.261732  KCAL/ANGSTROM
     51         17  H    CARTESIAN Z    -1.398012      0.096249  KCAL/ANGSTROM




   ATOM   CHEMICAL          X               Y               Z
  NUMBER   SYMBOL      (ANGSTROMS)     (ANGSTROMS)     (ANGSTROMS)

     1       C         -1.92248847  *  -0.21302994  *  -0.89720683  *
     2       C         -0.71153113  *  -0.13051910  *   0.00327607  *
     3       O         -1.17630694  *  -0.41694605  *   1.27925991  *
     4       C         -0.09266728  *   1.33004774  *   0.03480712  *
     5       N          1.28879051  *   1.20844896  *  -0.19951941  *
     6       C          1.69761744  *  -0.21603638  *  -0.49233412  *
     7       O          2.84520725  *  -0.40279359  *  -0.71355658  *
     8       C          0.47104205  *  -1.04067700  *  -0.42058921  *
     9       H         -1.72227149  *   0.07273452  *  -1.93600518  *
    10       H         -2.74880879  *   0.41901499  *  -0.52271012  *
    11       H         -2.34518853  *  -1.23532932  *  -0.90958119  *
    12       H         -0.47971821  *  -0.68402212  *   1.91899155  *
    13       H         -0.34995637  *   1.84902822  *   1.00885254  *
    14       H         -0.60414446  *   2.01276935  *  -0.70897585  *
    15       H          1.94317929  *   1.98522860  *  -0.18181698  *
    16       H          0.58793334  *  -1.90980512  *   0.27493769  *
    17       H          0.26792535  *  -1.55014917  *  -1.39801199  *

                             CARTESIAN COORDINATES

   1    C       -1.922488474    -0.213029944    -0.897206827
   2    C       -0.711531125    -0.130519095     0.003276072
   3    O       -1.176306939    -0.416946054     1.279259913
   4    C       -0.092667276     1.330047737     0.034807117
   5    N        1.288790513     1.208448963    -0.199519415
   6    C        1.697617438    -0.216036383    -0.492334121
   7    O        2.845207251    -0.402793589    -0.713556578
   8    C        0.471042049    -1.040677002    -0.420589208
   9    H       -1.722271491     0.072734516    -1.936005182
  10    H       -2.748808793     0.419014990    -0.522710123
  11    H       -2.345188527    -1.235329318    -0.909581189
  12    H       -0.479718207    -0.684022123     1.918991552
  13    H       -0.349956368     1.849028216     1.008852543
  14    H       -0.604144458     2.012769354    -0.708975851
  15    H        1.943179291     1.985228597    -0.181816983
  16    H        0.587933343    -1.909805123     0.274937686
  17    H        0.267925353    -1.550149172    -1.398011988


           Empirical Formula: C5 H9 N O2  =    17 atoms



      MOLECULAR POINT GROUP   :   C1  


          ALPHA EIGENVALUES  
 -43.35439 -37.78201 -35.25747 -32.65746 -30.96359 -29.08420 -26.45661 -25.14798
 -23.99286 -22.75950 -22.28086 -21.00016 -20.67378 -20.40996 -19.70875 -19.28173
 -18.00834 -17.76164 -17.34340 -17.25730 -17.02556 -16.56128 -15.61892  -4.94784
  -4.59598  -2.87422  -2.56645  -2.12797  -2.01075  -1.65149  -0.93989  -0.89763
  -0.60826  -0.25881  -0.02160   0.01026   0.93395   1.39609   1.48752   1.52965
   2.73653


           BETA EIGENVALUES 
 -41.67302 -37.49178 -35.11695 -32.55759 -30.84420 -28.80984 -26.21198 -25.08159
 -23.71384 -22.34270 -21.64864 -20.86859 -20.55987 -19.86227 -19.34517 -19.14012
 -17.88155 -17.57229 -17.17054 -17.12307 -16.46859 -15.61438  -7.79773  -4.50605
  -4.08655  -2.74447  -2.40777  -2.10990  -1.96927  -1.48088  -0.83352  -0.83165
  -0.48843  -0.00956   0.08290   0.12278   0.93486   1.39733   1.48787   1.53030
   2.73676


              NET ATOMIC CHARGES AND DIPOLE CONTRIBUTIONS

  ATOM NO.   TYPE          CHARGE      No. of ELECS.   s-Pop       p-Pop       
    1          C          -0.491449        4.4914     1.05901     3.43244
    2          C           0.372718        3.6273     1.08304     2.54424
    3          O          -0.511166        6.5112     1.84212     4.66905
    4          C          -0.294490        4.2945     1.10059     3.19390
    5          N          -0.147586        5.1476     1.59017     3.55741
    6          C           0.499767        3.5002     1.13682     2.36342
    7          O          -0.202159        6.2022     1.88041     4.32175
    8          C          -0.452083        4.4521     1.08446     3.36762
    9          H           0.172538        0.8275     0.82746
   10          H           0.197156        0.8028     0.80284
   11          H           0.200664        0.7993     0.79934
   12          H           0.334761        0.6652     0.66524
   13          H           0.255543        0.7445     0.74446
   14          H           0.250875        0.7491     0.74912
   15          H           0.339695        0.6603     0.66031
   16          H           0.235750        0.7642     0.76425
   17          H           0.239464        0.7605     0.76054
 DIPOLE           X         Y         Z       TOTAL
 POINT-CHG.     0.226     2.778    -0.870     2.920
 HYBRID         1.117     0.666     0.380     1.355
 SUM            1.343     3.444    -0.491     3.729


          ATOMIC ORBITAL ELECTRON POPULATIONS

     Atom    s        px        py        pz   
    1  C   1.05901   1.07566   1.24345   1.11333
    2  C   1.08304   0.91242   0.81321   0.81860
    3  O   1.84212   1.47720   1.89382   1.29803
    4  C   1.10059   0.83805   1.16471   1.19114
    5  N   1.59017   1.16997   1.25027   1.13717
    6  C   1.13682   0.87538   0.76021   0.72783
    7  O   1.88041   1.23203   1.75896   1.33076
    8  C   1.08446   1.01018   1.10476   1.25268
    9  H   0.82746
   10  H   0.80284
   11  H   0.79934
   12  H   0.66524
   13  H   0.74446
   14  H   0.74912
   15  H   0.66031
   16  H   0.76425
   17  H   0.76054


                    (SZ)    =    0.500000
                    (S**2)  =    0.765294


          ATOMIC ORBITAL SPIN POPULATIONS

    Atom   Total    s     px     py     pz   
         Atomic
    1  C -0.0002  0.000 -0.000  0.000 -0.000
    2  C  0.0005  0.000 -0.000  0.001 -0.001
    3  O  0.0036  0.000  0.002  0.002  0.000
    4  C -0.0175 -0.008 -0.038 -0.007  0.036
    5  N  0.9400  0.042  0.061  0.069  0.769
    6  C -0.0902 -0.003 -0.005 -0.028 -0.054
    7  O  0.0824  0.002  0.005 -0.021  0.096
    8  C -0.0062 -0.001 -0.002 -0.003  0.000
    9  H  0.0001  0.000
   10  H  0.0000  0.000
   11  H  0.0001  0.000
   12  H -0.0002 -0.000
   13  H  0.0577  0.058
   14  H  0.0668  0.067
   15  H -0.0342 -0.034
   16  H -0.0013 -0.001
   17  H -0.0014 -0.001

 **********************
 *                    *
 * JOB ENDED NORMALLY *
 *                    *
 **********************



 TOTAL JOB TIME:             1.78 SECONDS

 == MOPAC DONE ==
