 *******************************************************************************
 **                                                                           **
 **                              MOPAC v23.2                                  **
 **                                                                           **
 *******************************************************************************
 **          Digital Object Identifier (DOI): 10.5281/zenodo.6511958          **
 **    Visit the DOI location for information on how to cite this program.    **
 *******************************************************************************

                              PM7 CALCULATION RESULTS

 *******************************************************************************
 *  CALCULATION DONE: (MAX THREADS = 40)             Fri Sep 19 21:30:54 2025  *
 *  PM7        - The PM7 Hamiltonian to be used
 *  EPS=37.5   - USE ANDREAS KLAMT'S COSMO IMPLICIT SOLVATION MODEL
 *  1SCF       - DO 1 SCF AND THEN STOP 
 *  T=         - A TIME OF 172800.0 SECONDS REQUESTED
 *  DUMP=N     - RESTART FILE WRITTEN EVERY 7200.0 SECONDS REQUESTED
 *  RELSCF     - DEFAULT SCF CRITERION MULTIPLIED BY 0.0001
 *              (DEFAULT SCF CRITERION = 0.00010)
 *  GRADIENTS  - ALL GRADIENTS TO BE PRINTED
 *  DISP       - PRINT DISPERSION AND HYDROGEN BOND ENERGIES
 *******************************************************************************
PM7 1SCF GRADIENTS EPS=37.5 DISP RELSCF=0.0001
 Title: ASE calculation

   ATOM   CHEMICAL          X               Y               Z
  NUMBER   SYMBOL      (ANGSTROMS)     (ANGSTROMS)     (ANGSTROMS)

     1       C         -2.62036219  *   1.42468254  *  -0.19050070  *
     2       C         -1.55567858  *   0.38988078  *  -0.07597574  *
     3       C         -1.96832096  *  -1.11351608  *  -0.01455270  *
     4       C         -0.54790543  *  -1.76832026  *   0.09764167  *
     5       C          0.32606406  *  -0.47980155  *   0.07272008  *
     6       C          1.81332474  *  -0.62663220  *   0.15992768  *
     7       O          2.33737081  *   0.69665784  *   0.11488102  *
     8       C         -0.46841343  *   0.44719992  *   1.06702487  *
     9       C         -0.35301664  *   0.32699176  *  -1.09650659  *
    10       H         -3.21583075  *   1.29172917  *  -1.10342229  *
    11       H         -3.31141674  *   1.38909254  *   0.66207016  *
    12       H         -2.19503616  *   2.43769774  *  -0.22339332  *
    13       H         -2.60231437  *  -1.33406275  *   0.85028848  *
    14       H         -2.50793305  *  -1.43179497  *  -0.91235365  *
    15       H         -0.42406994  *  -2.34003991  *   1.02230741  *
    16       H         -0.33007143  *  -2.43769774  *  -0.74002300  *
    17       H          2.12623520  *  -1.09802768  *   1.11110784  *
    18       H          2.22212217  *  -1.19739008  *  -0.69563854  *
    19       H          3.31141674  *   0.66609949  *   0.16847590  *
    20       H         -0.01456322  *   1.42608865  *   1.22215308  *
    21       H         -0.73927414  *   0.02197873  *   2.02658846  *
    22       H         -0.52299279  *  -0.20306467  *  -2.02658846  *
    23       H          0.12047670  *   1.28542500  *  -1.30974009  *



          CARTESIAN COORDINATES 

    NO.       ATOM           X           Y           Z

     1         C         -2.6204      1.4247     -0.1905
     2         C         -1.5557      0.3899     -0.0760
     3         C         -1.9683     -1.1135     -0.0146
     4         C         -0.5479     -1.7683      0.0976
     5         C          0.3261     -0.4798      0.0727
     6         C          1.8133     -0.6266      0.1599
     7         O          2.3374      0.6967      0.1149
     8         C         -0.4684      0.4472      1.0670
     9         C         -0.3530      0.3270     -1.0965
    10         H         -3.2158      1.2917     -1.1034
    11         H         -3.3114      1.3891      0.6621
    12         H         -2.1950      2.4377     -0.2234
    13         H         -2.6023     -1.3341      0.8503
    14         H         -2.5079     -1.4318     -0.9124
    15         H         -0.4241     -2.3400      1.0223
    16         H         -0.3301     -2.4377     -0.7400
    17         H          2.1262     -1.0980      1.1111
    18         H          2.2221     -1.1974     -0.6956
    19         H          3.3114      0.6661      0.1685
    20         H         -0.0146      1.4261      1.2222
    21         H         -0.7393      0.0220      2.0266
    22         H         -0.5230     -0.2031     -2.0266
    23         H          0.1205      1.2854     -1.3097

 General Reference for PM7:
 "Optimization of Parameters for Semiempirical Methods VI: More Modifications to the 
 NDDO Approximations and Re-optimization of Parameters", J. J. P. Stewart, J. Mol. Mod., 1:32, 19 (2013)
 https://link.springer.com/article/10.1007/s00894-012-1667-x

           Empirical Formula: C8 H14 O  =    23 atoms



      MOLECULAR POINT GROUP   :   Cs  


      RHF CALCULATION, NO. OF DOUBLY OCCUPIED LEVELS = 26

  SCF CRITERION =    0.1000E-07

 -------------------------------------------------------------------------------
 PM7 1SCF GRADIENTS EPS=37.5 DISP RELSCF=0.0001
 Title: ASE calculation



     1SCF WAS SPECIFIED, SO BFGS WAS NOT USED                 
     SCF FIELD WAS ACHIEVED                                   


                              PM7 CALCULATION
                                                       MOPAC v23.2 Linux
                                                       Fri Sep 19 21:30:55 2025




          FINAL HEAT OF FORMATION =        -33.88600 KCAL/MOL =    -141.77901 KJ/MOL

          TOTAL ENERGY            =     -33813.95359 KCAL/MOL = ELECTRONIC ENERGY + CORE-CORE REPULSION + SOLVATION ENERGY
          ENERGY OF ATOMS         =      33782.22825 KCAL/MOL
                              SUM =        -31.72534 KCAL/MOL
          DISPERSION ENERGY       =         -2.16065 KCAL/MOL
                              SUM =        -33.88600 KCAL/MOL = FINAL HEAT OF FORMATION

          VAN DER WAALS AREA      =        171.43 SQUARE ANGSTROMS


          TOTAL ENERGY            =      -1466.31181 EV
          ELECTRONIC ENERGY       =      -2521.53357 EV 
          CORE-CORE REPULSION     =       1055.22176 EV

          DIELECTRIC ENERGY       =         -0.25130 EV
          COSMO AREA              =        171.43 SQUARE ANGSTROMS
          COSMO VOLUME            =        178.34 CUBIC ANGSTROMS

          GRADIENT NORM           =          7.35728          =       1.53410 PER ATOM
          IONIZATION POTENTIAL    =         10.571859 EV
          HOMO LUMO ENERGIES (EV) =        -10.572  2.637
          NO. OF FILLED LEVELS    =         26
          MOLECULAR WEIGHT        =        126.1980         POINT GROUP:  Cs  

          MOLECULAR DIMENSIONS (Angstroms)

            Atom       Atom       Distance
            H    19    H    11     6.68044
            H    12    H    15     4.77067
            H    22    H    21     3.90365


          SCF CALCULATIONS        =          2

          WALL-CLOCK TIME         =      0.617 SECONDS
          COMPUTATION TIME        =      0.715 SECONDS

          LARGEST ATOMIC GRADIENTS

          Atom     Label                     Cartesian Gradients           Cartesian Coordinates       |Gradient|
                                           X          Y          Z        X          Y          Z

            19       H                  -4.322     -0.140     -0.364    3.31142    0.66610    0.16848      4.339
             6       C                   4.032      0.237      0.191    1.81332   -0.62663    0.15993      4.043
             7       O                   1.916     -0.203      0.312    2.33737    0.69666    0.11488      1.952
             1       C                  -1.464      0.237     -0.093   -2.62036    1.42468   -0.19050      1.486
             8       C                  -0.824     -1.171     -0.373   -0.46841    0.44720    1.06702      1.480
             9       C                  -0.847     -1.099      0.396   -0.35302    0.32699   -1.09651      1.443
             4       C                   0.373     -0.872      0.062   -0.54791   -1.76832    0.09764      0.950
            20       H                   0.750      0.566      0.002   -0.01456    1.42609    1.22215      0.939
             3       C                  -0.744     -0.546      0.007   -1.96832   -1.11352   -0.01455      0.923
            18       H                  -0.781      0.238     -0.361    2.22212   -1.19739   -0.69564      0.893



       FINAL  POINT  AND  DERIVATIVES

   PARAMETER     ATOM    TYPE            VALUE        GRADIENT
      1          1  C    CARTESIAN X    -2.620362     -1.464026  KCAL/ANGSTROM
      2          1  C    CARTESIAN Y     1.424683      0.237436  KCAL/ANGSTROM
      3          1  C    CARTESIAN Z    -0.190501     -0.092836  KCAL/ANGSTROM
      4          2  C    CARTESIAN X    -1.555679      0.158988  KCAL/ANGSTROM
      5          2  C    CARTESIAN Y     0.389881      0.220526  KCAL/ANGSTROM
      6          2  C    CARTESIAN Z    -0.075976     -0.006934  KCAL/ANGSTROM
      7          3  C    CARTESIAN X    -1.968321     -0.743826  KCAL/ANGSTROM
      8          3  C    CARTESIAN Y    -1.113516     -0.545656  KCAL/ANGSTROM
      9          3  C    CARTESIAN Z    -0.014553      0.007240  KCAL/ANGSTROM
     10          4  C    CARTESIAN X    -0.547905      0.372784  KCAL/ANGSTROM
     11          4  C    CARTESIAN Y    -1.768320     -0.871644  KCAL/ANGSTROM
     12          4  C    CARTESIAN Z     0.097642      0.061791  KCAL/ANGSTROM
     13          5  C    CARTESIAN X     0.326064      0.764589  KCAL/ANGSTROM
     14          5  C    CARTESIAN Y    -0.479802      0.433573  KCAL/ANGSTROM
     15          5  C    CARTESIAN Z     0.072720      0.020989  KCAL/ANGSTROM
     16          6  C    CARTESIAN X     1.813325      4.031866  KCAL/ANGSTROM
     17          6  C    CARTESIAN Y    -0.626632      0.237013  KCAL/ANGSTROM
     18          6  C    CARTESIAN Z     0.159928      0.190715  KCAL/ANGSTROM
     19          7  O    CARTESIAN X     2.337371      1.916486  KCAL/ANGSTROM
     20          7  O    CARTESIAN Y     0.696658     -0.202724  KCAL/ANGSTROM
     21          7  O    CARTESIAN Z     0.114881      0.311892  KCAL/ANGSTROM
     22          8  C    CARTESIAN X    -0.468413     -0.824381  KCAL/ANGSTROM
     23          8  C    CARTESIAN Y     0.447200     -1.171487  KCAL/ANGSTROM
     24          8  C    CARTESIAN Z     1.067025     -0.373305  KCAL/ANGSTROM
     25          9  C    CARTESIAN X    -0.353017     -0.847244  KCAL/ANGSTROM
     26          9  C    CARTESIAN Y     0.326992     -1.099247  KCAL/ANGSTROM
     27          9  C    CARTESIAN Z    -1.096507      0.396336  KCAL/ANGSTROM
     28         10  H    CARTESIAN X    -3.215831      0.502979  KCAL/ANGSTROM
     29         10  H    CARTESIAN Y     1.291729     -0.059925  KCAL/ANGSTROM
     30         10  H    CARTESIAN Z    -1.103422      0.263720  KCAL/ANGSTROM
     31         11  H    CARTESIAN X    -3.311417      0.500299  KCAL/ANGSTROM
     32         11  H    CARTESIAN Y     1.389093     -0.085636  KCAL/ANGSTROM
     33         11  H    CARTESIAN Z     0.662070     -0.216716  KCAL/ANGSTROM
     34         12  H    CARTESIAN X    -2.195036      0.395958  KCAL/ANGSTROM
     35         12  H    CARTESIAN Y     2.437698     -0.203281  KCAL/ANGSTROM
     36         12  H    CARTESIAN Z    -0.223393      0.023956  KCAL/ANGSTROM
     37         13  H    CARTESIAN X    -2.602314     -0.109353  KCAL/ANGSTROM
     38         13  H    CARTESIAN Y    -1.334063      0.041232  KCAL/ANGSTROM
     39         13  H    CARTESIAN Z     0.850288     -0.090808  KCAL/ANGSTROM
     40         14  H    CARTESIAN X    -2.507933     -0.144459  KCAL/ANGSTROM
     41         14  H    CARTESIAN Y    -1.431795      0.023117  KCAL/ANGSTROM
     42         14  H    CARTESIAN Z    -0.912354      0.050228  KCAL/ANGSTROM
     43         15  H    CARTESIAN X    -0.424070     -0.272008  KCAL/ANGSTROM
     44         15  H    CARTESIAN Y    -2.340040      0.410709  KCAL/ANGSTROM
     45         15  H    CARTESIAN Z     1.022307     -0.701772  KCAL/ANGSTROM
     46         16  H    CARTESIAN X    -0.330071     -0.337473  KCAL/ANGSTROM
     47         16  H    CARTESIAN Y    -2.437698      0.499158  KCAL/ANGSTROM
     48         16  H    CARTESIAN Z    -0.740023      0.634557  KCAL/ANGSTROM
     49         17  H    CARTESIAN X     2.126235     -0.789252  KCAL/ANGSTROM
     50         17  H    CARTESIAN Y    -1.098028      0.273682  KCAL/ANGSTROM
     51         17  H    CARTESIAN Z     1.111108      0.243117  KCAL/ANGSTROM
     52         18  H    CARTESIAN X     2.222122     -0.781036  KCAL/ANGSTROM
     53         18  H    CARTESIAN Y    -1.197390      0.238009  KCAL/ANGSTROM
     54         18  H    CARTESIAN Z    -0.695639     -0.361449  KCAL/ANGSTROM
     55         19  H    CARTESIAN X     3.311417     -4.321826  KCAL/ANGSTROM
     56         19  H    CARTESIAN Y     0.666099     -0.140376  KCAL/ANGSTROM
     57         19  H    CARTESIAN Z     0.168476     -0.364255  KCAL/ANGSTROM
     58         20  H    CARTESIAN X    -0.014563      0.749550  KCAL/ANGSTROM
     59         20  H    CARTESIAN Y     1.426089      0.565714  KCAL/ANGSTROM
     60         20  H    CARTESIAN Z     1.222153      0.002103  KCAL/ANGSTROM
     61         21  H    CARTESIAN X    -0.739274      0.282165  KCAL/ANGSTROM
     62         21  H    CARTESIAN Y     0.021979      0.336428  KCAL/ANGSTROM
     63         21  H    CARTESIAN Z     2.026588     -0.236318  KCAL/ANGSTROM
     64         22  H    CARTESIAN X    -0.522993      0.260779  KCAL/ANGSTROM
     65         22  H    CARTESIAN Y    -0.203065      0.354078  KCAL/ANGSTROM
     66         22  H    CARTESIAN Z    -2.026588      0.232867  KCAL/ANGSTROM
     67         23  H    CARTESIAN X     0.120477      0.698439  KCAL/ANGSTROM
     68         23  H    CARTESIAN Y     1.285425      0.509295  KCAL/ANGSTROM
     69         23  H    CARTESIAN Z    -1.309740      0.004880  KCAL/ANGSTROM




   ATOM   CHEMICAL          X               Y               Z
  NUMBER   SYMBOL      (ANGSTROMS)     (ANGSTROMS)     (ANGSTROMS)

     1       C         -2.62036219  *   1.42468254  *  -0.19050070  *
     2       C         -1.55567858  *   0.38988078  *  -0.07597574  *
     3       C         -1.96832096  *  -1.11351608  *  -0.01455270  *
     4       C         -0.54790543  *  -1.76832026  *   0.09764167  *
     5       C          0.32606406  *  -0.47980155  *   0.07272008  *
     6       C          1.81332474  *  -0.62663220  *   0.15992768  *
     7       O          2.33737081  *   0.69665784  *   0.11488102  *
     8       C         -0.46841343  *   0.44719992  *   1.06702487  *
     9       C         -0.35301664  *   0.32699176  *  -1.09650659  *
    10       H         -3.21583075  *   1.29172917  *  -1.10342229  *
    11       H         -3.31141674  *   1.38909254  *   0.66207016  *
    12       H         -2.19503616  *   2.43769774  *  -0.22339332  *
    13       H         -2.60231437  *  -1.33406275  *   0.85028848  *
    14       H         -2.50793305  *  -1.43179497  *  -0.91235365  *
    15       H         -0.42406994  *  -2.34003991  *   1.02230741  *
    16       H         -0.33007143  *  -2.43769774  *  -0.74002300  *
    17       H          2.12623520  *  -1.09802768  *   1.11110784  *
    18       H          2.22212217  *  -1.19739008  *  -0.69563854  *
    19       H          3.31141674  *   0.66609949  *   0.16847590  *
    20       H         -0.01456322  *   1.42608865  *   1.22215308  *
    21       H         -0.73927414  *   0.02197873  *   2.02658846  *
    22       H         -0.52299279  *  -0.20306467  *  -2.02658846  *
    23       H          0.12047670  *   1.28542500  *  -1.30974009  *

                             CARTESIAN COORDINATES

   1    C       -2.620362189     1.424682542    -0.190500704
   2    C       -1.555678584     0.389880785    -0.075975737
   3    C       -1.968320962    -1.113516077    -0.014552704
   4    C       -0.547905432    -1.768320264     0.097641671
   5    C        0.326064064    -0.479801550     0.072720084
   6    C        1.813324739    -0.626632204     0.159927678
   7    O        2.337370806     0.696657836     0.114881019
   8    C       -0.468413425     0.447199922     1.067024871
   9    C       -0.353016645     0.326991760    -1.096506588
  10    H       -3.215830746     1.291729168    -1.103422295
  11    H       -3.311416743     1.389092543     0.662070155
  12    H       -2.195036165     2.437697738    -0.223393318
  13    H       -2.602314366    -1.334062747     0.850288477
  14    H       -2.507933054    -1.431794966    -0.912353648
  15    H       -0.424069939    -2.340039908     1.022307410
  16    H       -0.330071433    -2.437697738    -0.740023002
  17    H        2.126235196    -1.098027676     1.111107838
  18    H        2.222122174    -1.197390081    -0.695638538
  19    H        3.311416743     0.666099493     0.168475898
  20    H       -0.014563223     1.426088652     1.222153075
  21    H       -0.739274137     0.021978725     2.026588458
  22    H       -0.522992786    -0.203064669    -2.026588458
  23    H        0.120476704     1.285425003    -1.309740091


           Empirical Formula: C8 H14 O  =    23 atoms



      MOLECULAR POINT GROUP   :   Cs  


                  EIGENVALUES  
 -32.18696 -29.22309 -26.33577 -25.09345 -24.06355 -22.80342 -21.16428 -18.30315
 -18.02216 -17.01554 -15.70821 -15.63587 -15.58251 -15.49983 -14.23843 -13.78246
 -13.12242 -12.68285 -12.56729 -12.24033 -11.74596 -11.45205 -11.24747 -10.82007
 -10.75438 -10.57186   2.63726   3.29191   3.49084   3.73838   3.78150   3.89241
   4.38839   4.79964   5.05421   5.32964   5.60151   5.67215   5.85742   5.85794
   5.92931   6.11777   6.15243   6.21422   6.22131   6.55127   6.69167   6.79850
   6.80932   7.03673


              NET ATOMIC CHARGES AND DIPOLE CONTRIBUTIONS

  ATOM NO.   TYPE          CHARGE      No. of ELECS.   s-Pop       p-Pop       
    1          C          -0.471749        4.4717     1.04936     3.42239
    2          C           0.081902        3.9181     1.07073     2.84737
    3          C          -0.293395        4.2934     1.07463     3.21877
    4          C          -0.289622        4.2896     1.07341     3.21621
    5          C           0.020007        3.9800     1.07655     2.90345
    6          C          -0.005593        4.0056     1.08299     2.92260
    7          O          -0.610897        6.6109     1.84720     4.76370
    8          C          -0.321677        4.3217     1.08475     3.23692
    9          C          -0.322044        4.3220     1.08480     3.23725
   10          H           0.157497        0.8425     0.84250
   11          H           0.157589        0.8424     0.84241
   12          H           0.157961        0.8420     0.84204
   13          H           0.139772        0.8602     0.86023
   14          H           0.139310        0.8607     0.86069
   15          H           0.141660        0.8583     0.85834
   16          H           0.141897        0.8581     0.85810
   17          H           0.132188        0.8678     0.86781
   18          H           0.132339        0.8677     0.86766
   19          H           0.345457        0.6545     0.65454
   20          H           0.144613        0.8554     0.85539
   21          H           0.138856        0.8611     0.86114
   22          H           0.138909        0.8611     0.86109
   23          H           0.145021        0.8550     0.85498
 DIPOLE           X         Y         Z       TOTAL
 POINT-CHG.     0.201    -2.133     0.127     2.146
 HYBRID         0.398     0.229     0.009     0.459
 SUM            0.599    -1.904     0.136     2.001


          ATOMIC ORBITAL ELECTRON POPULATIONS

     Atom    s        px        py        pz   
    1  C   1.04936   1.11739   1.12086   1.18414
    2  C   1.07073   0.92650   0.94662   0.97425
    3  C   1.07463   1.03380   1.02504   1.15993
    4  C   1.07341   1.00839   1.04525   1.16256
    5  C   1.07655   0.93674   0.96628   1.00043
    6  C   1.08299   0.97672   0.81343   1.13245
    7  O   1.84720   1.39677   1.38048   1.98644
    8  C   1.08475   1.06212   1.11818   1.05663
    9  C   1.08480   1.05951   1.12833   1.04941
   10  H   0.84250
   11  H   0.84241
   12  H   0.84204
   13  H   0.86023
   14  H   0.86069
   15  H   0.85834
   16  H   0.85810
   17  H   0.86781
   18  H   0.86766
   19  H   0.65454
   20  H   0.85539
   21  H   0.86114
   22  H   0.86109
   23  H   0.85498

 **********************
 *                    *
 * JOB ENDED NORMALLY *
 *                    *
 **********************



 TOTAL JOB TIME:             1.00 SECONDS

 == MOPAC DONE ==
