 *******************************************************************************
 **                                                                           **
 **                              MOPAC v23.2                                  **
 **                                                                           **
 *******************************************************************************
 **          Digital Object Identifier (DOI): 10.5281/zenodo.6511958          **
 **    Visit the DOI location for information on how to cite this program.    **
 *******************************************************************************

                              PM7 CALCULATION RESULTS

 *******************************************************************************
 *  CALCULATION DONE: (MAX THREADS = 40)             Fri Sep 19 21:43:42 2025  *
 *  PM7        - The PM7 Hamiltonian to be used
 *
 *
 *
 *                 CHARGE ON SYSTEM = +1
 *
 *
 *
 *  1SCF       - DO 1 SCF AND THEN STOP 
 *  T=         - A TIME OF 172800.0 SECONDS REQUESTED
 *  DUMP=N     - RESTART FILE WRITTEN EVERY 7200.0 SECONDS REQUESTED
 *  RELSCF     - DEFAULT SCF CRITERION MULTIPLIED BY 0.0001
 *              (DEFAULT SCF CRITERION = 0.00010)
 *  GRADIENTS  - ALL GRADIENTS TO BE PRINTED
 *  DISP       - PRINT DISPERSION AND HYDROGEN BOND ENERGIES
 *******************************************************************************
PM7 1SCF GRADIENTS DISP RELSCF=0.0001 CHARGE=1
 Title: ASE calculation

   ATOM   CHEMICAL          X               Y               Z
  NUMBER   SYMBOL      (ANGSTROMS)     (ANGSTROMS)     (ANGSTROMS)

     1       C          2.37397794  *  -1.40782371  *   0.78218200  *
     2       O          1.36190909  *  -0.43203422  *   0.54612299  *
     3       C          0.83671316  *  -0.44104290  *  -0.74762398  *
     4       C          0.34660737  *   0.96091959  *  -0.97446278  *
     5       C         -0.94297028  *   1.42135060  *  -0.76816826  *
     6       C         -1.99909160  *   0.76978157  *  -0.13010666  *
     7       C         -2.01642376  *  -0.50676143  *   0.43041517  *
     8       C         -1.03773019  *  -1.57455597  *   0.21857862  *
     9       O         -0.19776051  *  -1.38464969  *  -0.88589944  *
    10       H          2.50097630  *  -1.35380100  *   1.87529989  *
    11       H          3.30388874  *  -1.11686048  *   0.27836062  *
    12       H          2.05083681  *  -2.40842730  *   0.47721538  *
    13       H          1.55719998  *  -0.78356738  *  -1.53905176  *
    14       H          1.11673006  *   1.65514065  *  -1.35046249  *
    15       H         -1.15464506  *   2.45848370  *  -1.11332721  *
    16       H         -2.93526390  *   1.36247111  *  -0.02007691  *
    17       H         -2.85773604  *  -0.76814735  *   1.10302141  *
    18       H         -0.44351289  *  -1.76768788  *   1.15698671  *
    19       H         -1.52332557  *  -2.56099706  *  -0.03315514  *



          CARTESIAN COORDINATES 

    NO.       ATOM           X           Y           Z

     1         C          2.3740     -1.4078      0.7822
     2         O          1.3619     -0.4320      0.5461
     3         C          0.8367     -0.4410     -0.7476
     4         C          0.3466      0.9609     -0.9745
     5         C         -0.9430      1.4214     -0.7682
     6         C         -1.9991      0.7698     -0.1301
     7         C         -2.0164     -0.5068      0.4304
     8         C         -1.0377     -1.5746      0.2186
     9         O         -0.1978     -1.3846     -0.8859
    10         H          2.5010     -1.3538      1.8753
    11         H          3.3039     -1.1169      0.2784
    12         H          2.0508     -2.4084      0.4772
    13         H          1.5572     -0.7836     -1.5391
    14         H          1.1167      1.6551     -1.3505
    15         H         -1.1546      2.4585     -1.1133
    16         H         -2.9353      1.3625     -0.0201
    17         H         -2.8577     -0.7681      1.1030
    18         H         -0.4435     -1.7677      1.1570
    19         H         -1.5233     -2.5610     -0.0332

 General Reference for PM7:
 "Optimization of Parameters for Semiempirical Methods VI: More Modifications to the 
 NDDO Approximations and Re-optimization of Parameters", J. J. P. Stewart, J. Mol. Mod., 1:32, 19 (2013)
 https://link.springer.com/article/10.1007/s00894-012-1667-x

           Empirical Formula: C7 H10 O2  =    19 atoms



      MOLECULAR POINT GROUP   :   C1  


          UHF CALCULATION, NO. OF ALPHA ELECTRONS =   25
                           NO. OF BETA  ELECTRONS =   24
  SCF CRITERION =    0.1000E-07

 -------------------------------------------------------------------------------
 PM7 1SCF GRADIENTS DISP RELSCF=0.0001 CHARGE=1
 Title: ASE calculation



     1SCF WAS SPECIFIED, SO BFGS WAS NOT USED                 
     SCF FIELD WAS ACHIEVED                                   


                              PM7 CALCULATION
                                                       MOPAC v23.2 Linux
                                                       Fri Sep 19 21:43:43 2025




          FINAL HEAT OF FORMATION =        145.62747 KCAL/MOL =     609.30534 KJ/MOL

          TOTAL ENERGY            =     -36334.82375 KCAL/MOL = ELECTRONIC ENERGY + CORE-CORE REPULSION
          ENERGY OF ATOMS         =      36482.50324 KCAL/MOL
                              SUM =        147.67949 KCAL/MOL
          DISPERSION ENERGY       =         -2.05202 KCAL/MOL
                              SUM =        145.62747 KCAL/MOL = FINAL HEAT OF FORMATION



          TOTAL ENERGY            =      -1575.62708 EV
          ELECTRONIC ENERGY       =      -7646.92878 EV 
          CORE-CORE REPULSION     =       6071.30169 EV
          COSMO AREA              =        160.65 SQUARE ANGSTROMS
          COSMO VOLUME            =        159.29 CUBIC ANGSTROMS

          GRADIENT NORM           =          1.13557          =       0.26052 PER ATOM
          IONIZATION POTENTIAL    =         14.635873 EV
          ALPHA SOMO LUMO (EV)    =        -14.636 -6.313
          BETA  SOMO LUMO (EV)    =        -14.824 -7.678
          NO. OF ALPHA ELECTRONS  =         25
          NO. OF BETA  ELECTRONS  =         24
          MOLECULAR WEIGHT        =        126.1548         POINT GROUP:  C1  

          MOLECULAR DIMENSIONS (Angstroms)

            Atom       Atom       Distance
            H    16    H    11     6.72036
            H    19    H    14     5.07743
            H    13    H    10     3.19214


          SCF CALCULATIONS        =          1

          WALL-CLOCK TIME         =      1.148 SECONDS
          COMPUTATION TIME        =      0.626 SECONDS

          LARGEST ATOMIC GRADIENTS

          Atom     Label                     Cartesian Gradients           Cartesian Coordinates       |Gradient|
                                           X          Y          Z        X          Y          Z

             2       O                  -0.061      0.331      0.247    1.36191   -0.43203    0.54612      0.418
             8       C                   0.174      0.125      0.277   -1.03773   -1.57456    0.21858      0.350
            14       H                  -0.029      0.342      0.006    1.11673    1.65514   -1.35046      0.343
             4       C                  -0.122     -0.146     -0.283    0.34661    0.96092   -0.97446      0.341
            11       H                   0.260     -0.210      0.019    3.30389   -1.11686    0.27836      0.335
            19       H                   0.230      0.005      0.236   -1.52333   -2.56100   -0.03316      0.330
            10       H                  -0.304     -0.129     -0.010    2.50098   -1.35380    1.87530      0.330
            12       H                  -0.129     -0.142     -0.217    2.05084   -2.40843    0.47722      0.289
            15       H                   0.093     -0.268     -0.027   -1.15465    2.45848   -1.11333      0.285
             9       O                   0.005     -0.211     -0.086   -0.19776   -1.38465   -0.88590      0.228



       FINAL  POINT  AND  DERIVATIVES

   PARAMETER     ATOM    TYPE            VALUE        GRADIENT
      1          1  C    CARTESIAN X     2.373978     -0.052200  KCAL/ANGSTROM
      2          1  C    CARTESIAN Y    -1.407824      0.077077  KCAL/ANGSTROM
      3          1  C    CARTESIAN Z     0.782182      0.001488  KCAL/ANGSTROM
      4          2  O    CARTESIAN X     1.361909     -0.061443  KCAL/ANGSTROM
      5          2  O    CARTESIAN Y    -0.432034      0.331308  KCAL/ANGSTROM
      6          2  O    CARTESIAN Z     0.546123      0.246554  KCAL/ANGSTROM
      7          3  C    CARTESIAN X     0.836713     -0.083944  KCAL/ANGSTROM
      8          3  C    CARTESIAN Y    -0.441043     -0.026446  KCAL/ANGSTROM
      9          3  C    CARTESIAN Z    -0.747624      0.012202  KCAL/ANGSTROM
     10          4  C    CARTESIAN X     0.346607     -0.121553  KCAL/ANGSTROM
     11          4  C    CARTESIAN Y     0.960920     -0.146222  KCAL/ANGSTROM
     12          4  C    CARTESIAN Z    -0.974463     -0.282843  KCAL/ANGSTROM
     13          5  C    CARTESIAN X    -0.942970     -0.011593  KCAL/ANGSTROM
     14          5  C    CARTESIAN Y     1.421351      0.136367  KCAL/ANGSTROM
     15          5  C    CARTESIAN Z    -0.768168      0.136159  KCAL/ANGSTROM
     16          6  C    CARTESIAN X    -1.999092     -0.042948  KCAL/ANGSTROM
     17          6  C    CARTESIAN Y     0.769782      0.068890  KCAL/ANGSTROM
     18          6  C    CARTESIAN Z    -0.130107     -0.109264  KCAL/ANGSTROM
     19          7  C    CARTESIAN X    -2.016424      0.026690  KCAL/ANGSTROM
     20          7  C    CARTESIAN Y    -0.506761     -0.039440  KCAL/ANGSTROM
     21          7  C    CARTESIAN Z     0.430415     -0.192569  KCAL/ANGSTROM
     22          8  C    CARTESIAN X    -1.037730      0.174057  KCAL/ANGSTROM
     23          8  C    CARTESIAN Y    -1.574556      0.125093  KCAL/ANGSTROM
     24          8  C    CARTESIAN Z     0.218579      0.276669  KCAL/ANGSTROM
     25          9  O    CARTESIAN X    -0.197761      0.005416  KCAL/ANGSTROM
     26          9  O    CARTESIAN Y    -1.384650     -0.210559  KCAL/ANGSTROM
     27          9  O    CARTESIAN Z    -0.885899     -0.086430  KCAL/ANGSTROM
     28         10  H    CARTESIAN X     2.500976     -0.303510  KCAL/ANGSTROM
     29         10  H    CARTESIAN Y    -1.353801     -0.129009  KCAL/ANGSTROM
     30         10  H    CARTESIAN Z     1.875300     -0.010419  KCAL/ANGSTROM
     31         11  H    CARTESIAN X     3.303889      0.259569  KCAL/ANGSTROM
     32         11  H    CARTESIAN Y    -1.116860     -0.210269  KCAL/ANGSTROM
     33         11  H    CARTESIAN Z     0.278361      0.019290  KCAL/ANGSTROM
     34         12  H    CARTESIAN X     2.050837     -0.129213  KCAL/ANGSTROM
     35         12  H    CARTESIAN Y    -2.408427     -0.141745  KCAL/ANGSTROM
     36         12  H    CARTESIAN Z     0.477215     -0.216843  KCAL/ANGSTROM
     37         13  H    CARTESIAN X     1.557200     -0.005298  KCAL/ANGSTROM
     38         13  H    CARTESIAN Y    -0.783567      0.185988  KCAL/ANGSTROM
     39         13  H    CARTESIAN Z    -1.539052     -0.040881  KCAL/ANGSTROM
     40         14  H    CARTESIAN X     1.116730     -0.029064  KCAL/ANGSTROM
     41         14  H    CARTESIAN Y     1.655141      0.341996  KCAL/ANGSTROM
     42         14  H    CARTESIAN Z    -1.350462      0.006036  KCAL/ANGSTROM
     43         15  H    CARTESIAN X    -1.154645      0.093104  KCAL/ANGSTROM
     44         15  H    CARTESIAN Y     2.458484     -0.267640  KCAL/ANGSTROM
     45         15  H    CARTESIAN Z    -1.113327     -0.027261  KCAL/ANGSTROM
     46         16  H    CARTESIAN X    -2.935264      0.098955  KCAL/ANGSTROM
     47         16  H    CARTESIAN Y     1.362471      0.015747  KCAL/ANGSTROM
     48         16  H    CARTESIAN Z    -0.020077      0.061903  KCAL/ANGSTROM
     49         17  H    CARTESIAN X    -2.857736     -0.080692  KCAL/ANGSTROM
     50         17  H    CARTESIAN Y    -0.768147      0.075088  KCAL/ANGSTROM
     51         17  H    CARTESIAN Z     1.103021     -0.004407  KCAL/ANGSTROM
     52         18  H    CARTESIAN X    -0.443513      0.033256  KCAL/ANGSTROM
     53         18  H    CARTESIAN Y    -1.767688     -0.190797  KCAL/ANGSTROM
     54         18  H    CARTESIAN Z     1.156987     -0.025740  KCAL/ANGSTROM
     55         19  H    CARTESIAN X    -1.523326      0.230409  KCAL/ANGSTROM
     56         19  H    CARTESIAN Y    -2.560997      0.004574  KCAL/ANGSTROM
     57         19  H    CARTESIAN Z    -0.033155      0.236355  KCAL/ANGSTROM




   ATOM   CHEMICAL          X               Y               Z
  NUMBER   SYMBOL      (ANGSTROMS)     (ANGSTROMS)     (ANGSTROMS)

     1       C          2.37397794  *  -1.40782371  *   0.78218200  *
     2       O          1.36190909  *  -0.43203422  *   0.54612299  *
     3       C          0.83671316  *  -0.44104290  *  -0.74762398  *
     4       C          0.34660737  *   0.96091959  *  -0.97446278  *
     5       C         -0.94297028  *   1.42135060  *  -0.76816826  *
     6       C         -1.99909160  *   0.76978157  *  -0.13010666  *
     7       C         -2.01642376  *  -0.50676143  *   0.43041517  *
     8       C         -1.03773019  *  -1.57455597  *   0.21857862  *
     9       O         -0.19776051  *  -1.38464969  *  -0.88589944  *
    10       H          2.50097630  *  -1.35380100  *   1.87529989  *
    11       H          3.30388874  *  -1.11686048  *   0.27836062  *
    12       H          2.05083681  *  -2.40842730  *   0.47721538  *
    13       H          1.55719998  *  -0.78356738  *  -1.53905176  *
    14       H          1.11673006  *   1.65514065  *  -1.35046249  *
    15       H         -1.15464506  *   2.45848370  *  -1.11332721  *
    16       H         -2.93526390  *   1.36247111  *  -0.02007691  *
    17       H         -2.85773604  *  -0.76814735  *   1.10302141  *
    18       H         -0.44351289  *  -1.76768788  *   1.15698671  *
    19       H         -1.52332557  *  -2.56099706  *  -0.03315514  *

                             CARTESIAN COORDINATES

   1    C        2.373977938    -1.407823713     0.782182003
   2    O        1.361909094    -0.432034220     0.546122989
   3    C        0.836713155    -0.441042899    -0.747623977
   4    C        0.346607368     0.960919593    -0.974462777
   5    C       -0.942970281     1.421350601    -0.768168261
   6    C       -1.999091600     0.769781574    -0.130106655
   7    C       -2.016423757    -0.506761431     0.430415174
   8    C       -1.037730188    -1.574555969     0.218578623
   9    O       -0.197760506    -1.384649694    -0.885899441
  10    H        2.500976296    -1.353801000     1.875299887
  11    H        3.303888738    -1.116860476     0.278360616
  12    H        2.050836809    -2.408427300     0.477215376
  13    H        1.557199976    -0.783567377    -1.539051756
  14    H        1.116730056     1.655140650    -1.350462487
  15    H       -1.154645064     2.458483703    -1.113327210
  16    H       -2.935263904     1.362471110    -0.020076906
  17    H       -2.857736039    -0.768147350     1.103021408
  18    H       -0.443512893    -1.767687878     1.156986714
  19    H       -1.523325567    -2.560997060    -0.033155139


           Empirical Formula: C7 H10 O2  =    19 atoms



      MOLECULAR POINT GROUP   :   C1  


          ALPHA EIGENVALUES  
 -35.71505 -34.08697 -33.38402 -32.37170 -29.55000 -28.74361 -27.82465 -24.97737
 -23.51610 -22.99708 -21.62867 -21.17511 -20.60498 -20.08141 -19.11053 -18.78883
 -18.47927 -18.26496 -17.43666 -17.14198 -16.95571 -16.13605 -15.28658 -14.94650
 -14.63587  -6.31263  -4.03065  -2.66353  -2.13498  -1.47360  -1.19019  -1.01407
  -0.85092  -0.54066  -0.23664   0.11455   0.21013   0.45484   0.54353   0.64946
   0.82487   0.89246   1.11725   1.93576   1.95101   2.56057


           BETA EIGENVALUES 
 -35.63819 -33.98223 -33.32065 -32.21116 -29.50392 -28.60878 -27.77556 -24.87806
 -23.44378 -22.92610 -21.54306 -21.04101 -20.52341 -19.98649 -18.85194 -18.74353
 -18.40112 -18.21760 -17.12480 -16.99690 -16.57695 -16.05790 -15.14000 -14.82433
  -7.67768  -5.11745  -3.46382  -2.64927  -2.01145  -1.33184  -1.08337  -0.94435
  -0.77638  -0.47948  -0.19708   0.16509   0.25183   0.53522   0.57877   0.72850
   0.84831   0.92379   1.14757   1.93569   1.95419   2.56191


              NET ATOMIC CHARGES AND DIPOLE CONTRIBUTIONS

  ATOM NO.   TYPE          CHARGE      No. of ELECS.   s-Pop       p-Pop       
    1          C          -0.186276        4.1863     1.09299     3.09328
    2          O          -0.400669        6.4007     1.87773     4.52294
    3          C           0.247618        3.7524     1.11272     2.63966
    4          C           0.025966        3.9740     1.16066     2.81337
    5          C          -0.090259        4.0903     1.10104     2.98922
    6          C          -0.089461        4.0895     1.10545     2.98401
    7          C           0.086856        3.9131     1.15796     2.75519
    8          C          -0.099034        4.0990     1.08629     3.01274
    9          O          -0.381442        6.3814     1.87563     4.50582
   10          H           0.172275        0.8277     0.82772
   11          H           0.152297        0.8477     0.84770
   12          H           0.144593        0.8554     0.85541
   13          H           0.186872        0.8131     0.81313
   14          H           0.194252        0.8057     0.80575
   15          H           0.205225        0.7948     0.79477
   16          H           0.205975        0.7940     0.79403
   17          H           0.191973        0.8080     0.80803
   18          H           0.212274        0.7877     0.78773
   19          H           0.220964        0.7790     0.77904
 DIPOLE           X         Y         Z       TOTAL
 POINT-CHG.    -2.476     1.253     0.534     2.826
 HYBRID        -0.223     0.233     0.036     0.324
 SUM           -2.699     1.485     0.570     3.133


          ATOMIC ORBITAL ELECTRON POPULATIONS

     Atom    s        px        py        pz   
    1  C   1.09299   0.95519   0.98294   1.15514
    2  O   1.87773   1.59957   1.60523   1.31813
    3  C   1.11272   0.88284   0.85899   0.89783
    4  C   1.16066   1.01782   1.04208   0.75348
    5  C   1.10104   0.97351   1.09763   0.91808
    6  C   1.10545   1.07289   0.99600   0.91511
    7  C   1.15796   0.96605   0.96367   0.82547
    8  C   1.08629   0.96736   1.05003   0.99535
    9  O   1.87563   1.47987   1.63154   1.39440
   10  H   0.82772
   11  H   0.84770
   12  H   0.85541
   13  H   0.81313
   14  H   0.80575
   15  H   0.79477
   16  H   0.79403
   17  H   0.80803
   18  H   0.78773
   19  H   0.77904


                    (SZ)    =    0.500000
                    (S**2)  =    0.811887


          ATOMIC ORBITAL SPIN POPULATIONS

    Atom   Total    s     px     py     pz   
         Atomic
    1  C  0.0005 -0.000 -0.001  0.001  0.001
    2  O  0.0245  0.001  0.002 -0.003  0.024
    3  C -0.0245 -0.003 -0.002 -0.011 -0.008
    4  C  0.5088  0.013  0.038  0.042  0.416
    5  C -0.0579 -0.004 -0.015 -0.009 -0.030
    6  C  0.1162  0.001  0.008  0.017  0.089
    7  C  0.4022  0.009  0.139  0.041  0.213
    8  C -0.0045 -0.003  0.006 -0.010  0.002
    9  O  0.0037 -0.000  0.000 -0.000  0.004
   10  H  0.0012  0.001
   11  H  0.0001  0.000
   12  H -0.0001 -0.000
   13  H  0.0078  0.008
   14  H -0.0146 -0.015
   15  H  0.0019  0.002
   16  H -0.0022 -0.002
   17  H -0.0106 -0.011
   18  H  0.0317  0.032
   19  H  0.0160  0.016

 **********************
 *                    *
 * JOB ENDED NORMALLY *
 *                    *
 **********************



 TOTAL JOB TIME:             1.69 SECONDS

 == MOPAC DONE ==
