 *******************************************************************************
 **                                                                           **
 **                              MOPAC v23.2                                  **
 **                                                                           **
 *******************************************************************************
 **          Digital Object Identifier (DOI): 10.5281/zenodo.6511958          **
 **    Visit the DOI location for information on how to cite this program.    **
 *******************************************************************************

                              PM7 CALCULATION RESULTS

 *******************************************************************************
 *  CALCULATION DONE: (MAX THREADS = 40)             Fri Sep 19 21:32:24 2025  *
 *  PM7        - The PM7 Hamiltonian to be used
 *
 *
 *
 *                 CHARGE ON SYSTEM = +1
 *
 *
 *
 *  1SCF       - DO 1 SCF AND THEN STOP 
 *  T=         - A TIME OF 172800.0 SECONDS REQUESTED
 *  DUMP=N     - RESTART FILE WRITTEN EVERY 7200.0 SECONDS REQUESTED
 *  RELSCF     - DEFAULT SCF CRITERION MULTIPLIED BY 0.0001
 *              (DEFAULT SCF CRITERION = 0.00010)
 *  GRADIENTS  - ALL GRADIENTS TO BE PRINTED
 *  DISP       - PRINT DISPERSION AND HYDROGEN BOND ENERGIES
 *******************************************************************************
PM7 1SCF GRADIENTS DISP RELSCF=0.0001 CHARGE=1
 Title: ASE calculation

   ATOM   CHEMICAL          X               Y               Z
  NUMBER   SYMBOL      (ANGSTROMS)     (ANGSTROMS)     (ANGSTROMS)

     1       C         -3.45923128  *  -0.01343264  *   0.11796883  *
     2       N         -2.35001597  *   0.59024747  *   0.68620037  *
     3       C         -1.36464226  *   0.53477653  *   1.52836790  *
     4       O         -0.09611319  *   0.46761501  *   1.23394732  *
     5       C          0.32522167  *   0.11407546  *  -0.11571147  *
     6       C          1.82806670  *   0.22245669  *  -0.08625164  *
     7       C          2.51195982  *  -0.13217737  *  -1.35855479  *
     8       N          2.39317098  *   0.61644405  *   1.00986819  *
     9       O          3.75777019  *   0.69251651  *   0.91217920  *
    10       H         -3.75652513  *   0.51765998  *  -0.82939754  *
    11       H         -3.34061762  *  -1.10357408  *  -0.09020026  *
    12       H         -4.36129915  *   0.08942017  *   0.79610005  *
    13       H         -1.49671966  *   0.78891631  *   2.61736076  *
    14       H         -0.11463558  *   0.83599702  *  -0.83340951  *
    15       H         -0.00567478  *  -0.92058549  *  -0.33031263  *
    16       H          1.84279143  *  -0.44217687  *  -2.16904787  *
    17       H          3.11024496  *   0.72207754  *  -1.73536353  *
    18       H          3.23931342  *  -0.95436980  *  -1.20296746  *
    19       H          4.03081752  *   0.99127830  *   1.84315964  *



          CARTESIAN COORDINATES 

    NO.       ATOM           X           Y           Z

     1         C         -3.4592     -0.0134      0.1180
     2         N         -2.3500      0.5902      0.6862
     3         C         -1.3646      0.5348      1.5284
     4         O         -0.0961      0.4676      1.2339
     5         C          0.3252      0.1141     -0.1157
     6         C          1.8281      0.2225     -0.0863
     7         C          2.5120     -0.1322     -1.3586
     8         N          2.3932      0.6164      1.0099
     9         O          3.7578      0.6925      0.9122
    10         H         -3.7565      0.5177     -0.8294
    11         H         -3.3406     -1.1036     -0.0902
    12         H         -4.3613      0.0894      0.7961
    13         H         -1.4967      0.7889      2.6174
    14         H         -0.1146      0.8360     -0.8334
    15         H         -0.0057     -0.9206     -0.3303
    16         H          1.8428     -0.4422     -2.1690
    17         H          3.1102      0.7221     -1.7354
    18         H          3.2393     -0.9544     -1.2030
    19         H          4.0308      0.9913      1.8432

 General Reference for PM7:
 "Optimization of Parameters for Semiempirical Methods VI: More Modifications to the 
 NDDO Approximations and Re-optimization of Parameters", J. J. P. Stewart, J. Mol. Mod., 1:32, 19 (2013)
 https://link.springer.com/article/10.1007/s00894-012-1667-x

           Empirical Formula: C5 H10 N2 O2  =    19 atoms



      MOLECULAR POINT GROUP   :   C1  


          UHF CALCULATION, NO. OF ALPHA ELECTRONS =   26
                           NO. OF BETA  ELECTRONS =   25
  SCF CRITERION =    0.1000E-07

 -------------------------------------------------------------------------------
 PM7 1SCF GRADIENTS DISP RELSCF=0.0001 CHARGE=1
 Title: ASE calculation



     1SCF WAS SPECIFIED, SO BFGS WAS NOT USED                 
     SCF FIELD WAS ACHIEVED                                   


                              PM7 CALCULATION
                                                       MOPAC v23.2 Linux
                                                       Fri Sep 19 21:32:25 2025




          FINAL HEAT OF FORMATION =        164.69222 KCAL/MOL =     689.07227 KJ/MOL

          TOTAL ENERGY            =     -39243.65129 KCAL/MOL = ELECTRONIC ENERGY + CORE-CORE REPULSION
          ENERGY OF ATOMS         =      39410.22309 KCAL/MOL
                              SUM =        166.57181 KCAL/MOL
          DISPERSION ENERGY       =         -1.87958 KCAL/MOL
                              SUM =        164.69222 KCAL/MOL = FINAL HEAT OF FORMATION



          TOTAL ENERGY            =      -1701.76579 EV
          ELECTRONIC ENERGY       =      -7614.09454 EV 
          CORE-CORE REPULSION     =       5912.32876 EV
          COSMO AREA              =        177.19 SQUARE ANGSTROMS
          COSMO VOLUME            =        165.89 CUBIC ANGSTROMS

          GRADIENT NORM           =          1.30192          =       0.29868 PER ATOM
          IONIZATION POTENTIAL    =         13.204753 EV
          ALPHA SOMO LUMO (EV)    =        -13.205 -5.555
          BETA  SOMO LUMO (EV)    =        -13.205 -6.813
          NO. OF ALPHA ELECTRONS  =         26
          NO. OF BETA  ELECTRONS  =         25
          MOLECULAR WEIGHT        =        130.1462         POINT GROUP:  C1  

          MOLECULAR DIMENSIONS (Angstroms)

            Atom       Atom       Distance
            H    19    H    12     8.50513
            H    16    H    13     5.38008
            H    11    H    14     1.85410


          SCF CALCULATIONS        =          1

          WALL-CLOCK TIME         =      1.273 SECONDS
          COMPUTATION TIME        =      0.568 SECONDS

          LARGEST ATOMIC GRADIENTS

          Atom     Label                     Cartesian Gradients           Cartesian Coordinates       |Gradient|
                                           X          Y          Z        X          Y          Z

             9       O                  -0.055      0.375     -0.243    3.75777    0.69252    0.91218      0.450
            12       H                   0.061     -0.321      0.269   -4.36130    0.08942    0.79610      0.424
            11       H                   0.253      0.288     -0.103   -3.34062   -1.10357   -0.09020      0.397
            17       H                   0.117      0.346      0.117    3.11024    0.72208   -1.73536      0.383
            18       H                   0.261     -0.254     -0.021    3.23931   -0.95437   -1.20297      0.365
             3       C                   0.241     -0.040     -0.260   -1.36464    0.53478    1.52837      0.357
            10       H                  -0.173      0.294     -0.094   -3.75653    0.51766   -0.82940      0.354
            13       H                  -0.178      0.290      0.021   -1.49672    0.78892    2.61736      0.341
             6       C                  -0.182     -0.175      0.208    1.82807    0.22246   -0.08625      0.327
             4       O                   0.072     -0.171     -0.233   -0.09611    0.46762    1.23395      0.298



       FINAL  POINT  AND  DERIVATIVES

   PARAMETER     ATOM    TYPE            VALUE        GRADIENT
      1          1  C    CARTESIAN X    -3.459231     -0.033219  KCAL/ANGSTROM
      2          1  C    CARTESIAN Y    -0.013433     -0.188994  KCAL/ANGSTROM
      3          1  C    CARTESIAN Z     0.117969      0.127651  KCAL/ANGSTROM
      4          2  N    CARTESIAN X    -2.350016     -0.006702  KCAL/ANGSTROM
      5          2  N    CARTESIAN Y     0.590247      0.150934  KCAL/ANGSTROM
      6          2  N    CARTESIAN Z     0.686200     -0.006428  KCAL/ANGSTROM
      7          3  C    CARTESIAN X    -1.364642      0.241067  KCAL/ANGSTROM
      8          3  C    CARTESIAN Y     0.534777     -0.039598  KCAL/ANGSTROM
      9          3  C    CARTESIAN Z     1.528368     -0.260339  KCAL/ANGSTROM
     10          4  O    CARTESIAN X    -0.096113      0.072402  KCAL/ANGSTROM
     11          4  O    CARTESIAN Y     0.467615     -0.170672  KCAL/ANGSTROM
     12          4  O    CARTESIAN Z     1.233947     -0.233247  KCAL/ANGSTROM
     13          5  C    CARTESIAN X     0.325222     -0.203144  KCAL/ANGSTROM
     14          5  C    CARTESIAN Y     0.114075     -0.194754  KCAL/ANGSTROM
     15          5  C    CARTESIAN Z    -0.115711     -0.031024  KCAL/ANGSTROM
     16          6  C    CARTESIAN X     1.828067     -0.181603  KCAL/ANGSTROM
     17          6  C    CARTESIAN Y     0.222457     -0.174839  KCAL/ANGSTROM
     18          6  C    CARTESIAN Z    -0.086252      0.208374  KCAL/ANGSTROM
     19          7  C    CARTESIAN X     2.511960     -0.087746  KCAL/ANGSTROM
     20          7  C    CARTESIAN Y    -0.132177      0.009803  KCAL/ANGSTROM
     21          7  C    CARTESIAN Z    -1.358555      0.186749  KCAL/ANGSTROM
     22          8  N    CARTESIAN X     2.393171     -0.018107  KCAL/ANGSTROM
     23          8  N    CARTESIAN Y     0.616444     -0.124294  KCAL/ANGSTROM
     24          8  N    CARTESIAN Z     1.009868     -0.019482  KCAL/ANGSTROM
     25          9  O    CARTESIAN X     3.757770     -0.054570  KCAL/ANGSTROM
     26          9  O    CARTESIAN Y     0.692517      0.374891  KCAL/ANGSTROM
     27          9  O    CARTESIAN Z     0.912179     -0.242571  KCAL/ANGSTROM
     28         10  H    CARTESIAN X    -3.756525     -0.172643  KCAL/ANGSTROM
     29         10  H    CARTESIAN Y     0.517660      0.293920  KCAL/ANGSTROM
     30         10  H    CARTESIAN Z    -0.829398     -0.094444  KCAL/ANGSTROM
     31         11  H    CARTESIAN X    -3.340618      0.252938  KCAL/ANGSTROM
     32         11  H    CARTESIAN Y    -1.103574      0.287956  KCAL/ANGSTROM
     33         11  H    CARTESIAN Z    -0.090200     -0.103059  KCAL/ANGSTROM
     34         12  H    CARTESIAN X    -4.361299      0.061337  KCAL/ANGSTROM
     35         12  H    CARTESIAN Y     0.089420     -0.321252  KCAL/ANGSTROM
     36         12  H    CARTESIAN Z     0.796100      0.269285  KCAL/ANGSTROM
     37         13  H    CARTESIAN X    -1.496720     -0.178293  KCAL/ANGSTROM
     38         13  H    CARTESIAN Y     0.788916      0.290059  KCAL/ANGSTROM
     39         13  H    CARTESIAN Z     2.617361      0.021333  KCAL/ANGSTROM
     40         14  H    CARTESIAN X    -0.114636      0.041267  KCAL/ANGSTROM
     41         14  H    CARTESIAN Y     0.835997     -0.104487  KCAL/ANGSTROM
     42         14  H    CARTESIAN Z    -0.833410      0.079345  KCAL/ANGSTROM
     43         15  H    CARTESIAN X    -0.005675     -0.210866  KCAL/ANGSTROM
     44         15  H    CARTESIAN Y    -0.920585     -0.002655  KCAL/ANGSTROM
     45         15  H    CARTESIAN Z    -0.330313     -0.059582  KCAL/ANGSTROM
     46         16  H    CARTESIAN X     1.842791      0.035317  KCAL/ANGSTROM
     47         16  H    CARTESIAN Y    -0.442177     -0.046910  KCAL/ANGSTROM
     48         16  H    CARTESIAN Z    -2.169048     -0.003513  KCAL/ANGSTROM
     49         17  H    CARTESIAN X     3.110245      0.116993  KCAL/ANGSTROM
     50         17  H    CARTESIAN Y     0.722078      0.345651  KCAL/ANGSTROM
     51         17  H    CARTESIAN Z    -1.735364      0.116733  KCAL/ANGSTROM
     52         18  H    CARTESIAN X     3.239313      0.261419  KCAL/ANGSTROM
     53         18  H    CARTESIAN Y    -0.954370     -0.254257  KCAL/ANGSTROM
     54         18  H    CARTESIAN Z    -1.202967     -0.020757  KCAL/ANGSTROM
     55         19  H    CARTESIAN X     4.030818      0.064153  KCAL/ANGSTROM
     56         19  H    CARTESIAN Y     0.991278     -0.130503  KCAL/ANGSTROM
     57         19  H    CARTESIAN Z     1.843160      0.064973  KCAL/ANGSTROM




   ATOM   CHEMICAL          X               Y               Z
  NUMBER   SYMBOL      (ANGSTROMS)     (ANGSTROMS)     (ANGSTROMS)

     1       C         -3.45923128  *  -0.01343264  *   0.11796883  *
     2       N         -2.35001597  *   0.59024747  *   0.68620037  *
     3       C         -1.36464226  *   0.53477653  *   1.52836790  *
     4       O         -0.09611319  *   0.46761501  *   1.23394732  *
     5       C          0.32522167  *   0.11407546  *  -0.11571147  *
     6       C          1.82806670  *   0.22245669  *  -0.08625164  *
     7       C          2.51195982  *  -0.13217737  *  -1.35855479  *
     8       N          2.39317098  *   0.61644405  *   1.00986819  *
     9       O          3.75777019  *   0.69251651  *   0.91217920  *
    10       H         -3.75652513  *   0.51765998  *  -0.82939754  *
    11       H         -3.34061762  *  -1.10357408  *  -0.09020026  *
    12       H         -4.36129915  *   0.08942017  *   0.79610005  *
    13       H         -1.49671966  *   0.78891631  *   2.61736076  *
    14       H         -0.11463558  *   0.83599702  *  -0.83340951  *
    15       H         -0.00567478  *  -0.92058549  *  -0.33031263  *
    16       H          1.84279143  *  -0.44217687  *  -2.16904787  *
    17       H          3.11024496  *   0.72207754  *  -1.73536353  *
    18       H          3.23931342  *  -0.95436980  *  -1.20296746  *
    19       H          4.03081752  *   0.99127830  *   1.84315964  *

                             CARTESIAN COORDINATES

   1    C       -3.459231280    -0.013432641     0.117968834
   2    N       -2.350015966     0.590247472     0.686200371
   3    C       -1.364642258     0.534776526     1.528367896
   4    O       -0.096113185     0.467615006     1.233947316
   5    C        0.325221665     0.114075464    -0.115711474
   6    C        1.828066697     0.222456689    -0.086251639
   7    C        2.511959820    -0.132177367    -1.358554787
   8    N        2.393170982     0.616444050     1.009868193
   9    O        3.757770186     0.692516512     0.912179203
  10    H       -3.756525130     0.517659978    -0.829397542
  11    H       -3.340617621    -1.103574075    -0.090200258
  12    H       -4.361299153     0.089420172     0.796100054
  13    H       -1.496719661     0.788916313     2.617360764
  14    H       -0.114635577     0.835997021    -0.833409514
  15    H       -0.005674776    -0.920585489    -0.330312634
  16    H        1.842791429    -0.442176866    -2.169047872
  17    H        3.110244961     0.722077537    -1.735363530
  18    H        3.239313416    -0.954369798    -1.202967458
  19    H        4.030817516     0.991278300     1.843159642


           Empirical Formula: C5 H10 N2 O2  =    19 atoms



      MOLECULAR POINT GROUP   :   C1  


          ALPHA EIGENVALUES  
 -42.50375 -37.94889 -37.02113 -32.62602 -31.68668 -30.30762 -28.75425 -26.40214
 -23.89236 -23.36899 -22.42386 -22.01872 -20.61092 -20.54437 -20.07594 -19.97736
 -18.75841 -18.35470 -17.84238 -17.53770 -16.65362 -16.40645 -16.33281 -16.25172
 -14.18186 -13.20477  -5.55464  -4.12139  -3.96094  -2.72963  -1.75650  -1.20823
  -0.87723  -0.43540  -0.35180  -0.15748   0.01058   0.55747   0.63904   0.67423
   0.83454   1.61634   2.31402   2.34458   2.36643   3.49744


           BETA EIGENVALUES 
 -40.64642 -37.94662 -36.89426 -32.59930 -31.46638 -30.28515 -28.69892 -26.06480
 -23.58962 -22.99893 -22.02557 -21.77148 -20.43140 -20.37326 -19.92731 -19.42096
 -18.77472 -18.32810 -17.81634 -17.48855 -16.41954 -16.40332 -15.71968 -14.18140
 -13.20475  -6.81258  -5.46129  -3.82339  -3.35868  -2.72932  -1.72550  -1.07440
  -0.75513  -0.17555  -0.10434  -0.07970   0.21594   0.55188   0.64139   0.81275
   0.86933   1.61686   2.31424   2.34507   2.36666   3.49757


              NET ATOMIC CHARGES AND DIPOLE CONTRIBUTIONS

  ATOM NO.   TYPE          CHARGE      No. of ELECS.   s-Pop       p-Pop       
    1          C          -0.230603        4.2306     1.06219     3.16841
    2          N          -0.218556        5.2186     1.61667     3.60188
    3          C           0.330027        3.6700     1.14761     2.52236
    4          O          -0.135062        6.1351     1.86752     4.26755
    5          C          -0.076679        4.0767     1.11711     2.95957
    6          C           0.071353        3.9286     1.07018     2.85846
    7          C          -0.462076        4.4621     1.05049     3.41159
    8          N          -0.171984        5.1720     1.79269     3.37929
    9          O          -0.261926        6.2619     1.90600     4.35592
   10          H           0.226301        0.7737     0.77370
   11          H           0.201993        0.7980     0.79801
   12          H           0.239492        0.7605     0.76051
   13          H           0.264899        0.7351     0.73510
   14          H           0.171573        0.8284     0.82843
   15          H           0.166647        0.8334     0.83335
   16          H           0.162989        0.8370     0.83701
   17          H           0.198992        0.8010     0.80101
   18          H           0.198768        0.8012     0.80123
   19          H           0.323853        0.6761     0.67615
 DIPOLE           X         Y         Z       TOTAL
 POINT-CHG.   -10.224    -1.238     0.375    10.306
 HYBRID         0.471    -0.097    -0.270     0.552
 SUM           -9.753    -1.335     0.105     9.844


          ATOMIC ORBITAL ELECTRON POPULATIONS

     Atom    s        px        py        pz   
    1  C   1.06219   0.90945   1.12514   1.13382
    2  N   1.61667   1.10570   1.38401   1.11217
    3  C   1.14761   0.79723   0.76623   0.95891
    4  O   1.86752   1.19264   1.69060   1.38430
    5  C   1.11711   1.02255   1.13387   0.80315
    6  C   1.07018   0.90614   1.00696   0.94536
    7  C   1.05049   1.16140   1.21035   1.03984
    8  N   1.79269   0.98093   1.12788   1.27049
    9  O   1.90600   1.07812   1.85825   1.41955
   10  H   0.77370
   11  H   0.79801
   12  H   0.76051
   13  H   0.73510
   14  H   0.82843
   15  H   0.83335
   16  H   0.83701
   17  H   0.80101
   18  H   0.80123
   19  H   0.67615


                    (SZ)    =    0.500000
                    (S**2)  =    0.795397


          ATOMIC ORBITAL SPIN POPULATIONS

    Atom   Total    s     px     py     pz   
         Atomic
    1  C -0.0325 -0.007 -0.023 -0.006  0.003
    2  N  1.0307  0.046  0.293  0.160  0.532
    3  C -0.1625 -0.011 -0.034 -0.094 -0.023
    4  O -0.0003 -0.002  0.059 -0.055 -0.003
    5  C  0.0033 -0.000  0.001 -0.000  0.002
    6  C  0.0013  0.000  0.001 -0.000 -0.000
    7  C  0.0013  0.000  0.001  0.000  0.000
    8  N  0.0003 -0.000  0.000  0.000 -0.000
    9  O -0.0001 -0.000 -0.000  0.000  0.000
   10  H  0.0214  0.021
   11  H  0.0213  0.021
   12  H  0.0774  0.077
   13  H  0.0414  0.041
   14  H -0.0013 -0.001
   15  H -0.0016 -0.002
   16  H -0.0000 -0.000
   17  H  0.0000  0.000
   18  H  0.0000  0.000
   19  H  0.0000  0.000

 **********************
 *                    *
 * JOB ENDED NORMALLY *
 *                    *
 **********************



 TOTAL JOB TIME:             1.71 SECONDS

 == MOPAC DONE ==
