 *******************************************************************************
 **                                                                           **
 **                              MOPAC v23.2                                  **
 **                                                                           **
 *******************************************************************************
 **          Digital Object Identifier (DOI): 10.5281/zenodo.6511958          **
 **    Visit the DOI location for information on how to cite this program.    **
 *******************************************************************************

                              PM7 CALCULATION RESULTS

 *******************************************************************************
 *  CALCULATION DONE: (MAX THREADS = 40)             Fri Sep 19 21:35:32 2025  *
 *  PM7        - The PM7 Hamiltonian to be used
 *
 *
 *
 *                 CHARGE ON SYSTEM = +1
 *
 *
 *
 *  1SCF       - DO 1 SCF AND THEN STOP 
 *  T=         - A TIME OF 172800.0 SECONDS REQUESTED
 *  DUMP=N     - RESTART FILE WRITTEN EVERY 7200.0 SECONDS REQUESTED
 *  RELSCF     - DEFAULT SCF CRITERION MULTIPLIED BY 0.0001
 *              (DEFAULT SCF CRITERION = 0.00010)
 *  GRADIENTS  - ALL GRADIENTS TO BE PRINTED
 *  DISP       - PRINT DISPERSION AND HYDROGEN BOND ENERGIES
 *******************************************************************************
PM7 1SCF GRADIENTS DISP RELSCF=0.0001 CHARGE=1
 Title: ASE calculation

   ATOM   CHEMICAL          X               Y               Z
  NUMBER   SYMBOL      (ANGSTROMS)     (ANGSTROMS)     (ANGSTROMS)

     1       O          2.78803698  *   0.75285616  *   0.07117925  *
     2       C          1.59805114  *   1.30660141  *  -0.43946059  *
     3       C          0.57317486  *   0.27927263  *  -0.23253752  *
     4       C          0.86460734  *  -1.02846755  *   0.34982387  *
     5       C         -0.40702254  *  -1.77745308  *   0.38952560  *
     6       C         -1.50904955  *  -0.96683933  *  -0.16682819  *
     7       O         -2.27291795  *  -0.32158569  *   0.88437992  *
     8       C         -1.75782680  *   0.98957865  *   0.56486494  *
     9       C         -0.83756146  *   0.41876982  *  -0.57861579  *
    10       H          3.54559879  *   1.39252065  *  -0.00303741  *
    11       H          1.72720682  *   1.56859593  *  -1.52592298  *
    12       H          1.35440563  *   2.26942241  *   0.08635321  *
    13       H          1.38484962  *  -0.96377668  *   1.35874854  *
    14       H          1.69638260  *  -1.57932029  *  -0.19458664  *
    15       H         -0.52844992  *  -2.75683280  *   0.80624504  *
    16       H         -2.19375710  *  -1.45248405  *  -0.87957640  *
    17       H         -1.25666024  *   1.42348928  *   1.43554227  *
    18       H         -2.57694335  *   1.62993590  *   0.20080940  *
    19       H         -1.06797598  *   0.82586851  *  -1.57684991  *



          CARTESIAN COORDINATES 

    NO.       ATOM           X           Y           Z

     1         O          2.7880      0.7529      0.0712
     2         C          1.5981      1.3066     -0.4395
     3         C          0.5732      0.2793     -0.2325
     4         C          0.8646     -1.0285      0.3498
     5         C         -0.4070     -1.7775      0.3895
     6         C         -1.5090     -0.9668     -0.1668
     7         O         -2.2729     -0.3216      0.8844
     8         C         -1.7578      0.9896      0.5649
     9         C         -0.8376      0.4188     -0.5786
    10         H          3.5456      1.3925     -0.0030
    11         H          1.7272      1.5686     -1.5259
    12         H          1.3544      2.2694      0.0864
    13         H          1.3848     -0.9638      1.3587
    14         H          1.6964     -1.5793     -0.1946
    15         H         -0.5284     -2.7568      0.8062
    16         H         -2.1938     -1.4525     -0.8796
    17         H         -1.2567      1.4235      1.4355
    18         H         -2.5769      1.6299      0.2008
    19         H         -1.0680      0.8259     -1.5768

 General Reference for PM7:
 "Optimization of Parameters for Semiempirical Methods VI: More Modifications to the 
 NDDO Approximations and Re-optimization of Parameters", J. J. P. Stewart, J. Mol. Mod., 1:32, 19 (2013)
 https://link.springer.com/article/10.1007/s00894-012-1667-x

           Empirical Formula: C7 H10 O2  =    19 atoms



      MOLECULAR POINT GROUP   :   C1  


          UHF CALCULATION, NO. OF ALPHA ELECTRONS =   25
                           NO. OF BETA  ELECTRONS =   24
  SCF CRITERION =    0.1000E-07

 -------------------------------------------------------------------------------
 PM7 1SCF GRADIENTS DISP RELSCF=0.0001 CHARGE=1
 Title: ASE calculation



     1SCF WAS SPECIFIED, SO BFGS WAS NOT USED                 
     SCF FIELD WAS ACHIEVED                                   


                              PM7 CALCULATION
                                                       MOPAC v23.2 Linux
                                                       Fri Sep 19 21:35:33 2025




          FINAL HEAT OF FORMATION =        159.47946 KCAL/MOL =     667.26206 KJ/MOL

          TOTAL ENERGY            =     -36321.25553 KCAL/MOL = ELECTRONIC ENERGY + CORE-CORE REPULSION
          ENERGY OF ATOMS         =      36482.50324 KCAL/MOL
                              SUM =        161.24770 KCAL/MOL
          DISPERSION ENERGY       =         -1.76824 KCAL/MOL
                              SUM =        159.47946 KCAL/MOL = FINAL HEAT OF FORMATION



          TOTAL ENERGY            =      -1575.03871 EV
          ELECTRONIC ENERGY       =      -7556.59978 EV 
          CORE-CORE REPULSION     =       5981.56107 EV
          COSMO AREA              =        158.43 SQUARE ANGSTROMS
          COSMO VOLUME            =        156.27 CUBIC ANGSTROMS

          GRADIENT NORM           =          1.02516          =       0.23519 PER ATOM
          IONIZATION POTENTIAL    =         13.807080 EV
          ALPHA SOMO LUMO (EV)    =        -13.807 -6.873
          BETA  SOMO LUMO (EV)    =        -14.421 -6.815
          NO. OF ALPHA ELECTRONS  =         25
          NO. OF BETA  ELECTRONS  =         24
          MOLECULAR WEIGHT        =        126.1548         POINT GROUP:  C1  

          MOLECULAR DIMENSIONS (Angstroms)

            Atom       Atom       Distance
            H    16    H    10     6.46549
            H    15    H    18     4.87911
            H    11    H    17     3.42962


          SCF CALCULATIONS        =          1

          WALL-CLOCK TIME         =      1.086 SECONDS
          COMPUTATION TIME        =      0.802 SECONDS

          LARGEST ATOMIC GRADIENTS

          Atom     Label                     Cartesian Gradients           Cartesian Coordinates       |Gradient|
                                           X          Y          Z        X          Y          Z

            10       H                   0.302      0.300      0.100    3.54560    1.39252   -0.00304      0.437
             5       C                   0.090      0.061      0.352   -0.40702   -1.77745    0.38953      0.369
             4       C                  -0.297     -0.208     -0.016    0.86461   -1.02847    0.34982      0.363
            13       H                  -0.125     -0.212      0.231    1.38485   -0.96378    1.35875      0.338
             3       C                   0.094      0.226     -0.186    0.57317    0.27927   -0.23254      0.307
            14       H                  -0.024      0.024     -0.229    1.69638   -1.57932   -0.19459      0.232
             2       C                   0.099     -0.132     -0.129    1.59805    1.30660   -0.43946      0.210
            19       H                  -0.000     -0.168      0.124   -1.06798    0.82587   -1.57685      0.208
             1       O                  -0.126     -0.041     -0.148    2.78804    0.75286    0.07118      0.199
             9       C                  -0.010      0.096      0.167   -0.83756    0.41877   -0.57862      0.193



       FINAL  POINT  AND  DERIVATIVES

   PARAMETER     ATOM    TYPE            VALUE        GRADIENT
      1          1  O    CARTESIAN X     2.788037     -0.126288  KCAL/ANGSTROM
      2          1  O    CARTESIAN Y     0.752856     -0.041360  KCAL/ANGSTROM
      3          1  O    CARTESIAN Z     0.071179     -0.148154  KCAL/ANGSTROM
      4          2  C    CARTESIAN X     1.598051      0.099058  KCAL/ANGSTROM
      5          2  C    CARTESIAN Y     1.306601     -0.132147  KCAL/ANGSTROM
      6          2  C    CARTESIAN Z    -0.439461     -0.129483  KCAL/ANGSTROM
      7          3  C    CARTESIAN X     0.573175      0.093560  KCAL/ANGSTROM
      8          3  C    CARTESIAN Y     0.279273      0.225525  KCAL/ANGSTROM
      9          3  C    CARTESIAN Z    -0.232538     -0.186498  KCAL/ANGSTROM
     10          4  C    CARTESIAN X     0.864607     -0.296544  KCAL/ANGSTROM
     11          4  C    CARTESIAN Y    -1.028468     -0.207904  KCAL/ANGSTROM
     12          4  C    CARTESIAN Z     0.349824     -0.016279  KCAL/ANGSTROM
     13          5  C    CARTESIAN X    -0.407023      0.089747  KCAL/ANGSTROM
     14          5  C    CARTESIAN Y    -1.777453      0.060711  KCAL/ANGSTROM
     15          5  C    CARTESIAN Z     0.389526      0.352488  KCAL/ANGSTROM
     16          6  C    CARTESIAN X    -1.509050      0.045861  KCAL/ANGSTROM
     17          6  C    CARTESIAN Y    -0.966839      0.020683  KCAL/ANGSTROM
     18          6  C    CARTESIAN Z    -0.166828     -0.036063  KCAL/ANGSTROM
     19          7  O    CARTESIAN X    -2.272918     -0.001245  KCAL/ANGSTROM
     20          7  O    CARTESIAN Y    -0.321586     -0.125361  KCAL/ANGSTROM
     21          7  O    CARTESIAN Z     0.884380      0.059629  KCAL/ANGSTROM
     22          8  C    CARTESIAN X    -1.757827      0.109463  KCAL/ANGSTROM
     23          8  C    CARTESIAN Y     0.989579     -0.024086  KCAL/ANGSTROM
     24          8  C    CARTESIAN Z     0.564865     -0.110509  KCAL/ANGSTROM
     25          9  C    CARTESIAN X    -0.837561     -0.009884  KCAL/ANGSTROM
     26          9  C    CARTESIAN Y     0.418770      0.096135  KCAL/ANGSTROM
     27          9  C    CARTESIAN Z    -0.578616      0.166568  KCAL/ANGSTROM
     28         10  H    CARTESIAN X     3.545599      0.301844  KCAL/ANGSTROM
     29         10  H    CARTESIAN Y     1.392521      0.300101  KCAL/ANGSTROM
     30         10  H    CARTESIAN Z    -0.003037      0.099580  KCAL/ANGSTROM
     31         11  H    CARTESIAN X     1.727207      0.124959  KCAL/ANGSTROM
     32         11  H    CARTESIAN Y     1.568596      0.116175  KCAL/ANGSTROM
     33         11  H    CARTESIAN Z    -1.525923      0.074444  KCAL/ANGSTROM
     34         12  H    CARTESIAN X     1.354406     -0.007145  KCAL/ANGSTROM
     35         12  H    CARTESIAN Y     2.269422      0.033815  KCAL/ANGSTROM
     36         12  H    CARTESIAN Z     0.086353     -0.042388  KCAL/ANGSTROM
     37         13  H    CARTESIAN X     1.384850     -0.125413  KCAL/ANGSTROM
     38         13  H    CARTESIAN Y    -0.963777     -0.211736  KCAL/ANGSTROM
     39         13  H    CARTESIAN Z     1.358749      0.231312  KCAL/ANGSTROM
     40         14  H    CARTESIAN X     1.696383     -0.023522  KCAL/ANGSTROM
     41         14  H    CARTESIAN Y    -1.579320      0.023550  KCAL/ANGSTROM
     42         14  H    CARTESIAN Z    -0.194587     -0.229302  KCAL/ANGSTROM
     43         15  H    CARTESIAN X    -0.528450     -0.073107  KCAL/ANGSTROM
     44         15  H    CARTESIAN Y    -2.756833     -0.051012  KCAL/ANGSTROM
     45         15  H    CARTESIAN Z     0.806245     -0.104848  KCAL/ANGSTROM
     46         16  H    CARTESIAN X    -2.193757     -0.027518  KCAL/ANGSTROM
     47         16  H    CARTESIAN Y    -1.452484     -0.094922  KCAL/ANGSTROM
     48         16  H    CARTESIAN Z    -0.879576     -0.062646  KCAL/ANGSTROM
     49         17  H    CARTESIAN X    -1.256660     -0.044473  KCAL/ANGSTROM
     50         17  H    CARTESIAN Y     1.423489      0.078267  KCAL/ANGSTROM
     51         17  H    CARTESIAN Z     1.435542     -0.098773  KCAL/ANGSTROM
     52         18  H    CARTESIAN X    -2.576943     -0.128877  KCAL/ANGSTROM
     53         18  H    CARTESIAN Y     1.629936      0.101285  KCAL/ANGSTROM
     54         18  H    CARTESIAN Z     0.200809      0.057345  KCAL/ANGSTROM
     55         19  H    CARTESIAN X    -1.067976     -0.000479  KCAL/ANGSTROM
     56         19  H    CARTESIAN Y     0.825869     -0.167723  KCAL/ANGSTROM
     57         19  H    CARTESIAN Z    -1.576850      0.123573  KCAL/ANGSTROM




   ATOM   CHEMICAL          X               Y               Z
  NUMBER   SYMBOL      (ANGSTROMS)     (ANGSTROMS)     (ANGSTROMS)

     1       O          2.78803698  *   0.75285616  *   0.07117925  *
     2       C          1.59805114  *   1.30660141  *  -0.43946059  *
     3       C          0.57317486  *   0.27927263  *  -0.23253752  *
     4       C          0.86460734  *  -1.02846755  *   0.34982387  *
     5       C         -0.40702254  *  -1.77745308  *   0.38952560  *
     6       C         -1.50904955  *  -0.96683933  *  -0.16682819  *
     7       O         -2.27291795  *  -0.32158569  *   0.88437992  *
     8       C         -1.75782680  *   0.98957865  *   0.56486494  *
     9       C         -0.83756146  *   0.41876982  *  -0.57861579  *
    10       H          3.54559879  *   1.39252065  *  -0.00303741  *
    11       H          1.72720682  *   1.56859593  *  -1.52592298  *
    12       H          1.35440563  *   2.26942241  *   0.08635321  *
    13       H          1.38484962  *  -0.96377668  *   1.35874854  *
    14       H          1.69638260  *  -1.57932029  *  -0.19458664  *
    15       H         -0.52844992  *  -2.75683280  *   0.80624504  *
    16       H         -2.19375710  *  -1.45248405  *  -0.87957640  *
    17       H         -1.25666024  *   1.42348928  *   1.43554227  *
    18       H         -2.57694335  *   1.62993590  *   0.20080940  *
    19       H         -1.06797598  *   0.82586851  *  -1.57684991  *

                             CARTESIAN COORDINATES

   1    O        2.788036976     0.752856162     0.071179249
   2    C        1.598051142     1.306601414    -0.439460589
   3    C        0.573174859     0.279272627    -0.232537517
   4    C        0.864607342    -1.028467553     0.349823869
   5    C       -0.407022536    -1.777453084     0.389525603
   6    C       -1.509049552    -0.966839326    -0.166828189
   7    O       -2.272917954    -0.321585690     0.884379921
   8    C       -1.757826801     0.989578651     0.564864943
   9    C       -0.837561455     0.418769817    -0.578615790
  10    H        3.545598788     1.392520651    -0.003037409
  11    H        1.727206825     1.568595935    -1.525922984
  12    H        1.354405628     2.269422414     0.086353206
  13    H        1.384849625    -0.963776678     1.358748538
  14    H        1.696382605    -1.579320287    -0.194586643
  15    H       -0.528449919    -2.756832796     0.806245036
  16    H       -2.193757105    -1.452484046    -0.879576395
  17    H       -1.256660242     1.423489284     1.435542266
  18    H       -2.576943355     1.629935896     0.200809404
  19    H       -1.067975982     0.825868512    -1.576849915


           Empirical Formula: C7 H10 O2  =    19 atoms



      MOLECULAR POINT GROUP   :   C1  


          ALPHA EIGENVALUES  
 -37.27121 -35.03712 -33.66011 -31.32665 -29.98823 -28.41315 -26.68056 -24.51661
 -23.81606 -22.68069 -21.96135 -21.80184 -20.65620 -20.07117 -19.70165 -19.00837
 -18.89026 -18.71617 -17.91552 -17.71591 -17.20191 -16.46916 -15.90634 -14.51627
 -13.80708  -6.87321  -3.00307  -2.84183  -2.58061  -2.46934  -1.82342  -1.73435
  -0.90580  -0.73973  -0.54254  -0.48137  -0.24091  -0.21062   0.00120   0.48811
   0.81046   1.01747   1.02676   1.31564   1.33547   1.87716


           BETA EIGENVALUES 
 -37.19287 -34.99117 -33.54389 -31.21910 -29.87224 -28.34981 -26.57115 -24.39569
 -23.77424 -22.59172 -21.92676 -21.70199 -20.59341 -20.01714 -19.63192 -18.83747
 -18.75471 -18.64713 -17.84840 -17.67169 -17.02548 -16.42062 -15.90133 -14.42113
  -6.81463  -4.40671  -2.96858  -2.78536  -2.54228  -2.36570  -1.81860  -1.66527
  -0.74612  -0.64336  -0.47417  -0.38710  -0.12144  -0.01232   0.05776   0.49119
   0.84762   1.01854   1.03090   1.32602   1.36296   2.07424


              NET ATOMIC CHARGES AND DIPOLE CONTRIBUTIONS

  ATOM NO.   TYPE          CHARGE      No. of ELECS.   s-Pop       p-Pop       
    1          O          -0.519431        6.5194     1.85498     4.66445
    2          C          -0.117741        4.1177     1.08771     3.03003
    3          C           0.467974        3.5320     1.18455     2.34748
    4          C          -0.375864        4.3759     1.06335     3.31251
    5          C          -0.167147        4.1671     1.12611     3.04104
    6          C           0.126329        3.8737     1.10360     2.77008
    7          O          -0.311208        6.3112     1.91091     4.40030
    8          C           0.004990        3.9950     1.10408     2.89093
    9          C          -0.393821        4.3938     1.09992     3.29391
   10          H           0.367493        0.6325     0.63251
   11          H           0.214323        0.7857     0.78568
   12          H           0.210565        0.7894     0.78943
   13          H           0.273214        0.7268     0.72679
   14          H           0.272409        0.7276     0.72759
   15          H           0.200149        0.7999     0.79985
   16          H           0.189880        0.8101     0.81012
   17          H           0.154156        0.8458     0.84584
   18          H           0.180520        0.8195     0.81948
   19          H           0.223212        0.7768     0.77679
 DIPOLE           X         Y         Z       TOTAL
 POINT-CHG.     3.124     2.837    -2.671     4.995
 HYBRID         0.770     0.278     0.107     0.826
 SUM            3.894     3.115    -2.565     5.608


          ATOMIC ORBITAL ELECTRON POPULATIONS

     Atom    s        px        py        pz   
    1  O   1.85498   1.29230   1.51141   1.86074
    2  C   1.08771   0.86860   1.03426   1.12716
    3  C   1.18455   0.95373   0.91040   0.48335
    4  C   1.06335   1.11920   1.00993   1.18338
    5  C   1.12611   0.93162   1.07137   1.03804
    6  C   1.10360   0.95639   0.88699   0.92670
    7  O   1.91091   1.64084   1.22055   1.53890
    8  C   1.10408   1.00217   0.91308   0.97568
    9  C   1.09992   0.97866   1.16530   1.14994
   10  H   0.63251
   11  H   0.78568
   12  H   0.78943
   13  H   0.72679
   14  H   0.72759
   15  H   0.79985
   16  H   0.81012
   17  H   0.84584
   18  H   0.81948
   19  H   0.77679


                    (SZ)    =    0.500000
                    (S**2)  =    0.754713


          ATOMIC ORBITAL SPIN POPULATIONS

    Atom   Total    s     px     py     pz   
         Atomic
    1  O -0.0001 -0.000  0.000  0.000 -0.000
    2  C -0.0013 -0.000 -0.000 -0.001  0.000
    3  C  0.0246  0.001  0.002  0.004  0.019
    4  C -0.0408 -0.006 -0.021 -0.008 -0.006
    5  C  0.9933  0.026  0.063  0.163  0.742
    6  C -0.0619 -0.006 -0.020 -0.012 -0.024
    7  O  0.0654  0.001  0.039  0.009  0.017
    8  C -0.0036 -0.000 -0.002 -0.001 -0.001
    9  C  0.0053  0.001  0.001  0.002  0.002
   10  H -0.0000 -0.000
   11  H  0.0011  0.001
   12  H  0.0008  0.001
   13  H  0.0154  0.015
   14  H  0.0159  0.016
   15  H -0.0267 -0.027
   16  H  0.0116  0.012
   17  H  0.0000  0.000
   18  H  0.0008  0.001
   19  H  0.0002  0.000

 **********************
 *                    *
 * JOB ENDED NORMALLY *
 *                    *
 **********************



 TOTAL JOB TIME:             1.59 SECONDS

 == MOPAC DONE ==
