 *******************************************************************************
 **                                                                           **
 **                              MOPAC v23.2                                  **
 **                                                                           **
 *******************************************************************************
 **          Digital Object Identifier (DOI): 10.5281/zenodo.6511958          **
 **    Visit the DOI location for information on how to cite this program.    **
 *******************************************************************************

                              PM7 CALCULATION RESULTS

 *******************************************************************************
 *  CALCULATION DONE: (MAX THREADS = 40)             Fri Sep 19 21:38:27 2025  *
 *  PM7        - The PM7 Hamiltonian to be used
 *  1SCF       - DO 1 SCF AND THEN STOP 
 *  T=         - A TIME OF 172800.0 SECONDS REQUESTED
 *  DUMP=N     - RESTART FILE WRITTEN EVERY 7200.0 SECONDS REQUESTED
 *  RELSCF     - DEFAULT SCF CRITERION MULTIPLIED BY 0.0001
 *              (DEFAULT SCF CRITERION = 0.00010)
 *  GRADIENTS  - ALL GRADIENTS TO BE PRINTED
 *  DISP       - PRINT DISPERSION AND HYDROGEN BOND ENERGIES
 *******************************************************************************
PM7 1SCF GRADIENTS DISP RELSCF=0.0001
 Title: ASE calculation

   ATOM   CHEMICAL          X               Y               Z
  NUMBER   SYMBOL      (ANGSTROMS)     (ANGSTROMS)     (ANGSTROMS)

     1       C          2.27870634  *  -0.08024906  *  -0.94941413  *
     2       C          1.39865641  *   1.03471889  *  -0.46346557  *
     3       O          1.41384181  *   2.12241570  *  -0.98112039  *
     4       C          0.52841375  *   0.72773052  *   0.71206323  *
     5       C         -0.90229005  *   1.22498786  *   0.80396631  *
     6       C         -1.59505412  *   1.26520349  *  -0.56982145  *
     7       C         -1.29731024  *  -0.27181252  *  -0.75086451  *
     8       C         -2.52783507  *  -1.14914294  *  -0.81933770  *
     9       C         -0.60783195  *  -0.27292342  *   0.63799714  *
    10       H          1.71664931  *  -0.74827159  *  -1.61836461  *
    11       H          3.13278381  *   0.30903557  *  -1.52432946  *
    12       H          2.66951636  *  -0.69517204  *  -0.13049144  *
    13       H          1.11664470  *   0.75047724  *   1.64286665  *
    14       H         -1.27351882  *   1.78377126  *   1.63841472  *
    15       H         -1.11672129  *   1.91579001  *  -1.30840047  *
    16       H         -2.65636992  *   1.51456074  *  -0.52415619  *
    17       H         -0.61110565  *  -0.48317909  *  -1.58641173  *
    18       H         -3.20653039  *  -0.97485896  *   0.02501662  *
    19       H         -2.25981306  *  -2.21286126  *  -0.80775337  *
    20       H         -3.09765187  *  -0.96358183  *  -1.73866304  *
    21       H         -0.72273797  *  -1.08988796  *   1.31830182  *



          CARTESIAN COORDINATES 

    NO.       ATOM           X           Y           Z

     1         C          2.2787     -0.0802     -0.9494
     2         C          1.3987      1.0347     -0.4635
     3         O          1.4138      2.1224     -0.9811
     4         C          0.5284      0.7277      0.7121
     5         C         -0.9023      1.2250      0.8040
     6         C         -1.5951      1.2652     -0.5698
     7         C         -1.2973     -0.2718     -0.7509
     8         C         -2.5278     -1.1491     -0.8193
     9         C         -0.6078     -0.2729      0.6380
    10         H          1.7166     -0.7483     -1.6184
    11         H          3.1328      0.3090     -1.5243
    12         H          2.6695     -0.6952     -0.1305
    13         H          1.1166      0.7505      1.6429
    14         H         -1.2735      1.7838      1.6384
    15         H         -1.1167      1.9158     -1.3084
    16         H         -2.6564      1.5146     -0.5242
    17         H         -0.6111     -0.4832     -1.5864
    18         H         -3.2065     -0.9749      0.0250
    19         H         -2.2598     -2.2129     -0.8078
    20         H         -3.0977     -0.9636     -1.7387
    21         H         -0.7227     -1.0899      1.3183

 General Reference for PM7:
 "Optimization of Parameters for Semiempirical Methods VI: More Modifications to the 
 NDDO Approximations and Re-optimization of Parameters", J. J. P. Stewart, J. Mol. Mod., 1:32, 19 (2013)
 https://link.springer.com/article/10.1007/s00894-012-1667-x

           Empirical Formula: C8 H12 O  =    21 atoms



      MOLECULAR POINT GROUP   :   C1  


      RHF CALCULATION, NO. OF DOUBLY OCCUPIED LEVELS = 25

  SCF CRITERION =    0.1000E-07

 -------------------------------------------------------------------------------
 PM7 1SCF GRADIENTS DISP RELSCF=0.0001
 Title: ASE calculation



     1SCF WAS SPECIFIED, SO BFGS WAS NOT USED                 
     SCF FIELD WAS ACHIEVED                                   


                              PM7 CALCULATION
                                                       MOPAC v23.2 Linux
                                                       Fri Sep 19 21:38:28 2025




          FINAL HEAT OF FORMATION =        -10.36464 KCAL/MOL =     -43.36567 KJ/MOL

          TOTAL ENERGY            =     -33175.81854 KCAL/MOL = ELECTRONIC ENERGY + CORE-CORE REPULSION
          ENERGY OF ATOMS         =      33167.45855 KCAL/MOL
                              SUM =         -8.35999 KCAL/MOL
          DISPERSION ENERGY       =         -2.00466 KCAL/MOL
                              SUM =        -10.36464 KCAL/MOL = FINAL HEAT OF FORMATION



          TOTAL ENERGY            =      -1438.63965 EV
          ELECTRONIC ENERGY       =      -7378.10774 EV 
          CORE-CORE REPULSION     =       5939.46809 EV
          COSMO AREA              =        167.64 SQUARE ANGSTROMS
          COSMO VOLUME            =        169.59 CUBIC ANGSTROMS

          GRADIENT NORM           =          0.93220          =       0.20342 PER ATOM
          IONIZATION POTENTIAL    =          9.967457 EV
          HOMO LUMO ENERGIES (EV) =         -9.967  0.892
          NO. OF FILLED LEVELS    =         25
          MOLECULAR WEIGHT        =        124.1822         POINT GROUP:  C1  

          MOLECULAR DIMENSIONS (Angstroms)

            Atom       Atom       Distance
            H    18    H    11     6.65100
            H    14    H    19     4.65038
            H    21    H    15     3.81843


          SCF CALCULATIONS        =          1

          WALL-CLOCK TIME         =      0.930 SECONDS
          COMPUTATION TIME        =      0.482 SECONDS

          LARGEST ATOMIC GRADIENTS

          Atom     Label                     Cartesian Gradients           Cartesian Coordinates       |Gradient|
                                           X          Y          Z        X          Y          Z

            11       H                   0.196      0.215     -0.126    3.13278    0.30904   -1.52433      0.317
            18       H                  -0.226     -0.199     -0.060   -3.20653   -0.97486    0.02502      0.307
            21       H                  -0.285      0.046      0.081   -0.72274   -1.08989    1.31830      0.300
            14       H                   0.135      0.234     -0.006   -1.27352    1.78377    1.63841      0.270
            15       H                   0.087     -0.245     -0.017   -1.11672    1.91579   -1.30840      0.260
            12       H                  -0.012     -0.208     -0.100    2.66952   -0.69517   -0.13049      0.231
             3       O                   0.015      0.137      0.175    1.41384    2.12242   -0.98112      0.223
             9       C                   0.158     -0.140     -0.064   -0.60783   -0.27292    0.63800      0.221
            17       H                   0.148      0.109      0.109   -0.61111   -0.48318   -1.58641      0.213
            13       H                  -0.001      0.185      0.050    1.11664    0.75048    1.64287      0.192



       FINAL  POINT  AND  DERIVATIVES

   PARAMETER     ATOM    TYPE            VALUE        GRADIENT
      1          1  C    CARTESIAN X     2.278706      0.078082  KCAL/ANGSTROM
      2          1  C    CARTESIAN Y    -0.080249      0.000964  KCAL/ANGSTROM
      3          1  C    CARTESIAN Z    -0.949414     -0.114795  KCAL/ANGSTROM
      4          2  C    CARTESIAN X     1.398656     -0.063022  KCAL/ANGSTROM
      5          2  C    CARTESIAN Y     1.034719     -0.121516  KCAL/ANGSTROM
      6          2  C    CARTESIAN Z    -0.463466      0.066449  KCAL/ANGSTROM
      7          3  O    CARTESIAN X     1.413842      0.014691  KCAL/ANGSTROM
      8          3  O    CARTESIAN Y     2.122416      0.137153  KCAL/ANGSTROM
      9          3  O    CARTESIAN Z    -0.981120      0.175477  KCAL/ANGSTROM
     10          4  C    CARTESIAN X     0.528414     -0.059837  KCAL/ANGSTROM
     11          4  C    CARTESIAN Y     0.727731      0.007744  KCAL/ANGSTROM
     12          4  C    CARTESIAN Z     0.712063      0.092078  KCAL/ANGSTROM
     13          5  C    CARTESIAN X    -0.902290     -0.011953  KCAL/ANGSTROM
     14          5  C    CARTESIAN Y     1.224988      0.094152  KCAL/ANGSTROM
     15          5  C    CARTESIAN Z     0.803966     -0.036945  KCAL/ANGSTROM
     16          6  C    CARTESIAN X    -1.595054     -0.005428  KCAL/ANGSTROM
     17          6  C    CARTESIAN Y     1.265203     -0.087367  KCAL/ANGSTROM
     18          6  C    CARTESIAN Z    -0.569821      0.026091  KCAL/ANGSTROM
     19          7  C    CARTESIAN X    -1.297310      0.036905  KCAL/ANGSTROM
     20          7  C    CARTESIAN Y    -0.271813     -0.086647  KCAL/ANGSTROM
     21          7  C    CARTESIAN Z    -0.750865      0.065313  KCAL/ANGSTROM
     22          8  C    CARTESIAN X    -2.527835     -0.024285  KCAL/ANGSTROM
     23          8  C    CARTESIAN Y    -1.149143     -0.011711  KCAL/ANGSTROM
     24          8  C    CARTESIAN Z    -0.819338      0.043938  KCAL/ANGSTROM
     25          9  C    CARTESIAN X    -0.607832      0.158223  KCAL/ANGSTROM
     26          9  C    CARTESIAN Y    -0.272923     -0.140339  KCAL/ANGSTROM
     27          9  C    CARTESIAN Z     0.637997     -0.063641  KCAL/ANGSTROM
     28         10  H    CARTESIAN X     1.716649     -0.158257  KCAL/ANGSTROM
     29         10  H    CARTESIAN Y    -0.748272      0.007728  KCAL/ANGSTROM
     30         10  H    CARTESIAN Z    -1.618365     -0.092831  KCAL/ANGSTROM
     31         11  H    CARTESIAN X     3.132784      0.196201  KCAL/ANGSTROM
     32         11  H    CARTESIAN Y     0.309036      0.215165  KCAL/ANGSTROM
     33         11  H    CARTESIAN Z    -1.524329     -0.126289  KCAL/ANGSTROM
     34         12  H    CARTESIAN X     2.669516     -0.012361  KCAL/ANGSTROM
     35         12  H    CARTESIAN Y    -0.695172     -0.208386  KCAL/ANGSTROM
     36         12  H    CARTESIAN Z    -0.130491     -0.099842  KCAL/ANGSTROM
     37         13  H    CARTESIAN X     1.116645     -0.001313  KCAL/ANGSTROM
     38         13  H    CARTESIAN Y     0.750477      0.184950  KCAL/ANGSTROM
     39         13  H    CARTESIAN Z     1.642867      0.050104  KCAL/ANGSTROM
     40         14  H    CARTESIAN X    -1.273519      0.134739  KCAL/ANGSTROM
     41         14  H    CARTESIAN Y     1.783771      0.233838  KCAL/ANGSTROM
     42         14  H    CARTESIAN Z     1.638415     -0.006486  KCAL/ANGSTROM
     43         15  H    CARTESIAN X    -1.116721      0.086509  KCAL/ANGSTROM
     44         15  H    CARTESIAN Y     1.915790     -0.244632  KCAL/ANGSTROM
     45         15  H    CARTESIAN Z    -1.308400     -0.017403  KCAL/ANGSTROM
     46         16  H    CARTESIAN X    -2.656370      0.060886  KCAL/ANGSTROM
     47         16  H    CARTESIAN Y     1.514561      0.174541  KCAL/ANGSTROM
     48         16  H    CARTESIAN Z    -0.524156      0.018541  KCAL/ANGSTROM
     49         17  H    CARTESIAN X    -0.611106      0.147670  KCAL/ANGSTROM
     50         17  H    CARTESIAN Y    -0.483179      0.108961  KCAL/ANGSTROM
     51         17  H    CARTESIAN Z    -1.586412      0.108983  KCAL/ANGSTROM
     52         18  H    CARTESIAN X    -3.206530     -0.225916  KCAL/ANGSTROM
     53         18  H    CARTESIAN Y    -0.974859     -0.198724  KCAL/ANGSTROM
     54         18  H    CARTESIAN Z     0.025017     -0.059869  KCAL/ANGSTROM
     55         19  H    CARTESIAN X    -2.259813     -0.013325  KCAL/ANGSTROM
     56         19  H    CARTESIAN Y    -2.212861      0.045899  KCAL/ANGSTROM
     57         19  H    CARTESIAN Z    -0.807753     -0.144431  KCAL/ANGSTROM
     58         20  H    CARTESIAN X    -3.097652     -0.053693  KCAL/ANGSTROM
     59         20  H    CARTESIAN Y    -0.963582     -0.158133  KCAL/ANGSTROM
     60         20  H    CARTESIAN Z    -1.738663      0.034263  KCAL/ANGSTROM
     61         21  H    CARTESIAN X    -0.722738     -0.284517  KCAL/ANGSTROM
     62         21  H    CARTESIAN Y    -1.089888      0.046356  KCAL/ANGSTROM
     63         21  H    CARTESIAN Z     1.318302      0.081293  KCAL/ANGSTROM




   ATOM   CHEMICAL          X               Y               Z
  NUMBER   SYMBOL      (ANGSTROMS)     (ANGSTROMS)     (ANGSTROMS)

     1       C          2.27870634  *  -0.08024906  *  -0.94941413  *
     2       C          1.39865641  *   1.03471889  *  -0.46346557  *
     3       O          1.41384181  *   2.12241570  *  -0.98112039  *
     4       C          0.52841375  *   0.72773052  *   0.71206323  *
     5       C         -0.90229005  *   1.22498786  *   0.80396631  *
     6       C         -1.59505412  *   1.26520349  *  -0.56982145  *
     7       C         -1.29731024  *  -0.27181252  *  -0.75086451  *
     8       C         -2.52783507  *  -1.14914294  *  -0.81933770  *
     9       C         -0.60783195  *  -0.27292342  *   0.63799714  *
    10       H          1.71664931  *  -0.74827159  *  -1.61836461  *
    11       H          3.13278381  *   0.30903557  *  -1.52432946  *
    12       H          2.66951636  *  -0.69517204  *  -0.13049144  *
    13       H          1.11664470  *   0.75047724  *   1.64286665  *
    14       H         -1.27351882  *   1.78377126  *   1.63841472  *
    15       H         -1.11672129  *   1.91579001  *  -1.30840047  *
    16       H         -2.65636992  *   1.51456074  *  -0.52415619  *
    17       H         -0.61110565  *  -0.48317909  *  -1.58641173  *
    18       H         -3.20653039  *  -0.97485896  *   0.02501662  *
    19       H         -2.25981306  *  -2.21286126  *  -0.80775337  *
    20       H         -3.09765187  *  -0.96358183  *  -1.73866304  *
    21       H         -0.72273797  *  -1.08988796  *   1.31830182  *

                             CARTESIAN COORDINATES

   1    C        2.278706341    -0.080249063    -0.949414129
   2    C        1.398656410     1.034718891    -0.463465567
   3    O        1.413841809     2.122415700    -0.981120394
   4    C        0.528413754     0.727730522     0.712063229
   5    C       -0.902290054     1.224987860     0.803966305
   6    C       -1.595054121     1.265203486    -0.569821451
   7    C       -1.297310236    -0.271812523    -0.750864510
   8    C       -2.527835069    -1.149142943    -0.819337699
   9    C       -0.607831952    -0.272923416     0.637997143
  10    H        1.716649308    -0.748271585    -1.618364611
  11    H        3.132783811     0.309035566    -1.524329464
  12    H        2.669516362    -0.695172041    -0.130491441
  13    H        1.116644697     0.750477242     1.642866648
  14    H       -1.273518820     1.783771263     1.638414718
  15    H       -1.116721290     1.915790011    -1.308400470
  16    H       -2.656369920     1.514560738    -0.524156193
  17    H       -0.611105647    -0.483179087    -1.586411727
  18    H       -3.206530385    -0.974858957     0.025016625
  19    H       -2.259813062    -2.212861263    -0.807753367
  20    H       -3.097651871    -0.963581830    -1.738663043
  21    H       -0.722737971    -1.089887956     1.318301823


           Empirical Formula: C8 H12 O  =    21 atoms



      MOLECULAR POINT GROUP   :   C1  


                  EIGENVALUES  
 -32.55441 -30.73665 -27.19103 -26.36873 -23.98757 -22.00974 -21.32672 -18.35480
 -18.24724 -17.19294 -16.31189 -15.93091 -15.03277 -14.88251 -14.31725 -13.61637
 -13.48280 -13.25107 -12.85247 -12.65923 -12.07639 -11.54839 -11.19270 -10.74053
  -9.96746   0.89218   1.91226   3.12743   3.28817   3.40759   3.59270   3.78892
   4.32780   4.43292   4.98105   5.10542   5.19402   5.48914   5.59996   5.64871
   5.69144   5.81675   5.95492   6.02427   6.16606   6.53016   6.56504   6.82118


              NET ATOMIC CHARGES AND DIPOLE CONTRIBUTIONS

  ATOM NO.   TYPE          CHARGE      No. of ELECS.   s-Pop       p-Pop       
    1          C          -0.548663        4.5487     1.06505     3.48361
    2          C           0.510605        3.4894     1.11130     2.37810
    3          O          -0.447304        6.4473     1.87730     4.57000
    4          C          -0.302972        4.3030     1.06489     3.23808
    5          C          -0.134320        4.1343     1.06453     3.06979
    6          C          -0.286609        4.2866     1.07394     3.21267
    7          C          -0.079256        4.0793     1.06741     3.01185
    8          C          -0.450233        4.4502     1.05164     3.39859
    9          C          -0.188427        4.1884     1.07024     3.11819
   10          H           0.177081        0.8229     0.82292
   11          H           0.180781        0.8192     0.81922
   12          H           0.170603        0.8294     0.82940
   13          H           0.179824        0.8202     0.82018
   14          H           0.160767        0.8392     0.83923
   15          H           0.162190        0.8378     0.83781
   16          H           0.149163        0.8508     0.85084
   17          H           0.135426        0.8646     0.86457
   18          H           0.151674        0.8483     0.84833
   19          H           0.147388        0.8526     0.85261
   20          H           0.151256        0.8487     0.84874
   21          H           0.161024        0.8390     0.83898
 DIPOLE           X         Y         Z       TOTAL
 POINT-CHG.    -0.660    -3.035     0.836     3.216
 HYBRID         0.068     0.062     0.091     0.129
 SUM           -0.592    -2.973     0.927     3.170


          ATOMIC ORBITAL ELECTRON POPULATIONS

     Atom    s        px        py        pz   
    1  C   1.06505   1.16213   1.13464   1.18684
    2  C   1.11130   0.76931   0.82505   0.78374
    3  O   1.87730   1.64800   1.34114   1.58085
    4  C   1.06489   0.98836   1.13359   1.11614
    5  C   1.06453   0.98495   1.01681   1.06803
    6  C   1.07394   1.13230   1.03593   1.04444
    7  C   1.06741   1.01604   0.97990   1.01590
    8  C   1.05164   1.08857   1.12853   1.18149
    9  C   1.07024   1.04077   0.99829   1.07912
   10  H   0.82292
   11  H   0.81922
   12  H   0.82940
   13  H   0.82018
   14  H   0.83923
   15  H   0.83781
   16  H   0.85084
   17  H   0.86457
   18  H   0.84833
   19  H   0.85261
   20  H   0.84874
   21  H   0.83898

 **********************
 *                    *
 * JOB ENDED NORMALLY *
 *                    *
 **********************



 TOTAL JOB TIME:             1.33 SECONDS

 == MOPAC DONE ==
