 *******************************************************************************
 **                                                                           **
 **                              MOPAC v23.2                                  **
 **                                                                           **
 *******************************************************************************
 **          Digital Object Identifier (DOI): 10.5281/zenodo.6511958          **
 **    Visit the DOI location for information on how to cite this program.    **
 *******************************************************************************

                              PM7 CALCULATION RESULTS

 *******************************************************************************
 *  CALCULATION DONE: (MAX THREADS = 40)             Fri Sep 19 21:34:33 2025  *
 *  PM7        - The PM7 Hamiltonian to be used
 *
 *
 *
 *                 CHARGE ON SYSTEM = +1
 *
 *
 *
 *  1SCF       - DO 1 SCF AND THEN STOP 
 *  T=         - A TIME OF 172800.0 SECONDS REQUESTED
 *  DUMP=N     - RESTART FILE WRITTEN EVERY 7200.0 SECONDS REQUESTED
 *  RELSCF     - DEFAULT SCF CRITERION MULTIPLIED BY 0.0001
 *              (DEFAULT SCF CRITERION = 0.00010)
 *  GRADIENTS  - ALL GRADIENTS TO BE PRINTED
 *  DISP       - PRINT DISPERSION AND HYDROGEN BOND ENERGIES
 *******************************************************************************
PM7 1SCF GRADIENTS DISP RELSCF=0.0001 CHARGE=1
 Title: ASE calculation

   ATOM   CHEMICAL          X               Y               Z
  NUMBER   SYMBOL      (ANGSTROMS)     (ANGSTROMS)     (ANGSTROMS)

     1       C          1.78209669  *   0.59534019  *   0.42812422  *
     2       C          0.90015637  *  -0.31155154  *   1.08222925  *
     3       C          0.02163744  *  -0.95130054  *   0.11560124  *
     4       C          0.36362720  *  -0.29262547  *  -1.29178252  *
     5       C          1.50928935  *   0.68198391  *  -1.00375288  *
     6       C         -1.07027671  *   0.27509479  *  -1.35756300  *
     7       C         -1.42360129  *   1.14987878  *  -0.18040118  *
     8       C         -1.42052947  *  -0.34605584  *   0.00890030  *
     9       H          2.57522438  *   1.16016756  *   0.92124648  *
    10       H          0.85977669  *  -0.49484611  *   2.15616196  *
    11       H         -0.01445527  *  -2.06059800  *   0.14817483  *
    12       H          0.58194575  *  -1.00353058  *  -2.10397015  *
    13       H          2.42046413  *   0.47466901  *  -1.63399492  *
    14       H          1.27596721  *   1.72876292  *  -1.35088546  *
    15       H         -1.62021025  *   0.26734549  *  -2.28532727  *
    16       H         -0.70425014  *   1.80472454  *   0.29604554  *
    17       H         -2.39697057  *   1.66036430  *  -0.19243554  *
    18       H         -2.26404125  *  -0.92720159  *   0.33911538  *



          CARTESIAN COORDINATES 

    NO.       ATOM           X           Y           Z

     1         C          1.7821      0.5953      0.4281
     2         C          0.9002     -0.3116      1.0822
     3         C          0.0216     -0.9513      0.1156
     4         C          0.3636     -0.2926     -1.2918
     5         C          1.5093      0.6820     -1.0038
     6         C         -1.0703      0.2751     -1.3576
     7         C         -1.4236      1.1499     -0.1804
     8         C         -1.4205     -0.3461      0.0089
     9         H          2.5752      1.1602      0.9212
    10         H          0.8598     -0.4948      2.1562
    11         H         -0.0145     -2.0606      0.1482
    12         H          0.5819     -1.0035     -2.1040
    13         H          2.4205      0.4747     -1.6340
    14         H          1.2760      1.7288     -1.3509
    15         H         -1.6202      0.2673     -2.2853
    16         H         -0.7043      1.8047      0.2960
    17         H         -2.3970      1.6604     -0.1924
    18         H         -2.2640     -0.9272      0.3391

 General Reference for PM7:
 "Optimization of Parameters for Semiempirical Methods VI: More Modifications to the 
 NDDO Approximations and Re-optimization of Parameters", J. J. P. Stewart, J. Mol. Mod., 1:32, 19 (2013)
 https://link.springer.com/article/10.1007/s00894-012-1667-x

           Empirical Formula: C8 H10  =    18 atoms



      MOLECULAR POINT GROUP   :   C1  


          UHF CALCULATION, NO. OF ALPHA ELECTRONS =   21
                           NO. OF BETA  ELECTRONS =   20
  SCF CRITERION =    0.1000E-07

 -------------------------------------------------------------------------------
 PM7 1SCF GRADIENTS DISP RELSCF=0.0001 CHARGE=1
 Title: ASE calculation



     1SCF WAS SPECIFIED, SO BFGS WAS NOT USED                 
     SCF FIELD WAS ACHIEVED                                   


                              PM7 CALCULATION
                                                       MOPAC v23.2 Linux
                                                       Fri Sep 19 21:34:34 2025




          FINAL HEAT OF FORMATION =        265.47506 KCAL/MOL =    1110.74764 KJ/MOL

          TOTAL ENERGY            =     -25517.31523 KCAL/MOL = ELECTRONIC ENERGY + CORE-CORE REPULSION
          ENERGY OF ATOMS         =      25784.09381 KCAL/MOL
                              SUM =        266.77858 KCAL/MOL
          DISPERSION ENERGY       =         -1.30352 KCAL/MOL
                              SUM =        265.47506 KCAL/MOL = FINAL HEAT OF FORMATION



          TOTAL ENERGY            =      -1106.53552 EV
          ELECTRONIC ENERGY       =      -5672.92930 EV 
          CORE-CORE REPULSION     =       4566.39378 EV
          COSMO AREA              =        144.81 SQUARE ANGSTROMS
          COSMO VOLUME            =        143.23 CUBIC ANGSTROMS

          GRADIENT NORM           =          1.12225          =       0.26452 PER ATOM
          IONIZATION POTENTIAL    =         15.043838 EV
          ALPHA SOMO LUMO (EV)    =        -15.060 -6.194
          BETA  SOMO LUMO (EV)    =        -15.044 -8.127
          NO. OF ALPHA ELECTRONS  =         21
          NO. OF BETA  ELECTRONS  =         20
          MOLECULAR WEIGHT        =        106.1670         POINT GROUP:  C1  

          MOLECULAR DIMENSIONS (Angstroms)

            Atom       Atom       Distance
            H    15    H     9     5.35546
            H    13    H    17     4.39664
            H    14    H    11     4.18771


          SCF CALCULATIONS        =          1

          WALL-CLOCK TIME         =      0.906 SECONDS
          COMPUTATION TIME        =      0.406 SECONDS

          LARGEST ATOMIC GRADIENTS

          Atom     Label                     Cartesian Gradients           Cartesian Coordinates       |Gradient|
                                           X          Y          Z        X          Y          Z

             3       C                  -0.233     -0.164     -0.276    0.02164   -0.95130    0.11560      0.397
             6       C                  -0.087     -0.310      0.223   -1.07028    0.27509   -1.35756      0.391
             8       C                   0.135      0.036     -0.354   -1.42053   -0.34606    0.00890      0.381
             1       C                   0.068     -0.267      0.246    1.78210    0.59534    0.42812      0.370
             4       C                  -0.323     -0.066      0.088    0.36363   -0.29263   -1.29178      0.341
            18       H                   0.296      0.098      0.134   -2.26404   -0.92720    0.33912      0.340
            10       H                  -0.159      0.178     -0.006    0.85978   -0.49485    2.15616      0.239
             5       C                   0.090      0.093     -0.200    1.50929    0.68198   -1.00375      0.238
             9       H                   0.149      0.041      0.159    2.57522    1.16017    0.92125      0.222
            13       H                  -0.024     -0.009     -0.218    2.42046    0.47467   -1.63399      0.219



       FINAL  POINT  AND  DERIVATIVES

   PARAMETER     ATOM    TYPE            VALUE        GRADIENT
      1          1  C    CARTESIAN X     1.782097      0.068370  KCAL/ANGSTROM
      2          1  C    CARTESIAN Y     0.595340     -0.266932  KCAL/ANGSTROM
      3          1  C    CARTESIAN Z     0.428124      0.246445  KCAL/ANGSTROM
      4          2  C    CARTESIAN X     0.900156      0.111547  KCAL/ANGSTROM
      5          2  C    CARTESIAN Y    -0.311552      0.176237  KCAL/ANGSTROM
      6          2  C    CARTESIAN Z     1.082229     -0.063554  KCAL/ANGSTROM
      7          3  C    CARTESIAN X     0.021637     -0.233122  KCAL/ANGSTROM
      8          3  C    CARTESIAN Y    -0.951301     -0.163831  KCAL/ANGSTROM
      9          3  C    CARTESIAN Z     0.115601     -0.276226  KCAL/ANGSTROM
     10          4  C    CARTESIAN X     0.363627     -0.322937  KCAL/ANGSTROM
     11          4  C    CARTESIAN Y    -0.292625     -0.066159  KCAL/ANGSTROM
     12          4  C    CARTESIAN Z    -1.291783      0.087922  KCAL/ANGSTROM
     13          5  C    CARTESIAN X     1.509289      0.089632  KCAL/ANGSTROM
     14          5  C    CARTESIAN Y     0.681984      0.092893  KCAL/ANGSTROM
     15          5  C    CARTESIAN Z    -1.003753     -0.200288  KCAL/ANGSTROM
     16          6  C    CARTESIAN X    -1.070277     -0.086674  KCAL/ANGSTROM
     17          6  C    CARTESIAN Y     0.275095     -0.309996  KCAL/ANGSTROM
     18          6  C    CARTESIAN Z    -1.357563      0.222827  KCAL/ANGSTROM
     19          7  C    CARTESIAN X    -1.423601     -0.107222  KCAL/ANGSTROM
     20          7  C    CARTESIAN Y     1.149879      0.038263  KCAL/ANGSTROM
     21          7  C    CARTESIAN Z    -0.180401      0.026504  KCAL/ANGSTROM
     22          8  C    CARTESIAN X    -1.420529      0.135311  KCAL/ANGSTROM
     23          8  C    CARTESIAN Y    -0.346056      0.036007  KCAL/ANGSTROM
     24          8  C    CARTESIAN Z     0.008900     -0.354358  KCAL/ANGSTROM
     25          9  H    CARTESIAN X     2.575224      0.149096  KCAL/ANGSTROM
     26          9  H    CARTESIAN Y     1.160168      0.041478  KCAL/ANGSTROM
     27          9  H    CARTESIAN Z     0.921246      0.159081  KCAL/ANGSTROM
     28         10  H    CARTESIAN X     0.859777     -0.159466  KCAL/ANGSTROM
     29         10  H    CARTESIAN Y    -0.494846      0.177774  KCAL/ANGSTROM
     30         10  H    CARTESIAN Z     2.156162     -0.005732  KCAL/ANGSTROM
     31         11  H    CARTESIAN X    -0.014455      0.002419  KCAL/ANGSTROM
     32         11  H    CARTESIAN Y    -2.060598     -0.189599  KCAL/ANGSTROM
     33         11  H    CARTESIAN Z     0.148175     -0.055473  KCAL/ANGSTROM
     34         12  H    CARTESIAN X     0.581946      0.018819  KCAL/ANGSTROM
     35         12  H    CARTESIAN Y    -1.003531      0.089744  KCAL/ANGSTROM
     36         12  H    CARTESIAN Z    -2.103970      0.143991  KCAL/ANGSTROM
     37         13  H    CARTESIAN X     2.420464     -0.023565  KCAL/ANGSTROM
     38         13  H    CARTESIAN Y     0.474669     -0.008659  KCAL/ANGSTROM
     39         13  H    CARTESIAN Z    -1.633995     -0.217767  KCAL/ANGSTROM
     40         14  H    CARTESIAN X     1.275967     -0.023009  KCAL/ANGSTROM
     41         14  H    CARTESIAN Y     1.728763      0.056528  KCAL/ANGSTROM
     42         14  H    CARTESIAN Z    -1.350885      0.119113  KCAL/ANGSTROM
     43         15  H    CARTESIAN X    -1.620210      0.159991  KCAL/ANGSTROM
     44         15  H    CARTESIAN Y     0.267345     -0.041833  KCAL/ANGSTROM
     45         15  H    CARTESIAN Z    -2.285327     -0.055976  KCAL/ANGSTROM
     46         16  H    CARTESIAN X    -0.704250      0.009879  KCAL/ANGSTROM
     47         16  H    CARTESIAN Y     1.804725      0.171663  KCAL/ANGSTROM
     48         16  H    CARTESIAN Z     0.296046      0.061521  KCAL/ANGSTROM
     49         17  H    CARTESIAN X    -2.396971     -0.085396  KCAL/ANGSTROM
     50         17  H    CARTESIAN Y     1.660364      0.068035  KCAL/ANGSTROM
     51         17  H    CARTESIAN Z    -0.192436      0.027748  KCAL/ANGSTROM
     52         18  H    CARTESIAN X    -2.264041      0.296326  KCAL/ANGSTROM
     53         18  H    CARTESIAN Y    -0.927202      0.098384  KCAL/ANGSTROM
     54         18  H    CARTESIAN Z     0.339115      0.134219  KCAL/ANGSTROM




   ATOM   CHEMICAL          X               Y               Z
  NUMBER   SYMBOL      (ANGSTROMS)     (ANGSTROMS)     (ANGSTROMS)

     1       C          1.78209669  *   0.59534019  *   0.42812422  *
     2       C          0.90015637  *  -0.31155154  *   1.08222925  *
     3       C          0.02163744  *  -0.95130054  *   0.11560124  *
     4       C          0.36362720  *  -0.29262547  *  -1.29178252  *
     5       C          1.50928935  *   0.68198391  *  -1.00375288  *
     6       C         -1.07027671  *   0.27509479  *  -1.35756300  *
     7       C         -1.42360129  *   1.14987878  *  -0.18040118  *
     8       C         -1.42052947  *  -0.34605584  *   0.00890030  *
     9       H          2.57522438  *   1.16016756  *   0.92124648  *
    10       H          0.85977669  *  -0.49484611  *   2.15616196  *
    11       H         -0.01445527  *  -2.06059800  *   0.14817483  *
    12       H          0.58194575  *  -1.00353058  *  -2.10397015  *
    13       H          2.42046413  *   0.47466901  *  -1.63399492  *
    14       H          1.27596721  *   1.72876292  *  -1.35088546  *
    15       H         -1.62021025  *   0.26734549  *  -2.28532727  *
    16       H         -0.70425014  *   1.80472454  *   0.29604554  *
    17       H         -2.39697057  *   1.66036430  *  -0.19243554  *
    18       H         -2.26404125  *  -0.92720159  *   0.33911538  *

                             CARTESIAN COORDINATES

   1    C        1.782096690     0.595340189     0.428124224
   2    C        0.900156365    -0.311551544     1.082229252
   3    C        0.021637441    -0.951300536     0.115601245
   4    C        0.363627199    -0.292625473    -1.291782519
   5    C        1.509289355     0.681983906    -1.003752884
   6    C       -1.070276709     0.275094787    -1.357563003
   7    C       -1.423601294     1.149878775    -0.180401177
   8    C       -1.420529473    -0.346055838     0.008900299
   9    H        2.575224382     1.160167557     0.921246478
  10    H        0.859776686    -0.494846111     2.156161955
  11    H       -0.014455266    -2.060598000     0.148174826
  12    H        0.581945750    -1.003530582    -2.103970155
  13    H        2.420464127     0.474669014    -1.633994919
  14    H        1.275967207     1.728762917    -1.350885461
  15    H       -1.620210252     0.267345494    -2.285327273
  16    H       -0.704250138     1.804724538     0.296045538
  17    H       -2.396970572     1.660364299    -0.192435544
  18    H       -2.264041246    -0.927201593     0.339115378


           Empirical Formula: C8 H10  =    18 atoms



      MOLECULAR POINT GROUP   :   C1  


          ALPHA EIGENVALUES  
 -37.89991 -34.12441 -30.63363 -29.56996 -26.08438 -25.54256 -23.83847 -22.66043
 -22.60561 -21.99185 -20.32626 -19.22665 -18.99685 -18.91745 -18.20816 -17.74753
 -17.30186 -16.46036 -15.88635 -15.41027 -15.06018  -6.19426  -2.59066  -2.29988
  -2.09381  -1.64271  -1.42688  -1.29281  -0.96388  -0.82421  -0.24819  -0.12518
  -0.07970   0.05824   0.31055   0.82961   0.93032   1.34675   1.44877   1.90060
   2.11774   2.25450


           BETA EIGENVALUES 
 -37.81597 -33.97248 -30.50278 -29.47366 -25.97298 -25.45667 -23.74035 -22.57411
 -22.51203 -21.81266 -20.11911 -19.05044 -18.90812 -18.71952 -18.03368 -17.68313
 -16.68209 -16.39054 -15.82171 -15.04384  -8.12728  -4.84516  -2.54341  -2.21750
  -1.99111  -1.53974  -1.38142  -1.16445  -0.92327  -0.76059  -0.16247  -0.07727
  -0.00341   0.13695   0.35031   0.88351   0.98420   1.35733   1.45528   1.90897
   2.11977   2.25564


              NET ATOMIC CHARGES AND DIPOLE CONTRIBUTIONS

  ATOM NO.   TYPE          CHARGE      No. of ELECS.   s-Pop       p-Pop       
    1          C           0.106313        3.8937     1.16745     2.72624
    2          C           0.113279        3.8867     1.16766     2.71906
    3          C          -0.230062        4.2301     1.08951     3.14055
    4          C          -0.088956        4.0890     1.08709     3.00186
    5          C          -0.359768        4.3598     1.06777     3.29200
    6          C          -0.157711        4.1577     1.07270     3.08501
    7          C          -0.311081        4.3111     1.05825     3.25283
    8          C          -0.124148        4.1241     1.07211     3.05203
    9          H           0.198674        0.8013     0.80133
   10          H           0.202923        0.7971     0.79708
   11          H           0.224111        0.7759     0.77589
   12          H           0.185223        0.8148     0.81478
   13          H           0.241044        0.7590     0.75896
   14          H           0.245423        0.7546     0.75458
   15          H           0.197326        0.8027     0.80267
   16          H           0.156584        0.8434     0.84342
   17          H           0.201328        0.7987     0.79867
   18          H           0.199498        0.8005     0.80050
 DIPOLE           X         Y         Z       TOTAL
 POINT-CHG.     3.556     0.287     1.602     3.911
 HYBRID         0.403     0.057     0.286     0.497
 SUM            3.959     0.344     1.888     4.400


          ATOMIC ORBITAL ELECTRON POPULATIONS

     Atom    s        px        py        pz   
    1  C   1.16745   0.90035   0.81981   1.00608
    2  C   1.16766   0.82467   0.80220   1.09219
    3  C   1.08951   1.02273   1.12119   0.99663
    4  C   1.08709   0.96151   1.01584   1.02452
    5  C   1.06777   1.12486   1.15690   1.01023
    6  C   1.07270   0.99652   1.08366   1.00483
    7  C   1.05825   1.19943   0.98477   1.06863
    8  C   1.07211   0.96542   1.00840   1.07822
    9  H   0.80133
   10  H   0.79708
   11  H   0.77589
   12  H   0.81478
   13  H   0.75896
   14  H   0.75458
   15  H   0.80267
   16  H   0.84342
   17  H   0.79867
   18  H   0.80050


                    (SZ)    =    0.500000
                    (S**2)  =    0.752324


          ATOMIC ORBITAL SPIN POPULATIONS

    Atom   Total    s     px     py     pz   
         Atomic
    1  C  0.4176  0.008  0.161  0.224  0.025
    2  C  0.4198  0.008  0.187  0.212  0.013
    3  C -0.0067 -0.004 -0.002  0.006 -0.007
    4  C  0.0046  0.000  0.002  0.001  0.001
    5  C  0.0160 -0.004  0.013  0.017 -0.010
    6  C  0.0025  0.001  0.002 -0.000 -0.000
    7  C -0.0035 -0.000 -0.000 -0.002 -0.001
    8  C  0.0695  0.008  0.045  0.006  0.011
    9  H -0.0117 -0.012
   10  H -0.0116 -0.012
   11  H  0.0222  0.022
   12  H  0.0030  0.003
   13  H  0.0397  0.040
   14  H  0.0361  0.036
   15  H  0.0013  0.001
   16  H  0.0001  0.000
   17  H  0.0003  0.000
   18  H  0.0007  0.001

 **********************
 *                    *
 * JOB ENDED NORMALLY *
 *                    *
 **********************



 TOTAL JOB TIME:             1.30 SECONDS

 == MOPAC DONE ==
