 *******************************************************************************
 **                                                                           **
 **                              MOPAC v23.2                                  **
 **                                                                           **
 *******************************************************************************
 **          Digital Object Identifier (DOI): 10.5281/zenodo.6511958          **
 **    Visit the DOI location for information on how to cite this program.    **
 *******************************************************************************

                              PM7 CALCULATION RESULTS

 *******************************************************************************
 *  CALCULATION DONE: (MAX THREADS = 40)             Fri Sep 19 21:36:00 2025  *
 *  PM7        - The PM7 Hamiltonian to be used
 *  EPS=37.5   - USE ANDREAS KLAMT'S COSMO IMPLICIT SOLVATION MODEL
 *  1SCF       - DO 1 SCF AND THEN STOP 
 *  T=         - A TIME OF 172800.0 SECONDS REQUESTED
 *  DUMP=N     - RESTART FILE WRITTEN EVERY 7200.0 SECONDS REQUESTED
 *  RELSCF     - DEFAULT SCF CRITERION MULTIPLIED BY 0.0001
 *              (DEFAULT SCF CRITERION = 0.00010)
 *  GRADIENTS  - ALL GRADIENTS TO BE PRINTED
 *  DISP       - PRINT DISPERSION AND HYDROGEN BOND ENERGIES
 *******************************************************************************
PM7 1SCF GRADIENTS EPS=37.5 DISP RELSCF=0.0001
 Title: ASE calculation

   ATOM   CHEMICAL          X               Y               Z
  NUMBER   SYMBOL      (ANGSTROMS)     (ANGSTROMS)     (ANGSTROMS)

     1       C          2.37883944  *   0.94118762  *   0.10032081  *
     2       C          0.93099221  *   0.90683953  *  -0.16241700  *
     3       N          0.08021794  *   1.87467037  *  -0.28841218  *
     4       C         -1.26007360  *   1.30737918  *  -0.53477053  *
     5       C         -2.18568609  *   1.73460201  *   0.50033388  *
     6       N         -2.92961303  *   2.07658817  *   1.31577872  *
     7       C         -1.00941958  *  -0.25260081  *  -0.53996410  *
     8       C         -1.71384856  *  -1.02952984  *   0.54712633  *
     9       O          0.41153707  *  -0.36214242  *  -0.30320398  *
    10       H          2.92961303  *   0.25824327  *  -0.56966373  *
    11       H          2.79443691  *   1.95678670  *  -0.03191274  *
    12       H          2.60145576  *   0.62822419  *   1.13666959  *
    13       H         -1.62022366  *   1.66411072  *  -1.54068029  *
    14       H         -1.16311681  *  -0.68534328  *  -1.54911348  *
    15       H         -1.50873166  *  -0.62493309  *   1.54911348  *
    16       H         -1.37663249  *  -2.07658817  *   0.56545246  *
    17       H         -2.80290404  *  -1.03362558  *   0.40860466  *



          CARTESIAN COORDINATES 

    NO.       ATOM           X           Y           Z

     1         C          2.3788      0.9412      0.1003
     2         C          0.9310      0.9068     -0.1624
     3         N          0.0802      1.8747     -0.2884
     4         C         -1.2601      1.3074     -0.5348
     5         C         -2.1857      1.7346      0.5003
     6         N         -2.9296      2.0766      1.3158
     7         C         -1.0094     -0.2526     -0.5400
     8         C         -1.7138     -1.0295      0.5471
     9         O          0.4115     -0.3621     -0.3032
    10         H          2.9296      0.2582     -0.5697
    11         H          2.7944      1.9568     -0.0319
    12         H          2.6015      0.6282      1.1367
    13         H         -1.6202      1.6641     -1.5407
    14         H         -1.1631     -0.6853     -1.5491
    15         H         -1.5087     -0.6249      1.5491
    16         H         -1.3766     -2.0766      0.5655
    17         H         -2.8029     -1.0336      0.4086

 General Reference for PM7:
 "Optimization of Parameters for Semiempirical Methods VI: More Modifications to the 
 NDDO Approximations and Re-optimization of Parameters", J. J. P. Stewart, J. Mol. Mod., 1:32, 19 (2013)
 https://link.springer.com/article/10.1007/s00894-012-1667-x

           Empirical Formula: C6 H8 N2 O  =    17 atoms



      MOLECULAR POINT GROUP   :   C1  


      RHF CALCULATION, NO. OF DOUBLY OCCUPIED LEVELS = 24

  SCF CRITERION =    0.1000E-07

 -------------------------------------------------------------------------------
 PM7 1SCF GRADIENTS EPS=37.5 DISP RELSCF=0.0001
 Title: ASE calculation



     1SCF WAS SPECIFIED, SO BFGS WAS NOT USED                 
     SCF FIELD WAS ACHIEVED                                   


                              PM7 CALCULATION
                                                       MOPAC v23.2 Linux
                                                       Fri Sep 19 21:36:00 2025




          FINAL HEAT OF FORMATION =        -17.27435 KCAL/MOL =     -72.27589 KJ/MOL

          TOTAL ENERGY            =     -34881.17715 KCAL/MOL = ELECTRONIC ENERGY + CORE-CORE REPULSION + SOLVATION ENERGY
          ENERGY OF ATOMS         =      34865.63902 KCAL/MOL
                              SUM =        -15.53813 KCAL/MOL
          DISPERSION ENERGY       =         -1.73622 KCAL/MOL
                              SUM =        -17.27435 KCAL/MOL = FINAL HEAT OF FORMATION

          VAN DER WAALS AREA      =        161.50 SQUARE ANGSTROMS


          TOTAL ENERGY            =      -1512.59100 EV
          ELECTRONIC ENERGY       =      -2134.19815 EV 
          CORE-CORE REPULSION     =        621.60715 EV

          DIELECTRIC ENERGY       =         -0.65012 EV
          COSMO AREA              =        161.50 SQUARE ANGSTROMS
          COSMO VOLUME            =        156.18 CUBIC ANGSTROMS

          GRADIENT NORM           =         25.10735          =       6.08943 PER ATOM
          IONIZATION POTENTIAL    =         10.723875 EV
          HOMO LUMO ENERGIES (EV) =        -10.724  0.268
          NO. OF FILLED LEVELS    =         24
          MOLECULAR WEIGHT        =        124.1420         POINT GROUP:  C1  

          MOLECULAR DIMENSIONS (Angstroms)

            Atom       Atom       Distance
            H    10    N     6     6.41808
            H    16    H    11     5.09446
            H    12    H    13     3.81658


          SCF CALCULATIONS        =          2

          WALL-CLOCK TIME         =      0.922 SECONDS
          COMPUTATION TIME        =      0.464 SECONDS

          LARGEST ATOMIC GRADIENTS

          Atom     Label                     Cartesian Gradients           Cartesian Coordinates       |Gradient|
                                           X          Y          Z        X          Y          Z

             2       C                  -9.786     13.120     -1.340    0.93099    0.90684   -0.16242     16.422
             3       N                   6.014     -6.674     -0.802    0.08022    1.87467   -0.28841      9.020
             9       O                  -3.362     -7.711     -1.169    0.41154   -0.36214   -0.30320      8.493
             1       C                   7.151     -1.919      1.432    2.37884    0.94119    0.10032      7.541
             7       C                   5.355      0.883     -0.807   -1.00942   -0.25260   -0.53996      5.487
             6       N                   3.218     -2.534     -3.562   -2.92961    2.07659    1.31578      5.428
             5       C                  -3.625      2.123      3.064   -2.18569    1.73460    0.50033      5.200
             8       C                  -3.105     -3.656     -0.732   -1.71385   -1.02953    0.54713      4.852
            13       H                   2.097      0.268      3.072   -1.62022    1.66411   -1.54068      3.729
             4       C                  -0.841      1.721     -1.092   -1.26007    1.30738   -0.53477      2.205



       FINAL  POINT  AND  DERIVATIVES

   PARAMETER     ATOM    TYPE            VALUE        GRADIENT
      1          1  C    CARTESIAN X     2.378839      7.151460  KCAL/ANGSTROM
      2          1  C    CARTESIAN Y     0.941188     -1.918509  KCAL/ANGSTROM
      3          1  C    CARTESIAN Z     0.100321      1.431654  KCAL/ANGSTROM
      4          2  C    CARTESIAN X     0.930992     -9.785651  KCAL/ANGSTROM
      5          2  C    CARTESIAN Y     0.906840     13.120305  KCAL/ANGSTROM
      6          2  C    CARTESIAN Z    -0.162417     -1.339556  KCAL/ANGSTROM
      7          3  N    CARTESIAN X     0.080218      6.014383  KCAL/ANGSTROM
      8          3  N    CARTESIAN Y     1.874670     -6.673674  KCAL/ANGSTROM
      9          3  N    CARTESIAN Z    -0.288412     -0.802372  KCAL/ANGSTROM
     10          4  C    CARTESIAN X    -1.260074     -0.841097  KCAL/ANGSTROM
     11          4  C    CARTESIAN Y     1.307379      1.720691  KCAL/ANGSTROM
     12          4  C    CARTESIAN Z    -0.534771     -1.092089  KCAL/ANGSTROM
     13          5  C    CARTESIAN X    -2.185686     -3.625465  KCAL/ANGSTROM
     14          5  C    CARTESIAN Y     1.734602      2.122670  KCAL/ANGSTROM
     15          5  C    CARTESIAN Z     0.500334      3.063734  KCAL/ANGSTROM
     16          6  N    CARTESIAN X    -2.929613      3.217659  KCAL/ANGSTROM
     17          6  N    CARTESIAN Y     2.076588     -2.533793  KCAL/ANGSTROM
     18          6  N    CARTESIAN Z     1.315779     -3.561927  KCAL/ANGSTROM
     19          7  C    CARTESIAN X    -1.009420      5.355085  KCAL/ANGSTROM
     20          7  C    CARTESIAN Y    -0.252601      0.883282  KCAL/ANGSTROM
     21          7  C    CARTESIAN Z    -0.539964     -0.806754  KCAL/ANGSTROM
     22          8  C    CARTESIAN X    -1.713849     -3.105279  KCAL/ANGSTROM
     23          8  C    CARTESIAN Y    -1.029530     -3.656235  KCAL/ANGSTROM
     24          8  C    CARTESIAN Z     0.547126     -0.731534  KCAL/ANGSTROM
     25          9  O    CARTESIAN X     0.411537     -3.362382  KCAL/ANGSTROM
     26          9  O    CARTESIAN Y    -0.362142     -7.710526  KCAL/ANGSTROM
     27          9  O    CARTESIAN Z    -0.303204     -1.169429  KCAL/ANGSTROM
     28         10  H    CARTESIAN X     2.929613     -1.853034  KCAL/ANGSTROM
     29         10  H    CARTESIAN Y     0.258243      0.391420  KCAL/ANGSTROM
     30         10  H    CARTESIAN Z    -0.569664      0.176009  KCAL/ANGSTROM
     31         11  H    CARTESIAN X     2.794437     -1.816140  KCAL/ANGSTROM
     32         11  H    CARTESIAN Y     1.956787      0.183561  KCAL/ANGSTROM
     33         11  H    CARTESIAN Z    -0.031913     -0.018602  KCAL/ANGSTROM
     34         12  H    CARTESIAN X     2.601456     -1.582330  KCAL/ANGSTROM
     35         12  H    CARTESIAN Y     0.628224      0.619789  KCAL/ANGSTROM
     36         12  H    CARTESIAN Z     1.136670     -1.168268  KCAL/ANGSTROM
     37         13  H    CARTESIAN X    -1.620224      2.096536  KCAL/ANGSTROM
     38         13  H    CARTESIAN Y     1.664111      0.268444  KCAL/ANGSTROM
     39         13  H    CARTESIAN Z    -1.540680      3.071899  KCAL/ANGSTROM
     40         14  H    CARTESIAN X    -1.163117      0.348658  KCAL/ANGSTROM
     41         14  H    CARTESIAN Y    -0.685343      0.314811  KCAL/ANGSTROM
     42         14  H    CARTESIAN Z    -1.549113      2.105557  KCAL/ANGSTROM
     43         15  H    CARTESIAN X    -1.508732      0.041632  KCAL/ANGSTROM
     44         15  H    CARTESIAN Y    -0.624933      0.598758  KCAL/ANGSTROM
     45         15  H    CARTESIAN Z     1.549113     -0.397841  KCAL/ANGSTROM
     46         16  H    CARTESIAN X    -1.376632      0.795090  KCAL/ANGSTROM
     47         16  H    CARTESIAN Y    -2.076588      1.327997  KCAL/ANGSTROM
     48         16  H    CARTESIAN Z     0.565452      0.414413  KCAL/ANGSTROM
     49         17  H    CARTESIAN X    -2.802904      0.950874  KCAL/ANGSTROM
     50         17  H    CARTESIAN Y    -1.033626      0.941003  KCAL/ANGSTROM
     51         17  H    CARTESIAN Z     0.408605      0.825101  KCAL/ANGSTROM




   ATOM   CHEMICAL          X               Y               Z
  NUMBER   SYMBOL      (ANGSTROMS)     (ANGSTROMS)     (ANGSTROMS)

     1       C          2.37883944  *   0.94118762  *   0.10032081  *
     2       C          0.93099221  *   0.90683953  *  -0.16241700  *
     3       N          0.08021794  *   1.87467037  *  -0.28841218  *
     4       C         -1.26007360  *   1.30737918  *  -0.53477053  *
     5       C         -2.18568609  *   1.73460201  *   0.50033388  *
     6       N         -2.92961303  *   2.07658817  *   1.31577872  *
     7       C         -1.00941958  *  -0.25260081  *  -0.53996410  *
     8       C         -1.71384856  *  -1.02952984  *   0.54712633  *
     9       O          0.41153707  *  -0.36214242  *  -0.30320398  *
    10       H          2.92961303  *   0.25824327  *  -0.56966373  *
    11       H          2.79443691  *   1.95678670  *  -0.03191274  *
    12       H          2.60145576  *   0.62822419  *   1.13666959  *
    13       H         -1.62022366  *   1.66411072  *  -1.54068029  *
    14       H         -1.16311681  *  -0.68534328  *  -1.54911348  *
    15       H         -1.50873166  *  -0.62493309  *   1.54911348  *
    16       H         -1.37663249  *  -2.07658817  *   0.56545246  *
    17       H         -2.80290404  *  -1.03362558  *   0.40860466  *

                             CARTESIAN COORDINATES

   1    C        2.378839440     0.941187621     0.100320809
   2    C        0.930992213     0.906839526    -0.162416998
   3    N        0.080217943     1.874670370    -0.288412181
   4    C       -1.260073597     1.307379185    -0.534770535
   5    C       -2.185686092     1.734602012     0.500333876
   6    N       -2.929613032     2.076588174     1.315778722
   7    C       -1.009419584    -0.252600806    -0.539964100
   8    C       -1.713848562    -1.029529843     0.547126331
   9    O        0.411537066    -0.362142420    -0.303203983
  10    H        2.929613032     0.258243272    -0.569663729
  11    H        2.794436911     1.956786696    -0.031912737
  12    H        2.601455762     0.628224190     1.136669589
  13    H       -1.620223662     1.664110725    -1.540680291
  14    H       -1.163116812    -0.685343279    -1.549113476
  15    H       -1.508731662    -0.624933089     1.549113476
  16    H       -1.376632495    -2.076588174     0.565452463
  17    H       -2.802904035    -1.033625579     0.408604660


           Empirical Formula: C6 H8 N2 O  =    17 atoms



      MOLECULAR POINT GROUP   :   C1  


                  EIGENVALUES  
 -36.70848 -35.70754 -30.32215 -28.65656 -26.43801 -24.98346 -21.84892 -20.58680
 -18.83710 -17.81963 -16.31834 -15.88679 -15.53190 -15.03932 -14.61146 -14.23970
 -14.00354 -13.65462 -13.47087 -13.15378 -12.84097 -12.51168 -11.68775 -10.72387
   0.26751   0.51523   0.67356   1.22285   2.19103   2.47066   2.74386   3.24537
   3.67837   3.84739   4.58194   4.78820   5.09562   5.16378   5.23374   5.36313
   5.47065   5.51194   6.31658   6.63541


              NET ATOMIC CHARGES AND DIPOLE CONTRIBUTIONS

  ATOM NO.   TYPE          CHARGE      No. of ELECS.   s-Pop       p-Pop       
    1          C          -0.475469        4.4755     1.05316     3.42231
    2          C           0.483450        3.5165     1.11496     2.40159
    3          N          -0.593856        5.5939     1.77820     3.81565
    4          C          -0.003073        4.0031     1.07881     2.92426
    5          C           0.194550        3.8054     1.12653     2.67892
    6          N          -0.348630        5.3486     1.82967     3.51896
    7          C           0.118397        3.8816     1.11203     2.76957
    8          C          -0.500660        4.5007     1.05801     3.44265
    9          O          -0.423585        6.4236     1.87849     4.54509
   10          H           0.203369        0.7966     0.79663
   11          H           0.203827        0.7962     0.79617
   12          H           0.207631        0.7924     0.79237
   13          H           0.219525        0.7805     0.78047
   14          H           0.174782        0.8252     0.82522
   15          H           0.173764        0.8262     0.82624
   16          H           0.183283        0.8167     0.81672
   17          H           0.182695        0.8173     0.81731
 DIPOLE           X         Y         Z       TOTAL
 POINT-CHG.     2.669    -3.481    -2.747     5.175
 HYBRID         0.155    -0.723    -0.071     0.743
 SUM            2.824    -4.204    -2.819     5.796


          ATOMIC ORBITAL ELECTRON POPULATIONS

     Atom    s        px        py        pz   
    1  C   1.05316   0.98306   1.22559   1.21366
    2  C   1.11496   0.91384   0.72898   0.75877
    3  N   1.77820   1.07799   1.34990   1.38777
    4  C   1.07881   0.88057   0.98812   1.05557
    5  C   1.12653   0.89519   0.88360   0.90013
    6  N   1.82967   1.18024   1.14752   1.19120
    7  C   1.11203   0.74867   0.94365   1.07726
    8  C   1.05801   1.16109   1.16885   1.11271
    9  O   1.87849   1.31471   1.37518   1.85519
   10  H   0.79663
   11  H   0.79617
   12  H   0.79237
   13  H   0.78047
   14  H   0.82522
   15  H   0.82624
   16  H   0.81672
   17  H   0.81731

 **********************
 *                    *
 * JOB ENDED NORMALLY *
 *                    *
 **********************



 TOTAL JOB TIME:             1.30 SECONDS

 == MOPAC DONE ==
