 *******************************************************************************
 **                                                                           **
 **                              MOPAC v23.2                                  **
 **                                                                           **
 *******************************************************************************
 **          Digital Object Identifier (DOI): 10.5281/zenodo.6511958          **
 **    Visit the DOI location for information on how to cite this program.    **
 *******************************************************************************

                              PM7 CALCULATION RESULTS

 *******************************************************************************
 *  CALCULATION DONE: (MAX THREADS = 40)             Fri Sep 19 21:42:46 2025  *
 *  PM7        - The PM7 Hamiltonian to be used
 *
 *
 *
 *                 CHARGE ON SYSTEM = +1
 *
 *
 *
 *  1SCF       - DO 1 SCF AND THEN STOP 
 *  T=         - A TIME OF 172800.0 SECONDS REQUESTED
 *  DUMP=N     - RESTART FILE WRITTEN EVERY 7200.0 SECONDS REQUESTED
 *  RELSCF     - DEFAULT SCF CRITERION MULTIPLIED BY 0.0001
 *              (DEFAULT SCF CRITERION = 0.00010)
 *  GRADIENTS  - ALL GRADIENTS TO BE PRINTED
 *  DISP       - PRINT DISPERSION AND HYDROGEN BOND ENERGIES
 *******************************************************************************
PM7 1SCF GRADIENTS DISP RELSCF=0.0001 CHARGE=1
 Title: ASE calculation

   ATOM   CHEMICAL          X               Y               Z
  NUMBER   SYMBOL      (ANGSTROMS)     (ANGSTROMS)     (ANGSTROMS)

     1       C         -2.10741655  *   1.31131589  *   0.08519145  *
     2       C         -0.97804411  *   0.46390754  *  -0.19232901  *
     3       C         -1.06579171  *  -0.85909034  *  -0.82041111  *
     4       C          0.38331352  *  -1.37352442  *  -0.97296332  *
     5       C          1.23273878  *  -0.31503093  *  -0.38035565  *
     6       C          2.62020622  *  -0.35791549  *  -0.30749479  *
     7       N          3.78034033  *  -0.39068627  *  -0.25489621  *
     8       C          0.41386271  *   0.82437870  *   0.11211950  *
     9       H         -2.47128808  *   1.85428957  *  -0.83019354  *
    10       H         -3.02514387  *   0.77123163  *   0.42020608  *
    11       H         -1.92879035  *   2.12342765  *   0.82463395  *
    12       H         -1.61098373  *  -0.85175709  *  -1.80131089  *
    13       H         -1.69715414  *  -1.57616042  *  -0.22761735  *
    14       H          0.53613787  *  -2.36139746  *  -0.47646488  *
    15       H          0.65104077  *  -1.56850456  *  -2.03923596  *
    16       H          0.73828197  *   1.80790843  *  -0.33757728  *
    17       H          0.59332293  *   1.03538863  *   1.20749041  *



          CARTESIAN COORDINATES 

    NO.       ATOM           X           Y           Z

     1         C         -2.1074      1.3113      0.0852
     2         C         -0.9780      0.4639     -0.1923
     3         C         -1.0658     -0.8591     -0.8204
     4         C          0.3833     -1.3735     -0.9730
     5         C          1.2327     -0.3150     -0.3804
     6         C          2.6202     -0.3579     -0.3075
     7         N          3.7803     -0.3907     -0.2549
     8         C          0.4139      0.8244      0.1121
     9         H         -2.4713      1.8543     -0.8302
    10         H         -3.0251      0.7712      0.4202
    11         H         -1.9288      2.1234      0.8246
    12         H         -1.6110     -0.8518     -1.8013
    13         H         -1.6972     -1.5762     -0.2276
    14         H          0.5361     -2.3614     -0.4765
    15         H          0.6510     -1.5685     -2.0392
    16         H          0.7383      1.8079     -0.3376
    17         H          0.5933      1.0354      1.2075

 General Reference for PM7:
 "Optimization of Parameters for Semiempirical Methods VI: More Modifications to the 
 NDDO Approximations and Re-optimization of Parameters", J. J. P. Stewart, J. Mol. Mod., 1:32, 19 (2013)
 https://link.springer.com/article/10.1007/s00894-012-1667-x

           Empirical Formula: C7 H9 N  =    17 atoms



      MOLECULAR POINT GROUP   :   C1  


          UHF CALCULATION, NO. OF ALPHA ELECTRONS =   21
                           NO. OF BETA  ELECTRONS =   20
  SCF CRITERION =    0.1000E-07

 -------------------------------------------------------------------------------
 PM7 1SCF GRADIENTS DISP RELSCF=0.0001 CHARGE=1
 Title: ASE calculation



     1SCF WAS SPECIFIED, SO BFGS WAS NOT USED                 
     SCF FIELD WAS ACHIEVED                                   


                              PM7 CALCULATION
                                                       MOPAC v23.2 Linux
                                                       Fri Sep 19 21:42:47 2025




          FINAL HEAT OF FORMATION =        229.02793 KCAL/MOL =     958.25287 KJ/MOL

          TOTAL ENERGY            =     -26710.06511 KCAL/MOL = ELECTRONIC ENERGY + CORE-CORE REPULSION
          ENERGY OF ATOMS         =      26940.56889 KCAL/MOL
                              SUM =        230.50379 KCAL/MOL
          DISPERSION ENERGY       =         -1.47585 KCAL/MOL
                              SUM =        229.02793 KCAL/MOL = FINAL HEAT OF FORMATION



          TOTAL ENERGY            =      -1158.25805 EV
          ELECTRONIC ENERGY       =      -5342.01380 EV 
          CORE-CORE REPULSION     =       4183.75575 EV
          COSMO AREA              =        158.50 SQUARE ANGSTROMS
          COSMO VOLUME            =        150.29 CUBIC ANGSTROMS

          GRADIENT NORM           =          1.13023          =       0.27412 PER ATOM
          IONIZATION POTENTIAL    =         13.748300 EV
          ALPHA SOMO LUMO (EV)    =        -13.748 -6.877
          BETA  SOMO LUMO (EV)    =        -16.502 -6.859
          NO. OF ALPHA ELECTRONS  =         21
          NO. OF BETA  ELECTRONS  =         20
          MOLECULAR WEIGHT        =        107.1548         POINT GROUP:  C1  

          MOLECULAR DIMENSIONS (Angstroms)

            Atom       Atom       Distance
            H    10    N     7     6.93689
            H    16    H    14     4.14482
            H    17    H    15     3.12728


          SCF CALCULATIONS        =          1

          WALL-CLOCK TIME         =      1.000 SECONDS
          COMPUTATION TIME        =      0.708 SECONDS

          LARGEST ATOMIC GRADIENTS

          Atom     Label                     Cartesian Gradients           Cartesian Coordinates       |Gradient|
                                           X          Y          Z        X          Y          Z

             7       N                   0.047      0.310     -0.335    3.78034   -0.39069   -0.25490      0.459
             6       C                  -0.107     -0.286      0.329    2.62021   -0.35792   -0.30749      0.449
            14       H                  -0.084     -0.335     -0.210    0.53614   -2.36140   -0.47646      0.404
             8       C                   0.001      0.182      0.327    0.41386    0.82438    0.11212      0.374
            12       H                  -0.028     -0.156     -0.303   -1.61098   -0.85176   -1.80131      0.342
            16       H                   0.267     -0.155     -0.033    0.73828    1.80791   -0.33758      0.311
            13       H                  -0.175     -0.006      0.241   -1.69715   -1.57616   -0.22762      0.298
            17       H                  -0.037      0.132     -0.169    0.59332    1.03539    1.20749      0.218
             5       C                  -0.038      0.081      0.184    1.23274   -0.31503   -0.38036      0.204
             4       C                   0.150      0.002      0.101    0.38331   -1.37352   -0.97296      0.181



       FINAL  POINT  AND  DERIVATIVES

   PARAMETER     ATOM    TYPE            VALUE        GRADIENT
      1          1  C    CARTESIAN X    -2.107417     -0.021923  KCAL/ANGSTROM
      2          1  C    CARTESIAN Y     1.311316      0.123276  KCAL/ANGSTROM
      3          1  C    CARTESIAN Z     0.085191      0.049540  KCAL/ANGSTROM
      4          2  C    CARTESIAN X    -0.978044      0.047712  KCAL/ANGSTROM
      5          2  C    CARTESIAN Y     0.463908      0.091527  KCAL/ANGSTROM
      6          2  C    CARTESIAN Z    -0.192329     -0.044785  KCAL/ANGSTROM
      7          3  C    CARTESIAN X    -1.065792     -0.042076  KCAL/ANGSTROM
      8          3  C    CARTESIAN Y    -0.859090      0.096462  KCAL/ANGSTROM
      9          3  C    CARTESIAN Z    -0.820411     -0.134338  KCAL/ANGSTROM
     10          4  C    CARTESIAN X     0.383314      0.150058  KCAL/ANGSTROM
     11          4  C    CARTESIAN Y    -1.373524      0.001516  KCAL/ANGSTROM
     12          4  C    CARTESIAN Z    -0.972963      0.101494  KCAL/ANGSTROM
     13          5  C    CARTESIAN X     1.232739     -0.037758  KCAL/ANGSTROM
     14          5  C    CARTESIAN Y    -0.315031      0.081306  KCAL/ANGSTROM
     15          5  C    CARTESIAN Z    -0.380356      0.183681  KCAL/ANGSTROM
     16          6  C    CARTESIAN X     2.620206     -0.107242  KCAL/ANGSTROM
     17          6  C    CARTESIAN Y    -0.357915     -0.286115  KCAL/ANGSTROM
     18          6  C    CARTESIAN Z    -0.307495      0.328960  KCAL/ANGSTROM
     19          7  N    CARTESIAN X     3.780340      0.047355  KCAL/ANGSTROM
     20          7  N    CARTESIAN Y    -0.390686      0.309655  KCAL/ANGSTROM
     21          7  N    CARTESIAN Z    -0.254896     -0.335058  KCAL/ANGSTROM
     22          8  C    CARTESIAN X     0.413863      0.000923  KCAL/ANGSTROM
     23          8  C    CARTESIAN Y     0.824379      0.182284  KCAL/ANGSTROM
     24          8  C    CARTESIAN Z     0.112119      0.326823  KCAL/ANGSTROM
     25          9  H    CARTESIAN X    -2.471288     -0.025398  KCAL/ANGSTROM
     26          9  H    CARTESIAN Y     1.854290     -0.059090  KCAL/ANGSTROM
     27          9  H    CARTESIAN Z    -0.830194      0.093634  KCAL/ANGSTROM
     28         10  H    CARTESIAN X    -3.025144     -0.072513  KCAL/ANGSTROM
     29         10  H    CARTESIAN Y     0.771232     -0.164048  KCAL/ANGSTROM
     30         10  H    CARTESIAN Z     0.420206      0.009289  KCAL/ANGSTROM
     31         11  H    CARTESIAN X    -1.928790      0.015846  KCAL/ANGSTROM
     32         11  H    CARTESIAN Y     2.123428      0.124126  KCAL/ANGSTROM
     33         11  H    CARTESIAN Z     0.824634     -0.033711  KCAL/ANGSTROM
     34         12  H    CARTESIAN X    -1.610984     -0.028481  KCAL/ANGSTROM
     35         12  H    CARTESIAN Y    -0.851757     -0.155866  KCAL/ANGSTROM
     36         12  H    CARTESIAN Z    -1.801311     -0.302571  KCAL/ANGSTROM
     37         13  H    CARTESIAN X    -1.697154     -0.174853  KCAL/ANGSTROM
     38         13  H    CARTESIAN Y    -1.576160     -0.006319  KCAL/ANGSTROM
     39         13  H    CARTESIAN Z    -0.227617      0.240870  KCAL/ANGSTROM
     40         14  H    CARTESIAN X     0.536138     -0.083924  KCAL/ANGSTROM
     41         14  H    CARTESIAN Y    -2.361397     -0.335113  KCAL/ANGSTROM
     42         14  H    CARTESIAN Z    -0.476465     -0.210261  KCAL/ANGSTROM
     43         15  H    CARTESIAN X     0.651041      0.101971  KCAL/ANGSTROM
     44         15  H    CARTESIAN Y    -1.568505      0.019569  KCAL/ANGSTROM
     45         15  H    CARTESIAN Z    -2.039236     -0.071041  KCAL/ANGSTROM
     46         16  H    CARTESIAN X     0.738282      0.267408  KCAL/ANGSTROM
     47         16  H    CARTESIAN Y     1.807908     -0.155420  KCAL/ANGSTROM
     48         16  H    CARTESIAN Z    -0.337577     -0.033337  KCAL/ANGSTROM
     49         17  H    CARTESIAN X     0.593323     -0.037106  KCAL/ANGSTROM
     50         17  H    CARTESIAN Y     1.035389      0.132249  KCAL/ANGSTROM
     51         17  H    CARTESIAN Z     1.207490     -0.169192  KCAL/ANGSTROM




   ATOM   CHEMICAL          X               Y               Z
  NUMBER   SYMBOL      (ANGSTROMS)     (ANGSTROMS)     (ANGSTROMS)

     1       C         -2.10741655  *   1.31131589  *   0.08519145  *
     2       C         -0.97804411  *   0.46390754  *  -0.19232901  *
     3       C         -1.06579171  *  -0.85909034  *  -0.82041111  *
     4       C          0.38331352  *  -1.37352442  *  -0.97296332  *
     5       C          1.23273878  *  -0.31503093  *  -0.38035565  *
     6       C          2.62020622  *  -0.35791549  *  -0.30749479  *
     7       N          3.78034033  *  -0.39068627  *  -0.25489621  *
     8       C          0.41386271  *   0.82437870  *   0.11211950  *
     9       H         -2.47128808  *   1.85428957  *  -0.83019354  *
    10       H         -3.02514387  *   0.77123163  *   0.42020608  *
    11       H         -1.92879035  *   2.12342765  *   0.82463395  *
    12       H         -1.61098373  *  -0.85175709  *  -1.80131089  *
    13       H         -1.69715414  *  -1.57616042  *  -0.22761735  *
    14       H          0.53613787  *  -2.36139746  *  -0.47646488  *
    15       H          0.65104077  *  -1.56850456  *  -2.03923596  *
    16       H          0.73828197  *   1.80790843  *  -0.33757728  *
    17       H          0.59332293  *   1.03538863  *   1.20749041  *

                             CARTESIAN COORDINATES

   1    C       -2.107416550     1.311315892     0.085191453
   2    C       -0.978044105     0.463907541    -0.192329008
   3    C       -1.065791711    -0.859090339    -0.820411107
   4    C        0.383313524    -1.373524420    -0.972963324
   5    C        1.232738785    -0.315030931    -0.380355646
   6    C        2.620206218    -0.357915485    -0.307494792
   7    N        3.780340328    -0.390686269    -0.254896207
   8    C        0.413862710     0.824378699     0.112119499
   9    H       -2.471288085     1.854289569    -0.830193537
  10    H       -3.025143873     0.771231635     0.420206083
  11    H       -1.928790349     2.123427654     0.824633952
  12    H       -1.610983730    -0.851757093    -1.801310889
  13    H       -1.697154144    -1.576160420    -0.227617346
  14    H        0.536137873    -2.361397462    -0.476464883
  15    H        0.651040769    -1.568504560    -2.039235957
  16    H        0.738281967     1.807908427    -0.337577281
  17    H        0.593322925     1.035388631     1.207490406


           Empirical Formula: C7 H9 N  =    17 atoms



      MOLECULAR POINT GROUP   :   C1  


          ALPHA EIGENVALUES  
 -38.42009 -36.89788 -32.73527 -31.03557 -28.86774 -26.04264 -24.59449 -22.95953
 -22.07523 -20.66155 -19.77434 -19.68514 -19.45404 -19.10119 -18.47676 -18.21405
 -18.13105 -17.21349 -17.05591 -16.65085 -13.74830  -6.87697  -2.94267  -2.66315
  -2.47161  -2.33511  -2.23441  -1.36685  -1.05487  -0.60346  -0.59818  -0.53965
  -0.41061  -0.27461  -0.19836   0.40468   0.58744   0.76647   0.93664   1.56172
   2.05609


           BETA EIGENVALUES 
 -37.93942 -36.84157 -32.65056 -30.96896 -28.76422 -25.91712 -24.55939 -22.86348
 -21.90476 -20.63747 -19.67227 -19.58099 -19.21582 -18.98431 -18.47169 -18.17337
 -17.71110 -16.82745 -16.73823 -16.50170  -6.85888  -5.04737  -2.81413  -2.65311
  -2.45569  -2.20996  -1.64315  -1.33052  -0.84482  -0.56632  -0.50887  -0.36490
  -0.33913  -0.21147  -0.06299   0.43667   0.60517   0.86345   0.93719   1.61518
   2.19738


              NET ATOMIC CHARGES AND DIPOLE CONTRIBUTIONS

  ATOM NO.   TYPE          CHARGE      No. of ELECS.   s-Pop       p-Pop       
    1          C          -0.578716        4.5787     1.05899     3.51972
    2          C           0.539634        3.4604     1.17266     2.28770
    3          C          -0.391488        4.3915     1.07364     3.31785
    4          C          -0.255239        4.2552     1.05880     3.19644
    5          C          -0.006542        4.0065     1.06356     2.94298
    6          C           0.039736        3.9603     1.08454     2.87573
    7          N          -0.087965        5.0880     1.83044     3.25753
    8          C          -0.388803        4.3888     1.06653     3.32228
    9          H           0.262164        0.7378     0.73784
   10          H           0.239930        0.7601     0.76007
   11          H           0.230306        0.7697     0.76969
   12          H           0.237650        0.7623     0.76235
   13          H           0.240416        0.7596     0.75958
   14          H           0.204639        0.7954     0.79536
   15          H           0.203766        0.7962     0.79623
   16          H           0.254287        0.7457     0.74571
   17          H           0.256223        0.7438     0.74378
 DIPOLE           X         Y         Z       TOTAL
 POINT-CHG.    -9.057     2.185     0.134     9.318
 HYBRID        -0.771     0.255     0.044     0.814
 SUM           -9.828     2.440     0.178    10.128


          ATOMIC ORBITAL ELECTRON POPULATIONS

     Atom    s        px        py        pz   
    1  C   1.05899   1.11277   1.17541   1.23154
    2  C   1.17266   0.95740   0.86046   0.46985
    3  C   1.07364   1.11328   1.02925   1.17532
    4  C   1.05880   0.92328   1.09057   1.18260
    5  C   1.06356   0.94040   0.96357   1.03900
    6  C   1.08454   0.91703   0.97827   0.98043
    7  N   1.83044   1.20627   1.02747   1.02379
    8  C   1.06653   0.99292   1.13313   1.19622
    9  H   0.73784
   10  H   0.76007
   11  H   0.76969
   12  H   0.76235
   13  H   0.75958
   14  H   0.79536
   15  H   0.79623
   16  H   0.74571
   17  H   0.74378


                    (SZ)    =    0.500000
                    (S**2)  =    0.773235


          ATOMIC ORBITAL SPIN POPULATIONS

    Atom   Total    s     px     py     pz   
         Atomic
    1  C -0.0007 -0.000 -0.000 -0.000  0.000
    2  C  0.0069  0.000  0.001  0.001  0.004
    3  C  0.0019  0.000  0.001  0.000  0.001
    4  C -0.0338 -0.006 -0.009 -0.016 -0.002
    5  C  0.9015  0.024  0.030  0.183  0.664
    6  C -0.2160 -0.016 -0.020 -0.065 -0.116
    7  N  0.2901  0.004  0.007  0.085  0.194
    8  C -0.0368 -0.005 -0.009 -0.017 -0.005
    9  H  0.0003  0.000
   10  H  0.0002  0.000
   11  H  0.0000  0.000
   12  H  0.0008  0.001
   13  H  0.0010  0.001
   14  H  0.0254  0.025
   15  H  0.0263  0.026
   16  H  0.0161  0.016
   17  H  0.0166  0.017

 **********************
 *                    *
 * JOB ENDED NORMALLY *
 *                    *
 **********************



 TOTAL JOB TIME:             1.52 SECONDS

 == MOPAC DONE ==
