 *******************************************************************************
 **                                                                           **
 **                              MOPAC v23.2                                  **
 **                                                                           **
 *******************************************************************************
 **          Digital Object Identifier (DOI): 10.5281/zenodo.6511958          **
 **    Visit the DOI location for information on how to cite this program.    **
 *******************************************************************************

                              PM7 CALCULATION RESULTS

 *******************************************************************************
 *  CALCULATION DONE: (MAX THREADS = 40)             Fri Sep 19 21:41:07 2025  *
 *  PM7        - The PM7 Hamiltonian to be used
 *
 *
 *
 *                 CHARGE ON SYSTEM = +1
 *
 *
 *
 *  1SCF       - DO 1 SCF AND THEN STOP 
 *  T=         - A TIME OF 172800.0 SECONDS REQUESTED
 *  DUMP=N     - RESTART FILE WRITTEN EVERY 7200.0 SECONDS REQUESTED
 *  RELSCF     - DEFAULT SCF CRITERION MULTIPLIED BY 0.0001
 *              (DEFAULT SCF CRITERION = 0.00010)
 *  GRADIENTS  - ALL GRADIENTS TO BE PRINTED
 *  DISP       - PRINT DISPERSION AND HYDROGEN BOND ENERGIES
 *******************************************************************************
PM7 1SCF GRADIENTS DISP RELSCF=0.0001 CHARGE=1
 Title: ASE calculation

   ATOM   CHEMICAL          X               Y               Z
  NUMBER   SYMBOL      (ANGSTROMS)     (ANGSTROMS)     (ANGSTROMS)

     1       C          3.04357928  *  -1.98286411  *   0.87765696  *
     2       C          1.92946530  *  -1.17382653  *   0.59866517  *
     3       C          0.89071214  *  -0.44062113  *   0.33261475  *
     4       C         -0.18353168  *   0.35123940  *   0.05525262  *
     5       O         -0.02519800  *   1.65325927  *   0.12208769  *
     6       C         -1.29128409  *   2.33952714  *  -0.22148304  *
     7       C         -2.25375708  *   1.26748726  *  -0.49519251  *
     8       C         -1.58404951  *  -0.04953271  *  -0.34558582  *
     9       C         -2.24355868  *  -0.93946227  *   0.70158858  *
    10       H          2.78588721  *  -3.05873585  *   1.03195216  *
    11       H          3.80418478  *  -1.96781140  *   0.05473390  *
    12       H          3.60303336  *  -1.65864608  *   1.79168473  *
    13       H         -1.51784327  *   2.97215381  *   0.66347088  *
    14       H         -1.03351082  *   2.98619558  *  -1.08804660  *
    15       H         -3.28491607  *   1.40236733  *  -0.74301690  *
    16       H         -1.56220931  *  -0.60325814  *  -1.33264715  *
    17       H         -2.35737629  *  -0.43831448  *   1.67290935  *
    18       H         -3.25832957  *  -1.23730042  *   0.38504562  *
    19       H         -1.68194372  *  -1.86899010  *   0.87019262  *



          CARTESIAN COORDINATES 

    NO.       ATOM           X           Y           Z

     1         C          3.0436     -1.9829      0.8777
     2         C          1.9295     -1.1738      0.5987
     3         C          0.8907     -0.4406      0.3326
     4         C         -0.1835      0.3512      0.0553
     5         O         -0.0252      1.6533      0.1221
     6         C         -1.2913      2.3395     -0.2215
     7         C         -2.2538      1.2675     -0.4952
     8         C         -1.5840     -0.0495     -0.3456
     9         C         -2.2436     -0.9395      0.7016
    10         H          2.7859     -3.0587      1.0320
    11         H          3.8042     -1.9678      0.0547
    12         H          3.6030     -1.6586      1.7917
    13         H         -1.5178      2.9722      0.6635
    14         H         -1.0335      2.9862     -1.0880
    15         H         -3.2849      1.4024     -0.7430
    16         H         -1.5622     -0.6033     -1.3326
    17         H         -2.3574     -0.4383      1.6729
    18         H         -3.2583     -1.2373      0.3850
    19         H         -1.6819     -1.8690      0.8702

 General Reference for PM7:
 "Optimization of Parameters for Semiempirical Methods VI: More Modifications to the 
 NDDO Approximations and Re-optimization of Parameters", J. J. P. Stewart, J. Mol. Mod., 1:32, 19 (2013)
 https://link.springer.com/article/10.1007/s00894-012-1667-x

           Empirical Formula: C8 H10 O  =    19 atoms



      MOLECULAR POINT GROUP   :   C1  


          UHF CALCULATION, NO. OF ALPHA ELECTRONS =   24
                           NO. OF BETA  ELECTRONS =   23
  SCF CRITERION =    0.1000E-07

 -------------------------------------------------------------------------------
 PM7 1SCF GRADIENTS DISP RELSCF=0.0001 CHARGE=1
 Title: ASE calculation



     1SCF WAS SPECIFIED, SO BFGS WAS NOT USED                 
     SCF FIELD WAS ACHIEVED                                   


                              PM7 CALCULATION
                                                       MOPAC v23.2 Linux
                                                       Fri Sep 19 21:41:09 2025




          FINAL HEAT OF FORMATION =        193.04201 KCAL/MOL =     807.68778 KJ/MOL

          TOTAL ENERGY            =     -32360.40535 KCAL/MOL = ELECTRONIC ENERGY + CORE-CORE REPULSION
          ENERGY OF ATOMS         =      32552.68886 KCAL/MOL
                              SUM =        192.28350 KCAL/MOL
          DISPERSION ENERGY       =         -1.73568 KCAL/MOL
                              SUM =        190.54783 KCAL/MOL = FINAL HEAT OF FORMATION

     *    WARNING - An energy term is incorrect or missing!

     *    FINAL HEAT OF FORMATION     =    193.04201 KCAL/MOL
     *    SUM OF CONTRIBUTIONS TO HoF =    190.54783 KCAL/MOL
     *                     DIFFERENCE =      2.49419 KCAL/MOL



          TOTAL ENERGY            =      -1403.27999 EV
          ELECTRONIC ENERGY       =      -6620.14957 EV 
          CORE-CORE REPULSION     =       5216.86958 EV
          COSMO AREA              =        174.96 SQUARE ANGSTROMS
          COSMO VOLUME            =        165.35 CUBIC ANGSTROMS

          GRADIENT NORM           =          1.13615          =       0.26065 PER ATOM
          IONIZATION POTENTIAL    =         13.535446 EV
          ALPHA SOMO LUMO (EV)    =        -13.535 -5.851
          BETA  SOMO LUMO (EV)    =        -15.141 -5.844
          NO. OF ALPHA ELECTRONS  =         24
          NO. OF BETA  ELECTRONS  =         23
          MOLECULAR WEIGHT        =        122.1664         POINT GROUP:  C1  

          MOLECULAR DIMENSIONS (Angstroms)

            Atom       Atom       Distance
            H    15    H    12     7.95226
            H    18    H    14     4.99294
            H    11    H    13     3.34496


          SCF CALCULATIONS        =          1

          WALL-CLOCK TIME         =      2.039 SECONDS
          COMPUTATION TIME        =      0.649 SECONDS

          LARGEST ATOMIC GRADIENTS

          Atom     Label                     Cartesian Gradients           Cartesian Coordinates       |Gradient|
                                           X          Y          Z        X          Y          Z

             8       C                  -0.285      0.234      0.106   -1.58405   -0.04953   -0.34559      0.383
            17       H                  -0.107     -0.180     -0.307   -2.35738   -0.43831    1.67291      0.372
             2       C                   0.290     -0.207     -0.009    1.92947   -1.17383    0.59867      0.356
             3       C                   0.108      0.235      0.238    0.89071   -0.44062    0.33261      0.352
             4       C                   0.194      0.045     -0.240   -0.18353    0.35124    0.05525      0.312
             7       C                   0.061      0.294      0.013   -2.25376    1.26749   -0.49519      0.300
            13       H                  -0.027     -0.096     -0.282   -1.51784    2.97215    0.66347      0.299
            10       H                  -0.236     -0.129     -0.127    2.78589   -3.05874    1.03195      0.297
            14       H                   0.146     -0.067      0.212   -1.03351    2.98620   -1.08805      0.266
            15       H                  -0.168     -0.115      0.124   -3.28492    1.40237   -0.74302      0.238



       FINAL  POINT  AND  DERIVATIVES

   PARAMETER     ATOM    TYPE            VALUE        GRADIENT
      1          1  C    CARTESIAN X     3.043579      0.108659  KCAL/ANGSTROM
      2          1  C    CARTESIAN Y    -1.982864     -0.131016  KCAL/ANGSTROM
      3          1  C    CARTESIAN Z     0.877657      0.141654  KCAL/ANGSTROM
      4          2  C    CARTESIAN X     1.929465      0.289864  KCAL/ANGSTROM
      5          2  C    CARTESIAN Y    -1.173827     -0.206703  KCAL/ANGSTROM
      6          2  C    CARTESIAN Z     0.598665     -0.009438  KCAL/ANGSTROM
      7          3  C    CARTESIAN X     0.890712      0.107615  KCAL/ANGSTROM
      8          3  C    CARTESIAN Y    -0.440621      0.235342  KCAL/ANGSTROM
      9          3  C    CARTESIAN Z     0.332615      0.238040  KCAL/ANGSTROM
     10          4  C    CARTESIAN X    -0.183532      0.193756  KCAL/ANGSTROM
     11          4  C    CARTESIAN Y     0.351239      0.044513  KCAL/ANGSTROM
     12          4  C    CARTESIAN Z     0.055253     -0.240477  KCAL/ANGSTROM
     13          5  O    CARTESIAN X    -0.025198      0.102902  KCAL/ANGSTROM
     14          5  O    CARTESIAN Y     1.653259      0.053246  KCAL/ANGSTROM
     15          5  O    CARTESIAN Z     0.122088      0.039520  KCAL/ANGSTROM
     16          6  C    CARTESIAN X    -1.291284     -0.045003  KCAL/ANGSTROM
     17          6  C    CARTESIAN Y     2.339527      0.120887  KCAL/ANGSTROM
     18          6  C    CARTESIAN Z    -0.221483     -0.051086  KCAL/ANGSTROM
     19          7  C    CARTESIAN X    -2.253757      0.060844  KCAL/ANGSTROM
     20          7  C    CARTESIAN Y     1.267487      0.293671  KCAL/ANGSTROM
     21          7  C    CARTESIAN Z    -0.495193      0.012881  KCAL/ANGSTROM
     22          8  C    CARTESIAN X    -1.584050     -0.284558  KCAL/ANGSTROM
     23          8  C    CARTESIAN Y    -0.049533      0.233648  KCAL/ANGSTROM
     24          8  C    CARTESIAN Z    -0.345586      0.105758  KCAL/ANGSTROM
     25          9  C    CARTESIAN X    -2.243559     -0.144224  KCAL/ANGSTROM
     26          9  C    CARTESIAN Y    -0.939462     -0.027652  KCAL/ANGSTROM
     27          9  C    CARTESIAN Z     0.701589     -0.060602  KCAL/ANGSTROM
     28         10  H    CARTESIAN X     2.785887     -0.235823  KCAL/ANGSTROM
     29         10  H    CARTESIAN Y    -3.058736     -0.128793  KCAL/ANGSTROM
     30         10  H    CARTESIAN Z     1.031952     -0.126510  KCAL/ANGSTROM
     31         11  H    CARTESIAN X     3.804185     -0.049302  KCAL/ANGSTROM
     32         11  H    CARTESIAN Y    -1.967811      0.094373  KCAL/ANGSTROM
     33         11  H    CARTESIAN Z     0.054734     -0.095963  KCAL/ANGSTROM
     34         12  H    CARTESIAN X     3.603033      0.152148  KCAL/ANGSTROM
     35         12  H    CARTESIAN Y    -1.658646      0.159501  KCAL/ANGSTROM
     36         12  H    CARTESIAN Z     1.791685      0.089681  KCAL/ANGSTROM
     37         13  H    CARTESIAN X    -1.517843     -0.026948  KCAL/ANGSTROM
     38         13  H    CARTESIAN Y     2.972154     -0.096367  KCAL/ANGSTROM
     39         13  H    CARTESIAN Z     0.663471     -0.281869  KCAL/ANGSTROM
     40         14  H    CARTESIAN X    -1.033511      0.146290  KCAL/ANGSTROM
     41         14  H    CARTESIAN Y     2.986196     -0.066728  KCAL/ANGSTROM
     42         14  H    CARTESIAN Z    -1.088047      0.211532  KCAL/ANGSTROM
     43         15  H    CARTESIAN X    -3.284916     -0.168481  KCAL/ANGSTROM
     44         15  H    CARTESIAN Y     1.402367     -0.114584  KCAL/ANGSTROM
     45         15  H    CARTESIAN Z    -0.743017      0.123579  KCAL/ANGSTROM
     46         16  H    CARTESIAN X    -1.562209     -0.112836  KCAL/ANGSTROM
     47         16  H    CARTESIAN Y    -0.603258     -0.206684  KCAL/ANGSTROM
     48         16  H    CARTESIAN Z    -1.332647      0.021178  KCAL/ANGSTROM
     49         17  H    CARTESIAN X    -2.357376     -0.106852  KCAL/ANGSTROM
     50         17  H    CARTESIAN Y    -0.438314     -0.180001  KCAL/ANGSTROM
     51         17  H    CARTESIAN Z     1.672909     -0.307416  KCAL/ANGSTROM
     52         18  H    CARTESIAN X    -3.258330      0.000686  KCAL/ANGSTROM
     53         18  H    CARTESIAN Y    -1.237300     -0.041686  KCAL/ANGSTROM
     54         18  H    CARTESIAN Z     0.385046      0.086523  KCAL/ANGSTROM
     55         19  H    CARTESIAN X    -1.681944      0.011260  KCAL/ANGSTROM
     56         19  H    CARTESIAN Y    -1.868990     -0.034969  KCAL/ANGSTROM
     57         19  H    CARTESIAN Z     0.870193      0.103012  KCAL/ANGSTROM




   ATOM   CHEMICAL          X               Y               Z
  NUMBER   SYMBOL      (ANGSTROMS)     (ANGSTROMS)     (ANGSTROMS)

     1       C          3.04357928  *  -1.98286411  *   0.87765696  *
     2       C          1.92946530  *  -1.17382653  *   0.59866517  *
     3       C          0.89071214  *  -0.44062113  *   0.33261475  *
     4       C         -0.18353168  *   0.35123940  *   0.05525262  *
     5       O         -0.02519800  *   1.65325927  *   0.12208769  *
     6       C         -1.29128409  *   2.33952714  *  -0.22148304  *
     7       C         -2.25375708  *   1.26748726  *  -0.49519251  *
     8       C         -1.58404951  *  -0.04953271  *  -0.34558582  *
     9       C         -2.24355868  *  -0.93946227  *   0.70158858  *
    10       H          2.78588721  *  -3.05873585  *   1.03195216  *
    11       H          3.80418478  *  -1.96781140  *   0.05473390  *
    12       H          3.60303336  *  -1.65864608  *   1.79168473  *
    13       H         -1.51784327  *   2.97215381  *   0.66347088  *
    14       H         -1.03351082  *   2.98619558  *  -1.08804660  *
    15       H         -3.28491607  *   1.40236733  *  -0.74301690  *
    16       H         -1.56220931  *  -0.60325814  *  -1.33264715  *
    17       H         -2.35737629  *  -0.43831448  *   1.67290935  *
    18       H         -3.25832957  *  -1.23730042  *   0.38504562  *
    19       H         -1.68194372  *  -1.86899010  *   0.87019262  *

                             CARTESIAN COORDINATES

   1    C        3.043579285    -1.982864108     0.877656960
   2    C        1.929465301    -1.173826526     0.598665168
   3    C        0.890712143    -0.440621129     0.332614748
   4    C       -0.183531677     0.351239396     0.055252622
   5    O       -0.025197998     1.653259268     0.122087689
   6    C       -1.291284092     2.339527136    -0.221483044
   7    C       -2.253757080     1.267487262    -0.495192514
   8    C       -1.584049510    -0.049532713    -0.345585817
   9    C       -2.243558678    -0.939462269     0.701588575
  10    H        2.785887208    -3.058735854     1.031952155
  11    H        3.804184778    -1.967811397     0.054733897
  12    H        3.603033357    -1.658646075     1.791684729
  13    H       -1.517843272     2.972153807     0.663470883
  14    H       -1.033510821     2.986195576    -1.088046601
  15    H       -3.284916069     1.402367332    -0.743016905
  16    H       -1.562209307    -0.603258143    -1.332647151
  17    H       -2.357376288    -0.438314480     1.672909354
  18    H       -3.258329575    -1.237300425     0.385045619
  19    H       -1.681943718    -1.868990100     0.870192624


           Empirical Formula: C8 H10 O  =    19 atoms



      MOLECULAR POINT GROUP   :   C1  


          ALPHA EIGENVALUES  
 -37.38528 -33.24350 -32.25164 -31.37719 -29.23075 -27.85085 -25.79533 -24.70168
 -22.76828 -21.38818 -20.75184 -20.12130 -19.37833 -19.27546 -19.02854 -18.87267
 -18.15565 -17.91933 -17.65199 -16.78042 -16.50006 -15.30528 -15.14456 -13.53545
  -5.85063  -4.38487  -3.10423  -3.07186  -1.95993  -1.30459  -0.96290  -0.37310
  -0.25370  -0.19670   0.08712   0.77996   0.85306   0.86735   0.91518   1.02325
   1.27961   1.79265   1.82351   2.00783   2.05906   2.94323


           BETA EIGENVALUES 
 -37.35189 -33.17046 -32.24368 -31.30912 -29.18039 -27.83473 -25.67946 -24.53913
 -22.70487 -21.24564 -20.70270 -20.06355 -19.35151 -19.25649 -18.92702 -18.82041
 -17.98927 -17.83102 -17.40473 -16.73865 -16.41127 -15.28246 -15.14057  -5.84447
  -4.38793  -3.94177  -3.11287  -3.06900  -1.95860  -1.21373  -0.93432  -0.27887
  -0.10262  -0.01270   0.25174   0.77966   0.85311   0.91540   0.98023   1.08948
   1.34713   1.80060   1.82855   2.05894   2.21300   2.94633


              NET ATOMIC CHARGES AND DIPOLE CONTRIBUTIONS

  ATOM NO.   TYPE          CHARGE      No. of ELECS.   s-Pop       p-Pop       
    1          C          -0.477756        4.4778     1.04341     3.43435
    2          C           0.385148        3.6149     1.15677     2.45808
    3          C          -0.419439        4.4194     1.05228     3.36716
    4          C           0.512331        3.4877     1.14043     2.34724
    5          O          -0.178680        6.1787     1.87632     4.30236
    6          C          -0.067652        4.0677     1.11277     2.95488
    7          C          -0.210453        4.2105     1.12424     3.08621
    8          C          -0.162800        4.1628     1.06862     3.09418
    9          C          -0.429174        4.4292     1.05289     3.37628
   10          H           0.227280        0.7727     0.77272
   11          H           0.237436        0.7626     0.76256
   12          H           0.234415        0.7656     0.76559
   13          H           0.198417        0.8016     0.80158
   14          H           0.198865        0.8011     0.80114
   15          H           0.202690        0.7973     0.79731
   16          H           0.218584        0.7814     0.78142
   17          H           0.172369        0.8276     0.82763
   18          H           0.189771        0.8102     0.81023
   19          H           0.168649        0.8314     0.83135
 DIPOLE           X         Y         Z       TOTAL
 POINT-CHG.     1.796    -1.999     0.051     2.688
 HYBRID         0.483     0.313     0.093     0.583
 SUM            2.279    -1.686     0.144     2.838


          ATOMIC ORBITAL ELECTRON POPULATIONS

     Atom    s        px        py        pz   
    1  C   1.04341   1.06868   1.14742   1.21826
    2  C   1.15677   0.89264   0.88726   0.67819
    3  C   1.05228   1.04561   1.10612   1.21543
    4  C   1.14043   0.93777   0.81055   0.59893
    5  O   1.87632   1.41475   1.24083   1.64678
    6  C   1.11277   0.80136   0.99769   1.15583
    7  C   1.12424   1.08475   0.94198   1.05949
    8  C   1.06862   0.92881   1.04989   1.11548
    9  C   1.05289   1.16942   1.11518   1.09168
   10  H   0.77272
   11  H   0.76256
   12  H   0.76559
   13  H   0.80158
   14  H   0.80114
   15  H   0.79731
   16  H   0.78142
   17  H   0.82763
   18  H   0.81023
   19  H   0.83135


                    (SZ)    =    0.500000
                    (S**2)  =    0.753593


          ATOMIC ORBITAL SPIN POPULATIONS

    Atom   Total    s     px     py     pz   
         Atomic
    1  C  0.0000  0.000  0.000  0.000 -0.000
    2  C -0.0019 -0.000 -0.000 -0.000 -0.001
    3  C  0.0007 -0.000  0.000  0.000  0.000
    4  C  0.0000  0.000  0.001 -0.000 -0.001
    5  O  0.0020 -0.000  0.001  0.000  0.001
    6  C -0.0425 -0.007 -0.012 -0.018 -0.005
    7  C  1.0074  0.026  0.082  0.034  0.865
    8  C -0.0447 -0.006 -0.008 -0.024 -0.006
    9  C  0.0285  0.005  0.003  0.010  0.010
   10  H -0.0000 -0.000
   11  H -0.0001 -0.000
   12  H -0.0001 -0.000
   13  H  0.0275  0.027
   14  H  0.0278  0.028
   15  H -0.0269 -0.027
   16  H  0.0246  0.025
   17  H -0.0011 -0.001
   18  H -0.0008 -0.001
   19  H -0.0004 -0.000

 **********************
 *                    *
 * JOB ENDED NORMALLY *
 *                    *
 **********************



 TOTAL JOB TIME:             2.62 SECONDS

 == MOPAC DONE ==
