 *******************************************************************************
 **                                                                           **
 **                              MOPAC v23.2                                  **
 **                                                                           **
 *******************************************************************************
 **          Digital Object Identifier (DOI): 10.5281/zenodo.6511958          **
 **    Visit the DOI location for information on how to cite this program.    **
 *******************************************************************************

                              PM7 CALCULATION RESULTS

 *******************************************************************************
 *  CALCULATION DONE: (MAX THREADS = 40)             Fri Sep 19 21:32:41 2025  *
 *  PM7        - The PM7 Hamiltonian to be used
 *
 *
 *
 *                 CHARGE ON SYSTEM = +1
 *
 *
 *
 *  EPS=37.5   - USE ANDREAS KLAMT'S COSMO IMPLICIT SOLVATION MODEL
 *  1SCF       - DO 1 SCF AND THEN STOP 
 *  T=         - A TIME OF 172800.0 SECONDS REQUESTED
 *  DUMP=N     - RESTART FILE WRITTEN EVERY 7200.0 SECONDS REQUESTED
 *  RELSCF     - DEFAULT SCF CRITERION MULTIPLIED BY 0.0001
 *              (DEFAULT SCF CRITERION = 0.00010)
 *  GRADIENTS  - ALL GRADIENTS TO BE PRINTED
 *  DISP       - PRINT DISPERSION AND HYDROGEN BOND ENERGIES
 *******************************************************************************
PM7 1SCF GRADIENTS EPS=37.5 DISP RELSCF=0.0001 CHARGE=1
 Title: ASE calculation

   ATOM   CHEMICAL          X               Y               Z
  NUMBER   SYMBOL      (ANGSTROMS)     (ANGSTROMS)     (ANGSTROMS)

     1       O         -1.24180545  *   1.24694356  *   1.80381586  *
     2       C         -0.78194227  *   0.30973655  *   0.93389273  *
     3       C         -1.58840131  *  -1.02429745  *   1.11393931  *
     4       O         -1.39230874  *  -1.73256838  *  -0.06783159  *
     5       C         -0.57334287  *  -0.87625864  *  -0.98069933  *
     6       C         -1.09112384  *   0.51543244  *  -0.59439924  *
     7       C          0.80690032  *  -0.99356224  *  -0.32300542  *
     8       C          1.60920571  *   0.27766527  *  -0.14288929  *
     9       C          0.68534395  *  -0.14708796  *   0.96559269  *
    10       H         -0.56850091  *   1.95611786  *   1.99098991  *
    11       H         -1.30604943  *  -1.69164922  *   1.96739595  *
    12       H         -2.69339716  *  -0.85898401  *   1.27181227  *
    13       H         -0.71689527  *  -1.28404680  *  -1.99098991  *
    14       H         -2.15224676  *   0.70820740  *  -0.82190974  *
    15       H         -0.55768575  *   1.36120842  *  -1.05884656  *
    16       H          1.30911406  *  -1.95611786  *  -0.40269777  *
    17       H          2.69339716  *   0.18231820  *   0.01093632  *
    18       H          1.42957609  *   1.16385700  *  -0.75086906  *
    19       H          1.08633701  *  -0.42883487  *   1.93798237  *



          CARTESIAN COORDINATES 

    NO.       ATOM           X           Y           Z

     1         O         -1.2418      1.2469      1.8038
     2         C         -0.7819      0.3097      0.9339
     3         C         -1.5884     -1.0243      1.1139
     4         O         -1.3923     -1.7326     -0.0678
     5         C         -0.5733     -0.8763     -0.9807
     6         C         -1.0911      0.5154     -0.5944
     7         C          0.8069     -0.9936     -0.3230
     8         C          1.6092      0.2777     -0.1429
     9         C          0.6853     -0.1471      0.9656
    10         H         -0.5685      1.9561      1.9910
    11         H         -1.3060     -1.6916      1.9674
    12         H         -2.6934     -0.8590      1.2718
    13         H         -0.7169     -1.2840     -1.9910
    14         H         -2.1522      0.7082     -0.8219
    15         H         -0.5577      1.3612     -1.0588
    16         H          1.3091     -1.9561     -0.4027
    17         H          2.6934      0.1823      0.0109
    18         H          1.4296      1.1639     -0.7509
    19         H          1.0863     -0.4288      1.9380

 General Reference for PM7:
 "Optimization of Parameters for Semiempirical Methods VI: More Modifications to the 
 NDDO Approximations and Re-optimization of Parameters", J. J. P. Stewart, J. Mol. Mod., 1:32, 19 (2013)
 https://link.springer.com/article/10.1007/s00894-012-1667-x

           Empirical Formula: C7 H10 O2  =    19 atoms



      MOLECULAR POINT GROUP   :   C1  


          UHF CALCULATION, NO. OF ALPHA ELECTRONS =   25
                           NO. OF BETA  ELECTRONS =   24
  SCF CRITERION =    0.1000E-07

 -------------------------------------------------------------------------------
 PM7 1SCF GRADIENTS EPS=37.5 DISP RELSCF=0.0001 CHARGE=1
 Title: ASE calculation



     1SCF WAS SPECIFIED, SO BFGS WAS NOT USED                 
     SCF FIELD WAS ACHIEVED                                   


                              PM7 CALCULATION
                                                       MOPAC v23.2 Linux
                                                       Fri Sep 19 21:32:43 2025




          FINAL HEAT OF FORMATION =        112.11535 KCAL/MOL =     469.09062 KJ/MOL

          TOTAL ENERGY            =     -36368.86351 KCAL/MOL = ELECTRONIC ENERGY + CORE-CORE REPULSION + SOLVATION ENERGY
          ENERGY OF ATOMS         =      36482.50324 KCAL/MOL
                              SUM =        113.63973 KCAL/MOL
          DISPERSION ENERGY       =         -1.52438 KCAL/MOL
                              SUM =        112.11535 KCAL/MOL = FINAL HEAT OF FORMATION

          VAN DER WAALS AREA      =        150.30 SQUARE ANGSTROMS


          TOTAL ENERGY            =      -1577.10319 EV
          ELECTRONIC ENERGY       =      -2588.08909 EV 
          CORE-CORE REPULSION     =       1010.98590 EV

          DIELECTRIC ENERGY       =         -2.46275 EV
          COSMO AREA              =        150.30 SQUARE ANGSTROMS
          COSMO VOLUME            =        151.16 CUBIC ANGSTROMS

          GRADIENT NORM           =         15.91336          =       3.65078 PER ATOM
          IONIZATION POTENTIAL    =         11.447722 EV
          ALPHA SOMO LUMO (EV)    =        -11.462 -0.751
          BETA  SOMO LUMO (EV)    =        -11.448 -3.680
          NO. OF ALPHA ELECTRONS  =         25
          NO. OF BETA  ELECTRONS  =         24
          MOLECULAR WEIGHT        =        126.1548         POINT GROUP:  C1  

          MOLECULAR DIMENSIONS (Angstroms)

            Atom       Atom       Distance
            H    17    H    12     5.62954
            H    10    H    13     5.13363
            H    15    H    11     3.88400


          SCF CALCULATIONS        =          2

          WALL-CLOCK TIME         =      1.766 SECONDS
          COMPUTATION TIME        =      0.670 SECONDS

          LARGEST ATOMIC GRADIENTS

          Atom     Label                     Cartesian Gradients           Cartesian Coordinates       |Gradient|
                                           X          Y          Z        X          Y          Z

             2       C                   1.409      8.647      5.073   -0.78194    0.30974    0.93389     10.124
             3       C                  -3.977     -4.753      3.421   -1.58840   -1.02430    1.11394      7.079
             1       O                   0.501     -4.241     -2.758   -1.24181    1.24694    1.80382      5.084
             5       C                   0.280      0.747     -3.976   -0.57334   -0.87626   -0.98070      4.055
             6       C                  -1.389     -2.702     -1.332   -1.09112    0.51543   -0.59440      3.317
             7       C                  -1.155     -2.760      0.847    0.80690   -0.99356   -0.32301      3.110
            12       H                   0.596      2.727      0.564   -2.69340   -0.85898    1.27181      2.847
             8       C                  -2.104      1.033      0.741    1.60921    0.27767   -0.14289      2.458
            17       H                   1.953     -0.021     -0.276    2.69340    0.18232    0.01094      1.973
             4       O                   1.577      0.223     -0.857   -1.39231   -1.73257   -0.06783      1.808



       FINAL  POINT  AND  DERIVATIVES

   PARAMETER     ATOM    TYPE            VALUE        GRADIENT
      1          1  O    CARTESIAN X    -1.241805      0.501271  KCAL/ANGSTROM
      2          1  O    CARTESIAN Y     1.246944     -4.241063  KCAL/ANGSTROM
      3          1  O    CARTESIAN Z     1.803816     -2.758128  KCAL/ANGSTROM
      4          2  C    CARTESIAN X    -0.781942      1.408587  KCAL/ANGSTROM
      5          2  C    CARTESIAN Y     0.309737      8.647198  KCAL/ANGSTROM
      6          2  C    CARTESIAN Z     0.933893      5.072585  KCAL/ANGSTROM
      7          3  C    CARTESIAN X    -1.588401     -3.977439  KCAL/ANGSTROM
      8          3  C    CARTESIAN Y    -1.024297     -4.752985  KCAL/ANGSTROM
      9          3  C    CARTESIAN Z     1.113939      3.420778  KCAL/ANGSTROM
     10          4  O    CARTESIAN X    -1.392309      1.576500  KCAL/ANGSTROM
     11          4  O    CARTESIAN Y    -1.732568      0.223382  KCAL/ANGSTROM
     12          4  O    CARTESIAN Z    -0.067832     -0.857334  KCAL/ANGSTROM
     13          5  C    CARTESIAN X    -0.573343      0.280193  KCAL/ANGSTROM
     14          5  C    CARTESIAN Y    -0.876259      0.747480  KCAL/ANGSTROM
     15          5  C    CARTESIAN Z    -0.980699     -3.975743  KCAL/ANGSTROM
     16          6  C    CARTESIAN X    -1.091124     -1.389419  KCAL/ANGSTROM
     17          6  C    CARTESIAN Y     0.515432     -2.701623  KCAL/ANGSTROM
     18          6  C    CARTESIAN Z    -0.594399     -1.331937  KCAL/ANGSTROM
     19          7  C    CARTESIAN X     0.806900     -1.154989  KCAL/ANGSTROM
     20          7  C    CARTESIAN Y    -0.993562     -2.760494  KCAL/ANGSTROM
     21          7  C    CARTESIAN Z    -0.323005      0.846792  KCAL/ANGSTROM
     22          8  C    CARTESIAN X     1.609206     -2.103511  KCAL/ANGSTROM
     23          8  C    CARTESIAN Y     0.277665      1.033307  KCAL/ANGSTROM
     24          8  C    CARTESIAN Z    -0.142889      0.740840  KCAL/ANGSTROM
     25          9  C    CARTESIAN X     0.685344     -0.319719  KCAL/ANGSTROM
     26          9  C    CARTESIAN Y    -0.147088     -1.589457  KCAL/ANGSTROM
     27          9  C    CARTESIAN Z     0.965593     -0.736610  KCAL/ANGSTROM
     28         10  H    CARTESIAN X    -0.568501     -1.404892  KCAL/ANGSTROM
     29         10  H    CARTESIAN Y     1.956118     -0.704855  KCAL/ANGSTROM
     30         10  H    CARTESIAN Z     1.990990      0.423486  KCAL/ANGSTROM
     31         11  H    CARTESIAN X    -1.306049      0.696603  KCAL/ANGSTROM
     32         11  H    CARTESIAN Y    -1.691649      1.103047  KCAL/ANGSTROM
     33         11  H    CARTESIAN Z     1.967396     -0.031850  KCAL/ANGSTROM
     34         12  H    CARTESIAN X    -2.693397      0.596007  KCAL/ANGSTROM
     35         12  H    CARTESIAN Y    -0.858984      2.726576  KCAL/ANGSTROM
     36         12  H    CARTESIAN Z     1.271812      0.564446  KCAL/ANGSTROM
     37         13  H    CARTESIAN X    -0.716895      0.626010  KCAL/ANGSTROM
     38         13  H    CARTESIAN Y    -1.284047     -0.373155  KCAL/ANGSTROM
     39         13  H    CARTESIAN Z    -1.990990      0.026731  KCAL/ANGSTROM
     40         14  H    CARTESIAN X    -2.152247     -0.204190  KCAL/ANGSTROM
     41         14  H    CARTESIAN Y     0.708207      1.608905  KCAL/ANGSTROM
     42         14  H    CARTESIAN Z    -0.821910     -0.322643  KCAL/ANGSTROM
     43         15  H    CARTESIAN X    -0.557686     -0.469085  KCAL/ANGSTROM
     44         15  H    CARTESIAN Y     1.361208      0.662607  KCAL/ANGSTROM
     45         15  H    CARTESIAN Z    -1.058847     -0.157322  KCAL/ANGSTROM
     46         16  H    CARTESIAN X     1.309114      1.196305  KCAL/ANGSTROM
     47         16  H    CARTESIAN Y    -1.956118     -0.045142  KCAL/ANGSTROM
     48         16  H    CARTESIAN Z    -0.402698     -0.682543  KCAL/ANGSTROM
     49         17  H    CARTESIAN X     2.693397      1.953464  KCAL/ANGSTROM
     50         17  H    CARTESIAN Y     0.182318     -0.020511  KCAL/ANGSTROM
     51         17  H    CARTESIAN Z     0.010936     -0.275537  KCAL/ANGSTROM
     52         18  H    CARTESIAN X     1.429576      1.226034  KCAL/ANGSTROM
     53         18  H    CARTESIAN Y     1.163857     -0.014832  KCAL/ANGSTROM
     54         18  H    CARTESIAN Z    -0.750869     -0.401701  KCAL/ANGSTROM
     55         19  H    CARTESIAN X     1.086337      0.962265  KCAL/ANGSTROM
     56         19  H    CARTESIAN Y    -0.428835      0.451610  KCAL/ANGSTROM
     57         19  H    CARTESIAN Z     1.937982      0.435685  KCAL/ANGSTROM




   ATOM   CHEMICAL          X               Y               Z
  NUMBER   SYMBOL      (ANGSTROMS)     (ANGSTROMS)     (ANGSTROMS)

     1       O         -1.24180545  *   1.24694356  *   1.80381586  *
     2       C         -0.78194227  *   0.30973655  *   0.93389273  *
     3       C         -1.58840131  *  -1.02429745  *   1.11393931  *
     4       O         -1.39230874  *  -1.73256838  *  -0.06783159  *
     5       C         -0.57334287  *  -0.87625864  *  -0.98069933  *
     6       C         -1.09112384  *   0.51543244  *  -0.59439924  *
     7       C          0.80690032  *  -0.99356224  *  -0.32300542  *
     8       C          1.60920571  *   0.27766527  *  -0.14288929  *
     9       C          0.68534395  *  -0.14708796  *   0.96559269  *
    10       H         -0.56850091  *   1.95611786  *   1.99098991  *
    11       H         -1.30604943  *  -1.69164922  *   1.96739595  *
    12       H         -2.69339716  *  -0.85898401  *   1.27181227  *
    13       H         -0.71689527  *  -1.28404680  *  -1.99098991  *
    14       H         -2.15224676  *   0.70820740  *  -0.82190974  *
    15       H         -0.55768575  *   1.36120842  *  -1.05884656  *
    16       H          1.30911406  *  -1.95611786  *  -0.40269777  *
    17       H          2.69339716  *   0.18231820  *   0.01093632  *
    18       H          1.42957609  *   1.16385700  *  -0.75086906  *
    19       H          1.08633701  *  -0.42883487  *   1.93798237  *

                             CARTESIAN COORDINATES

   1    O       -1.241805453     1.246943561     1.803815860
   2    C       -0.781942274     0.309736547     0.933892735
   3    C       -1.588401306    -1.024297446     1.113939313
   4    O       -1.392308743    -1.732568377    -0.067831590
   5    C       -0.573342870    -0.876258642    -0.980699334
   6    C       -1.091123843     0.515432437    -0.594399239
   7    C        0.806900322    -0.993562244    -0.323005424
   8    C        1.609205709     0.277665273    -0.142889289
   9    C        0.685343952    -0.147087962     0.965592687
  10    H       -0.568500912     1.956117858     1.990989907
  11    H       -1.306049434    -1.691649224     1.967395948
  12    H       -2.693397161    -0.858984007     1.271812274
  13    H       -0.716895268    -1.284046797    -1.990989907
  14    H       -2.152246758     0.708207397    -0.821909745
  15    H       -0.557685749     1.361208424    -1.058846561
  16    H        1.309114056    -1.956117858    -0.402697766
  17    H        2.693397161     0.182318205     0.010936323
  18    H        1.429576091     1.163856998    -0.750869061
  19    H        1.086337007    -0.428834874     1.937982375


           Empirical Formula: C7 H10 O2  =    19 atoms



      MOLECULAR POINT GROUP   :   C1  


          ALPHA EIGENVALUES  
 -35.91671 -32.72813 -30.50030 -27.79203 -26.58645 -23.47227 -22.79726 -20.64744
 -19.95662 -19.17694 -18.78290 -17.70785 -16.90333 -16.78486 -15.48766 -15.13643
 -14.88409 -14.49743 -13.87863 -13.50520 -12.99649 -12.95165 -12.22218 -12.07853
 -11.46233  -0.75143   0.95286   1.44443   2.01026   2.07210   2.13423   2.28561
   2.61802   2.95605   3.39890   3.55287   3.89326   4.56581   4.63404   4.75698
   5.08133   5.30924   5.38839   5.49722   5.61802   5.91843


           BETA EIGENVALUES 
 -34.39460 -31.08438 -30.47890 -27.28176 -26.39853 -23.27677 -22.59066 -20.54188
 -19.82657 -19.06053 -18.45723 -17.12435 -16.57452 -16.25108 -15.11501 -14.81833
 -14.60676 -14.42689 -13.58720 -13.27816 -12.94304 -12.36490 -12.02702 -11.44772
  -3.68029  -0.20608   1.04657   1.59947   2.08913   2.14467   2.24230   2.29877
   2.64899   2.96474   3.41502   3.55529   4.10244   4.62384   4.68954   4.77157
   5.08390   5.31077   5.39131   5.49750   5.61982   5.91975


              NET ATOMIC CHARGES AND DIPOLE CONTRIBUTIONS

  ATOM NO.   TYPE          CHARGE      No. of ELECS.   s-Pop       p-Pop       
    1          O          -0.557241        6.5572     1.83291     4.72433
    2          C           0.321474        3.6785     1.08325     2.59527
    3          C          -0.270065        4.2701     1.13820     3.13186
    4          O           0.259184        5.7408     1.91395     3.82687
    5          C           0.010525        3.9895     1.14019     2.84929
    6          C          -0.388905        4.3889     1.09118     3.29773
    7          C          -0.215624        4.2156     1.07135     3.14427
    8          C          -0.265053        4.2651     1.06137     3.20368
    9          C          -0.242169        4.2422     1.07757     3.16460
   10          H           0.391602        0.6084     0.60840
   11          H           0.266129        0.7339     0.73387
   12          H           0.281871        0.7181     0.71813
   13          H           0.218013        0.7820     0.78199
   14          H           0.201027        0.7990     0.79897
   15          H           0.210355        0.7896     0.78965
   16          H           0.203613        0.7964     0.79639
   17          H           0.189080        0.8109     0.81092
   18          H           0.185411        0.8146     0.81459
   19          H           0.200773        0.7992     0.79923
 DIPOLE           X         Y         Z       TOTAL
 POINT-CHG.    -0.871    -2.689    -1.197     3.070
 HYBRID        -0.173    -0.007     0.073     0.188
 SUM           -1.045    -2.696    -1.123     3.102


          ATOMIC ORBITAL ELECTRON POPULATIONS

     Atom    s        px        py        pz   
    1  O   1.83291   1.55157   1.49432   1.67844
    2  C   1.08325   0.90950   0.82509   0.86069
    3  C   1.13820   1.15310   1.05516   0.92360
    4  O   1.91395   1.24892   1.34742   1.23053
    5  C   1.14019   0.91974   0.93256   0.99699
    6  C   1.09118   1.20632   1.05084   1.04057
    7  C   1.07135   1.01522   1.08628   1.04277
    8  C   1.06137   1.09704   1.04711   1.05953
    9  C   1.07757   1.01933   1.11160   1.03367
   10  H   0.60840
   11  H   0.73387
   12  H   0.71813
   13  H   0.78199
   14  H   0.79897
   15  H   0.78965
   16  H   0.79639
   17  H   0.81092
   18  H   0.81459
   19  H   0.79923


                    (SZ)    =    0.500000
                    (S**2)  =    0.758741


          ATOMIC ORBITAL SPIN POPULATIONS

    Atom   Total    s     px     py     pz   
         Atomic
    1  O -0.0010 -0.000  0.000 -0.000 -0.001
    2  C  0.0004 -0.001  0.002  0.000 -0.001
    3  C  0.0114 -0.009  0.045 -0.001 -0.024
    4  O  0.8547  0.016  0.557  0.140  0.142
    5  C -0.0583 -0.005 -0.015 -0.018 -0.021
    6  C  0.0211  0.001  0.002  0.013  0.006
    7  C  0.0418  0.005  0.028  0.001  0.009
    8  C  0.0048 -0.000  0.000 -0.000  0.005
    9  C -0.0022 -0.000  0.003 -0.004 -0.001
   10  H -0.0001 -0.000
   11  H  0.0549  0.055
   12  H  0.0727  0.073
   13  H  0.0033  0.003
   14  H -0.0009 -0.001
   15  H -0.0021 -0.002
   16  H -0.0005 -0.001
   17  H  0.0003  0.000
   18  H -0.0000 -0.000
   19  H  0.0001  0.000

 **********************
 *                    *
 * JOB ENDED NORMALLY *
 *                    *
 **********************



 TOTAL JOB TIME:             2.13 SECONDS

 == MOPAC DONE ==
