 *******************************************************************************
 **                                                                           **
 **                              MOPAC v23.2                                  **
 **                                                                           **
 *******************************************************************************
 **          Digital Object Identifier (DOI): 10.5281/zenodo.6511958          **
 **    Visit the DOI location for information on how to cite this program.    **
 *******************************************************************************

                              PM7 CALCULATION RESULTS

 *******************************************************************************
 *  CALCULATION DONE: (MAX THREADS = 40)             Fri Sep 19 21:36:54 2025  *
 *  PM7        - The PM7 Hamiltonian to be used
 *
 *
 *
 *                 CHARGE ON SYSTEM = +1
 *
 *
 *
 *  1SCF       - DO 1 SCF AND THEN STOP 
 *  T=         - A TIME OF 172800.0 SECONDS REQUESTED
 *  DUMP=N     - RESTART FILE WRITTEN EVERY 7200.0 SECONDS REQUESTED
 *  RELSCF     - DEFAULT SCF CRITERION MULTIPLIED BY 0.0001
 *              (DEFAULT SCF CRITERION = 0.00010)
 *  GRADIENTS  - ALL GRADIENTS TO BE PRINTED
 *  DISP       - PRINT DISPERSION AND HYDROGEN BOND ENERGIES
 *******************************************************************************
PM7 1SCF GRADIENTS DISP RELSCF=0.0001 CHARGE=1
 Title: ASE calculation

   ATOM   CHEMICAL          X               Y               Z
  NUMBER   SYMBOL      (ANGSTROMS)     (ANGSTROMS)     (ANGSTROMS)

     1       C          2.39797108  *  -0.82592537  *  -0.82697712  *
     2       O          1.00002119  *  -0.61374438  *  -1.03424246  *
     3       C          0.38776364  *   0.18749572  *  -0.10356119  *
     4       C          0.04570001  *   1.59984087  *  -0.72301105  *
     5       O          0.41364430  *   2.62012621  *  -1.14311365  *
     6       N         -1.44445910  *   1.17034569  *  -0.64298061  *
     7       C         -1.14407491  *  -0.09174911  *  -0.13487102  *
     8       C         -1.82216791  *  -1.42575937  *  -0.57647620  *
     9       C         -1.99699087  *  -0.95324285  *   0.81054321  *
    10       H          2.64050418  *  -1.52538073  *  -1.64611587  *
    11       H          2.95727576  *   0.10785583  *  -0.94931206  *
    12       H          2.59329591  *  -1.29689700  *   0.14118983  *
    13       H          0.87252622  *   0.24456781  *   0.88714453  *
    14       H         -2.32414779  *   1.59125090  *  -0.86250472  *
    15       H         -2.63914768  *  -1.38520374  *  -1.30375993  *
    16       H         -1.14542924  *  -2.25693256  *  -0.82105256  *
    17       H         -1.48077525  *  -1.44724596  *   1.64448182  *
    18       H         -2.96151901  *  -0.56398886  *   1.16020910  *



          CARTESIAN COORDINATES 

    NO.       ATOM           X           Y           Z

     1         C          2.3980     -0.8259     -0.8270
     2         O          1.0000     -0.6137     -1.0342
     3         C          0.3878      0.1875     -0.1036
     4         C          0.0457      1.5998     -0.7230
     5         O          0.4136      2.6201     -1.1431
     6         N         -1.4445      1.1703     -0.6430
     7         C         -1.1441     -0.0917     -0.1349
     8         C         -1.8222     -1.4258     -0.5765
     9         C         -1.9970     -0.9532      0.8105
    10         H          2.6405     -1.5254     -1.6461
    11         H          2.9573      0.1079     -0.9493
    12         H          2.5933     -1.2969      0.1412
    13         H          0.8725      0.2446      0.8871
    14         H         -2.3241      1.5913     -0.8625
    15         H         -2.6391     -1.3852     -1.3038
    16         H         -1.1454     -2.2569     -0.8211
    17         H         -1.4808     -1.4472      1.6445
    18         H         -2.9615     -0.5640      1.1602

 General Reference for PM7:
 "Optimization of Parameters for Semiempirical Methods VI: More Modifications to the 
 NDDO Approximations and Re-optimization of Parameters", J. J. P. Stewart, J. Mol. Mod., 1:32, 19 (2013)
 https://link.springer.com/article/10.1007/s00894-012-1667-x

           Empirical Formula: C6 H9 N O2  =    18 atoms



      MOLECULAR POINT GROUP   :   C1  


          UHF CALCULATION, NO. OF ALPHA ELECTRONS =   25
                           NO. OF BETA  ELECTRONS =   24
  SCF CRITERION =    0.1000E-07

 -------------------------------------------------------------------------------
 PM7 1SCF GRADIENTS DISP RELSCF=0.0001 CHARGE=1
 Title: ASE calculation



     1SCF WAS SPECIFIED, SO BFGS WAS NOT USED                 
     SCF FIELD WAS ACHIEVED                                   


                              PM7 CALCULATION
                                                       MOPAC v23.2 Linux
                                                       Fri Sep 19 21:36:56 2025




          FINAL HEAT OF FORMATION =        168.46074 KCAL/MOL =     704.83974 KJ/MOL

          TOTAL ENERGY            =     -37468.68818 KCAL/MOL = ELECTRONIC ENERGY + CORE-CORE REPULSION
          ENERGY OF ATOMS         =      37638.97832 KCAL/MOL
                              SUM =        170.29014 KCAL/MOL
          DISPERSION ENERGY       =         -1.83984 KCAL/MOL
          MM CORR. FOR -CO-NH-    =          0.01044 KCAL/MOL
                              SUM =        168.46074 KCAL/MOL = FINAL HEAT OF FORMATION



          TOTAL ENERGY            =      -1624.79610 EV
          ELECTRONIC ENERGY       =      -7542.99182 EV 
          CORE-CORE REPULSION     =       5918.19572 EV
          COSMO AREA              =        164.17 SQUARE ANGSTROMS
          COSMO VOLUME            =        158.69 CUBIC ANGSTROMS

          GRADIENT NORM           =          1.24603          =       0.29369 PER ATOM
          IONIZATION POTENTIAL    =         14.941416 EV
          ALPHA SOMO LUMO (EV)    =        -14.983 -4.564
          BETA  SOMO LUMO (EV)    =        -14.941 -7.332
          NO. OF ALPHA ELECTRONS  =         25
          NO. OF BETA  ELECTRONS  =         24
          MOLECULAR WEIGHT        =        127.1426         POINT GROUP:  C1  

          MOLECULAR DIMENSIONS (Angstroms)

            Atom       Atom       Distance
            H    18    H    10     6.33896
            O     5    H    16     5.07056
            H    12    H    15     3.56702


          SCF CALCULATIONS        =          1

          WALL-CLOCK TIME         =      1.820 SECONDS
          COMPUTATION TIME        =      0.440 SECONDS

          LARGEST ATOMIC GRADIENTS

          Atom     Label                     Cartesian Gradients           Cartesian Coordinates       |Gradient|
                                           X          Y          Z        X          Y          Z

            16       H                  -0.124      0.099     -0.433   -1.14543   -2.25693   -0.82105      0.461
            13       H                   0.299      0.310     -0.110    0.87253    0.24457    0.88714      0.445
             6       N                  -0.042     -0.157      0.363   -1.44446    1.17035   -0.64298      0.398
            17       H                  -0.177      0.238     -0.261   -1.48078   -1.44725    1.64448      0.395
             7       C                   0.140     -0.300     -0.063   -1.14407   -0.09175   -0.13487      0.337
             5       O                  -0.284     -0.124     -0.121    0.41364    2.62013   -1.14311      0.333
            15       H                   0.287      0.011     -0.090   -2.63915   -1.38520   -1.30376      0.301
            18       H                  -0.158     -0.043      0.243   -2.96152   -0.56399    1.16021      0.293
            10       H                   0.128     -0.108      0.229    2.64050   -1.52538   -1.64612      0.284
             2       O                  -0.188      0.150      0.134    1.00002   -0.61374   -1.03424      0.276



       FINAL  POINT  AND  DERIVATIVES

   PARAMETER     ATOM    TYPE            VALUE        GRADIENT
      1          1  C    CARTESIAN X     2.397971      0.071180  KCAL/ANGSTROM
      2          1  C    CARTESIAN Y    -0.825925     -0.184590  KCAL/ANGSTROM
      3          1  C    CARTESIAN Z    -0.826977     -0.065203  KCAL/ANGSTROM
      4          2  O    CARTESIAN X     1.000021     -0.188472  KCAL/ANGSTROM
      5          2  O    CARTESIAN Y    -0.613744      0.149763  KCAL/ANGSTROM
      6          2  O    CARTESIAN Z    -1.034242      0.134392  KCAL/ANGSTROM
      7          3  C    CARTESIAN X     0.387764      0.077167  KCAL/ANGSTROM
      8          3  C    CARTESIAN Y     0.187496      0.049509  KCAL/ANGSTROM
      9          3  C    CARTESIAN Z    -0.103561      0.171175  KCAL/ANGSTROM
     10          4  C    CARTESIAN X     0.045700      0.080844  KCAL/ANGSTROM
     11          4  C    CARTESIAN Y     1.599841      0.021061  KCAL/ANGSTROM
     12          4  C    CARTESIAN Z    -0.723011     -0.126562  KCAL/ANGSTROM
     13          5  O    CARTESIAN X     0.413644     -0.284287  KCAL/ANGSTROM
     14          5  O    CARTESIAN Y     2.620126     -0.124151  KCAL/ANGSTROM
     15          5  O    CARTESIAN Z    -1.143114     -0.120926  KCAL/ANGSTROM
     16          6  N    CARTESIAN X    -1.444459     -0.042229  KCAL/ANGSTROM
     17          6  N    CARTESIAN Y     1.170346     -0.156642  KCAL/ANGSTROM
     18          6  N    CARTESIAN Z    -0.642981      0.363133  KCAL/ANGSTROM
     19          7  C    CARTESIAN X    -1.144075      0.140487  KCAL/ANGSTROM
     20          7  C    CARTESIAN Y    -0.091749     -0.299900  KCAL/ANGSTROM
     21          7  C    CARTESIAN Z    -0.134871     -0.063096  KCAL/ANGSTROM
     22          8  C    CARTESIAN X    -1.822168     -0.053636  KCAL/ANGSTROM
     23          8  C    CARTESIAN Y    -1.425759     -0.160583  KCAL/ANGSTROM
     24          8  C    CARTESIAN Z    -0.576476      0.087390  KCAL/ANGSTROM
     25          9  C    CARTESIAN X    -1.996991     -0.229047  KCAL/ANGSTROM
     26          9  C    CARTESIAN Y    -0.953243      0.103034  KCAL/ANGSTROM
     27          9  C    CARTESIAN Z     0.810543      0.024745  KCAL/ANGSTROM
     28         10  H    CARTESIAN X     2.640504      0.127969  KCAL/ANGSTROM
     29         10  H    CARTESIAN Y    -1.525381     -0.108087  KCAL/ANGSTROM
     30         10  H    CARTESIAN Z    -1.646116      0.229123  KCAL/ANGSTROM
     31         11  H    CARTESIAN X     2.957276      0.062821  KCAL/ANGSTROM
     32         11  H    CARTESIAN Y     0.107856     -0.057358  KCAL/ANGSTROM
     33         11  H    CARTESIAN Z    -0.949312     -0.039326  KCAL/ANGSTROM
     34         12  H    CARTESIAN X     2.593296      0.075359  KCAL/ANGSTROM
     35         12  H    CARTESIAN Y    -1.296897      0.065246  KCAL/ANGSTROM
     36         12  H    CARTESIAN Z     0.141190     -0.109974  KCAL/ANGSTROM
     37         13  H    CARTESIAN X     0.872526      0.299043  KCAL/ANGSTROM
     38         13  H    CARTESIAN Y     0.244568      0.310104  KCAL/ANGSTROM
     39         13  H    CARTESIAN Z     0.887145     -0.109698  KCAL/ANGSTROM
     40         14  H    CARTESIAN X    -2.324148      0.035203  KCAL/ANGSTROM
     41         14  H    CARTESIAN Y     1.591251      0.087451  KCAL/ANGSTROM
     42         14  H    CARTESIAN Z    -0.862505      0.164740  KCAL/ANGSTROM
     43         15  H    CARTESIAN X    -2.639148      0.286642  KCAL/ANGSTROM
     44         15  H    CARTESIAN Y    -1.385204      0.011036  KCAL/ANGSTROM
     45         15  H    CARTESIAN Z    -1.303760     -0.089530  KCAL/ANGSTROM
     46         16  H    CARTESIAN X    -1.145429     -0.124110  KCAL/ANGSTROM
     47         16  H    CARTESIAN Y    -2.256933      0.098884  KCAL/ANGSTROM
     48         16  H    CARTESIAN Z    -0.821053     -0.432730  KCAL/ANGSTROM
     49         17  H    CARTESIAN X    -1.480775     -0.176943  KCAL/ANGSTROM
     50         17  H    CARTESIAN Y    -1.447246      0.238107  KCAL/ANGSTROM
     51         17  H    CARTESIAN Z     1.644482     -0.260903  KCAL/ANGSTROM
     52         18  H    CARTESIAN X    -2.961519     -0.157989  KCAL/ANGSTROM
     53         18  H    CARTESIAN Y    -0.563989     -0.042887  KCAL/ANGSTROM
     54         18  H    CARTESIAN Z     1.160209      0.243247  KCAL/ANGSTROM




   ATOM   CHEMICAL          X               Y               Z
  NUMBER   SYMBOL      (ANGSTROMS)     (ANGSTROMS)     (ANGSTROMS)

     1       C          2.39797108  *  -0.82592537  *  -0.82697712  *
     2       O          1.00002119  *  -0.61374438  *  -1.03424246  *
     3       C          0.38776364  *   0.18749572  *  -0.10356119  *
     4       C          0.04570001  *   1.59984087  *  -0.72301105  *
     5       O          0.41364430  *   2.62012621  *  -1.14311365  *
     6       N         -1.44445910  *   1.17034569  *  -0.64298061  *
     7       C         -1.14407491  *  -0.09174911  *  -0.13487102  *
     8       C         -1.82216791  *  -1.42575937  *  -0.57647620  *
     9       C         -1.99699087  *  -0.95324285  *   0.81054321  *
    10       H          2.64050418  *  -1.52538073  *  -1.64611587  *
    11       H          2.95727576  *   0.10785583  *  -0.94931206  *
    12       H          2.59329591  *  -1.29689700  *   0.14118983  *
    13       H          0.87252622  *   0.24456781  *   0.88714453  *
    14       H         -2.32414779  *   1.59125090  *  -0.86250472  *
    15       H         -2.63914768  *  -1.38520374  *  -1.30375993  *
    16       H         -1.14542924  *  -2.25693256  *  -0.82105256  *
    17       H         -1.48077525  *  -1.44724596  *   1.64448182  *
    18       H         -2.96151901  *  -0.56398886  *   1.16020910  *

                             CARTESIAN COORDINATES

   1    C        2.397971084    -0.825925372    -0.826977121
   2    O        1.000021195    -0.613744383    -1.034242463
   3    C        0.387763644     0.187495718    -0.103561190
   4    C        0.045700007     1.599840872    -0.723011048
   5    O        0.413644303     2.620126210    -1.143113655
   6    N       -1.444459100     1.170345690    -0.642980605
   7    C       -1.144074910    -0.091749112    -0.134871025
   8    C       -1.822167915    -1.425759372    -0.576476195
   9    C       -1.996990871    -0.953242850     0.810543214
  10    H        2.640504179    -1.525380726    -1.646115867
  11    H        2.957275756     0.107855826    -0.949312058
  12    H        2.593295912    -1.296897004     0.141189829
  13    H        0.872526224     0.244567813     0.887144525
  14    H       -2.324147793     1.591250905    -0.862504724
  15    H       -2.639147677    -1.385203741    -1.303759930
  16    H       -1.145429244    -2.256932564    -0.821052556
  17    H       -1.480775255    -1.447245957     1.644481823
  18    H       -2.961519014    -0.563988862     1.160209095


           Empirical Formula: C6 H9 N O2  =    18 atoms



      MOLECULAR POINT GROUP   :   C1  


          ALPHA EIGENVALUES  
 -42.97719 -37.85252 -35.31225 -34.80124 -31.67316 -28.44139 -26.17389 -25.94090
 -25.29353 -22.97858 -22.32560 -22.23007 -20.95509 -20.32382 -20.20364 -19.64927
 -19.02968 -18.76623 -17.86191 -17.41023 -17.23116 -16.90701 -16.67691 -15.81933
 -14.98283  -4.56382  -4.17092  -3.45471  -3.30317  -2.64312  -2.29452  -2.09643
  -1.92020  -1.03866  -0.40971  -0.20165   0.27941   0.43114   0.60549   1.00906
   1.21396   1.34999   1.61972   1.63967   2.28140


           BETA EIGENVALUES 
 -41.56204 -37.73796 -35.15155 -34.70270 -31.41699 -28.42346 -26.04268 -25.74576
 -25.09871 -22.83343 -22.16513 -22.02276 -20.90767 -20.18200 -19.76237 -19.52474
 -18.81690 -17.78017 -17.52755 -17.37299 -17.16367 -16.73366 -16.46353 -14.94142
  -7.33175  -4.26423  -3.83912  -3.18325  -3.10093  -2.52732  -2.23028  -2.00411
  -1.62226  -0.91180  -0.38630  -0.19703   0.27506   0.45870   0.94990   1.04455
   1.22923   1.37671   1.61960   1.63927   2.28117


              NET ATOMIC CHARGES AND DIPOLE CONTRIBUTIONS

  ATOM NO.   TYPE          CHARGE      No. of ELECS.   s-Pop       p-Pop       
    1          C          -0.198254        4.1983     1.09617     3.10209
    2          O          -0.324098        6.3241     1.87515     4.44895
    3          C           0.105569        3.8944     1.12344     2.77099
    4          C           0.460690        3.5393     1.21427     2.32504
    5          O          -0.157072        6.1571     1.87037     4.28670
    6          N          -0.251715        5.2517     1.61251     3.63920
    7          C          -0.048885        4.0489     1.06181     2.98707
    8          C          -0.185559        4.1856     1.08239     3.10317
    9          C          -0.217486        4.2175     1.07445     3.14304
   10          H           0.183881        0.8161     0.81612
   11          H           0.152964        0.8470     0.84704
   12          H           0.147567        0.8524     0.85243
   13          H           0.187279        0.8127     0.81272
   14          H           0.336796        0.6632     0.66320
   15          H           0.195872        0.8041     0.80413
   16          H           0.208637        0.7914     0.79136
   17          H           0.203603        0.7964     0.79640
   18          H           0.200212        0.7998     0.79979
 DIPOLE           X         Y         Z       TOTAL
 POINT-CHG.    -1.754    -1.541     2.538     3.449
 HYBRID        -0.868     0.966    -0.658     1.456
 SUM           -2.622    -0.575     1.880     3.277


          ATOMIC ORBITAL ELECTRON POPULATIONS

     Atom    s        px        py        pz   
    1  C   1.09617   0.76982   1.15646   1.17581
    2  O   1.87515   1.31344   1.65008   1.48542
    3  C   1.12344   0.92355   0.84319   1.00425
    4  C   1.21427   0.71684   0.87066   0.73754
    5  O   1.87037   1.67112   1.27889   1.33670
    6  N   1.61251   1.27151   1.17233   1.19536
    7  C   1.06181   0.99170   0.85917   1.13621
    8  C   1.08239   1.11405   0.94439   1.04473
    9  C   1.07445   1.10894   1.01616   1.01794
   10  H   0.81612
   11  H   0.84704
   12  H   0.85243
   13  H   0.81272
   14  H   0.66320
   15  H   0.80413
   16  H   0.79136
   17  H   0.79640
   18  H   0.79979


                    (SZ)    =    0.500000
                    (S**2)  =    0.769018


          ATOMIC ORBITAL SPIN POPULATIONS

    Atom   Total    s     px     py     pz   
         Atomic
    1  C  0.0001  0.000  0.000 -0.000  0.000
    2  O -0.0051 -0.000 -0.000 -0.004 -0.001
    3  C -0.0062 -0.002  0.000 -0.004 -0.001
    4  C -0.0561  0.001 -0.026 -0.004 -0.027
    5  O  0.0335  0.001 -0.027  0.012  0.048
    6  N  0.8518  0.038  0.048  0.135  0.631
    7  C -0.0232 -0.010 -0.009 -0.027  0.022
    8  C  0.1442  0.006  0.036  0.097  0.005
    9  C  0.0954  0.005  0.027  0.052  0.010
   10  H -0.0002 -0.000
   11  H -0.0000 -0.000
   12  H -0.0000 -0.000
   13  H -0.0025 -0.003
   14  H -0.0276 -0.028
   15  H -0.0028 -0.003
   16  H -0.0009 -0.001
   17  H  0.0007  0.001
   18  H -0.0010 -0.001

 **********************
 *                    *
 * JOB ENDED NORMALLY *
 *                    *
 **********************



 TOTAL JOB TIME:             2.47 SECONDS

 == MOPAC DONE ==
