 *******************************************************************************
 **                                                                           **
 **                              MOPAC v23.2                                  **
 **                                                                           **
 *******************************************************************************
 **          Digital Object Identifier (DOI): 10.5281/zenodo.6511958          **
 **    Visit the DOI location for information on how to cite this program.    **
 *******************************************************************************

                              PM7 CALCULATION RESULTS

 *******************************************************************************
 *  CALCULATION DONE: (MAX THREADS = 40)             Fri Sep 19 21:30:51 2025  *
 *  PM7        - The PM7 Hamiltonian to be used
 *
 *
 *
 *                 CHARGE ON SYSTEM = +1
 *
 *
 *
 *  EPS=37.5   - USE ANDREAS KLAMT'S COSMO IMPLICIT SOLVATION MODEL
 *  1SCF       - DO 1 SCF AND THEN STOP 
 *  T=         - A TIME OF 172800.0 SECONDS REQUESTED
 *  DUMP=N     - RESTART FILE WRITTEN EVERY 7200.0 SECONDS REQUESTED
 *  RELSCF     - DEFAULT SCF CRITERION MULTIPLIED BY 0.0001
 *              (DEFAULT SCF CRITERION = 0.00010)
 *  GRADIENTS  - ALL GRADIENTS TO BE PRINTED
 *  DISP       - PRINT DISPERSION AND HYDROGEN BOND ENERGIES
 *******************************************************************************
PM7 1SCF GRADIENTS EPS=37.5 DISP RELSCF=0.0001 CHARGE=1
 Title: ASE calculation

   ATOM   CHEMICAL          X               Y               Z
  NUMBER   SYMBOL      (ANGSTROMS)     (ANGSTROMS)     (ANGSTROMS)

     1       C         -1.33420451  *  -0.82893944  *  -1.38974967  *
     2       N         -0.87286317  *  -0.35127919  *  -0.12084685  *
     3       C         -1.74934682  *   0.40835292  *   0.71841201  *
     4       C          0.42887214  *  -0.74920118  *   0.36531012  *
     5       C          0.32092022  *  -1.99233438  *   1.20955547  *
     6       C          1.64713483  *  -0.50702920  *  -0.50355811  *
     7       C          1.46204979  *   0.33229054  *   0.74160038  *
     8       C          1.14833292  *   1.72014206  *   0.61285414  *
     9       N          0.90721723  *   2.84712653  *   0.52675476  *
    10       H         -1.86115330  *  -1.81331467  *  -1.27402025  *
    11       H         -2.06215668  *  -0.13893497  *  -1.87564517  *
    12       H         -0.50568626  *  -1.00707576  *  -2.11281529  *
    13       H         -2.44131501  *   1.06627281  *   0.14223063  *
    14       H         -2.39609291  *  -0.26629034  *   1.33809243  *
    15       H         -1.20345536  *   1.05931604  *   1.44137511  *
    16       H         -0.09643649  *  -2.84712653  *   0.65314559  *
    17       H         -0.29299074  *  -1.84493641  *   2.11281529  *
    18       H          1.31229485  *  -2.33126910  *   1.56623237  *
    19       H          2.44131501  *  -1.26280862  *  -0.53699351  *
    20       H          1.56547845  *  -0.04341790  *  -1.49023108  *
    21       H          2.10866199  *   0.12315636  *   1.62575595  *



          CARTESIAN COORDINATES 

    NO.       ATOM           X           Y           Z

     1         C         -1.3342     -0.8289     -1.3897
     2         N         -0.8729     -0.3513     -0.1208
     3         C         -1.7493      0.4084      0.7184
     4         C          0.4289     -0.7492      0.3653
     5         C          0.3209     -1.9923      1.2096
     6         C          1.6471     -0.5070     -0.5036
     7         C          1.4620      0.3323      0.7416
     8         C          1.1483      1.7201      0.6129
     9         N          0.9072      2.8471      0.5268
    10         H         -1.8612     -1.8133     -1.2740
    11         H         -2.0622     -0.1389     -1.8756
    12         H         -0.5057     -1.0071     -2.1128
    13         H         -2.4413      1.0663      0.1422
    14         H         -2.3961     -0.2663      1.3381
    15         H         -1.2035      1.0593      1.4414
    16         H         -0.0964     -2.8471      0.6531
    17         H         -0.2930     -1.8449      2.1128
    18         H          1.3123     -2.3313      1.5662
    19         H          2.4413     -1.2628     -0.5370
    20         H          1.5655     -0.0434     -1.4902
    21         H          2.1087      0.1232      1.6258

 General Reference for PM7:
 "Optimization of Parameters for Semiempirical Methods VI: More Modifications to the 
 NDDO Approximations and Re-optimization of Parameters", J. J. P. Stewart, J. Mol. Mod., 1:32, 19 (2013)
 https://link.springer.com/article/10.1007/s00894-012-1667-x

           Empirical Formula: C7 H12 N2  =    21 atoms



      MOLECULAR POINT GROUP   :   C1  


          UHF CALCULATION, NO. OF ALPHA ELECTRONS =   25
                           NO. OF BETA  ELECTRONS =   24
  SCF CRITERION =    0.1000E-07

 -------------------------------------------------------------------------------
 PM7 1SCF GRADIENTS EPS=37.5 DISP RELSCF=0.0001 CHARGE=1
 Title: ASE calculation



     1SCF WAS SPECIFIED, SO BFGS WAS NOT USED                 
     SCF FIELD WAS ACHIEVED                                   


                              PM7 CALCULATION
                                                       MOPAC v23.2 Linux
                                                       Fri Sep 19 21:30:52 2025




          FINAL HEAT OF FORMATION =        161.66320 KCAL/MOL =     676.39882 KJ/MOL

          TOTAL ENERGY            =     -32001.20079 KCAL/MOL = ELECTRONIC ENERGY + CORE-CORE REPULSION + SOLVATION ENERGY
          ENERGY OF ATOMS         =      32165.36403 KCAL/MOL
                              SUM =        164.16324 KCAL/MOL
          DISPERSION ENERGY       =         -2.50004 KCAL/MOL
                              SUM =        161.66320 KCAL/MOL = FINAL HEAT OF FORMATION

          VAN DER WAALS AREA      =        173.06 SQUARE ANGSTROMS


          TOTAL ENERGY            =      -1387.70341 EV
          ELECTRONIC ENERGY       =      -2264.13284 EV 
          CORE-CORE REPULSION     =        876.42943 EV

          DIELECTRIC ENERGY       =         -2.61869 EV
          COSMO AREA              =        173.06 SQUARE ANGSTROMS
          COSMO VOLUME            =        179.76 CUBIC ANGSTROMS

          GRADIENT NORM           =         17.03633          =       3.71763 PER ATOM
          IONIZATION POTENTIAL    =         11.730191 EV
          ALPHA SOMO LUMO (EV)    =        -11.730 -0.266
          BETA  SOMO LUMO (EV)    =        -12.112 -2.207
          NO. OF ALPHA ELECTRONS  =         25
          NO. OF BETA  ELECTRONS  =         24
          MOLECULAR WEIGHT        =        124.1852         POINT GROUP:  C1  

          MOLECULAR DIMENSIONS (Angstroms)

            Atom       Atom       Distance
            H    16    N     9     5.78341
            H    21    H    11     5.37630
            H    19    H    14     4.65291


          SCF CALCULATIONS        =          2

          WALL-CLOCK TIME         =      1.008 SECONDS
          COMPUTATION TIME        =      0.632 SECONDS

          LARGEST ATOMIC GRADIENTS

          Atom     Label                     Cartesian Gradients           Cartesian Coordinates       |Gradient|
                                           X          Y          Z        X          Y          Z

             8       C                  -2.294      8.184     -0.828    1.14833    1.72014    0.61285      8.539
             9       N                   0.367     -6.984      0.612    0.90722    2.84713    0.52675      7.020
             3       C                  -6.309     -1.603      0.077   -1.74935    0.40835    0.71841      6.510
             2       N                   5.278     -1.202      2.814   -0.87286   -0.35128   -0.12085      6.100
             1       C                  -4.263     -1.656     -2.791   -1.33420   -0.82894   -1.38975      5.357
             7       C                   2.783     -2.743      0.299    1.46205    0.33229    0.74160      3.919
             5       C                  -3.328     -0.715     -0.792    0.32092   -1.99233    1.20956      3.494
            15       H                   1.801      2.279      0.223   -1.20346    1.05932    1.44138      2.913
             4       C                  -0.968      1.958      1.242    0.42887   -0.74920    0.36531      2.512
            13       H                   0.670      1.720      0.360   -2.44132    1.06627    0.14223      1.880



       FINAL  POINT  AND  DERIVATIVES

   PARAMETER     ATOM    TYPE            VALUE        GRADIENT
      1          1  C    CARTESIAN X    -1.334205     -4.262535  KCAL/ANGSTROM
      2          1  C    CARTESIAN Y    -0.828939     -1.655513  KCAL/ANGSTROM
      3          1  C    CARTESIAN Z    -1.389750     -2.791263  KCAL/ANGSTROM
      4          2  N    CARTESIAN X    -0.872863      5.277551  KCAL/ANGSTROM
      5          2  N    CARTESIAN Y    -0.351279     -1.202008  KCAL/ANGSTROM
      6          2  N    CARTESIAN Z    -0.120847      2.813618  KCAL/ANGSTROM
      7          3  C    CARTESIAN X    -1.749347     -6.308916  KCAL/ANGSTROM
      8          3  C    CARTESIAN Y     0.408353     -1.603175  KCAL/ANGSTROM
      9          3  C    CARTESIAN Z     0.718412      0.077257  KCAL/ANGSTROM
     10          4  C    CARTESIAN X     0.428872     -0.967595  KCAL/ANGSTROM
     11          4  C    CARTESIAN Y    -0.749201      1.957839  KCAL/ANGSTROM
     12          4  C    CARTESIAN Z     0.365310      1.242196  KCAL/ANGSTROM
     13          5  C    CARTESIAN X     0.320920     -3.327506  KCAL/ANGSTROM
     14          5  C    CARTESIAN Y    -1.992334     -0.714808  KCAL/ANGSTROM
     15          5  C    CARTESIAN Z     1.209555     -0.792499  KCAL/ANGSTROM
     16          6  C    CARTESIAN X     1.647135      1.243636  KCAL/ANGSTROM
     17          6  C    CARTESIAN Y    -0.507029      0.217519  KCAL/ANGSTROM
     18          6  C    CARTESIAN Z    -0.503558     -1.173663  KCAL/ANGSTROM
     19          7  C    CARTESIAN X     1.462050      2.783313  KCAL/ANGSTROM
     20          7  C    CARTESIAN Y     0.332291     -2.742817  KCAL/ANGSTROM
     21          7  C    CARTESIAN Z     0.741600      0.299112  KCAL/ANGSTROM
     22          8  C    CARTESIAN X     1.148333     -2.293951  KCAL/ANGSTROM
     23          8  C    CARTESIAN Y     1.720142      8.183644  KCAL/ANGSTROM
     24          8  C    CARTESIAN Z     0.612854     -0.827722  KCAL/ANGSTROM
     25          9  N    CARTESIAN X     0.907217      0.366641  KCAL/ANGSTROM
     26          9  N    CARTESIAN Y     2.847127     -6.983542  KCAL/ANGSTROM
     27          9  N    CARTESIAN Z     0.526755      0.611552  KCAL/ANGSTROM
     28         10  H    CARTESIAN X    -1.861153      0.476856  KCAL/ANGSTROM
     29         10  H    CARTESIAN Y    -1.813315     -0.088915  KCAL/ANGSTROM
     30         10  H    CARTESIAN Z    -1.274020      0.111984  KCAL/ANGSTROM
     31         11  H    CARTESIAN X    -2.062157      0.263035  KCAL/ANGSTROM
     32         11  H    CARTESIAN Y    -0.138935      0.388197  KCAL/ANGSTROM
     33         11  H    CARTESIAN Z    -1.875645     -1.097358  KCAL/ANGSTROM
     34         12  H    CARTESIAN X    -0.505686      0.634055  KCAL/ANGSTROM
     35         12  H    CARTESIAN Y    -1.007076      0.517083  KCAL/ANGSTROM
     36         12  H    CARTESIAN Z    -2.112815     -0.514211  KCAL/ANGSTROM
     37         13  H    CARTESIAN X    -2.441315      0.669551  KCAL/ANGSTROM
     38         13  H    CARTESIAN Y     1.066273      1.719635  KCAL/ANGSTROM
     39         13  H    CARTESIAN Z     0.142231      0.360267  KCAL/ANGSTROM
     40         14  H    CARTESIAN X    -2.396093      0.911312  KCAL/ANGSTROM
     41         14  H    CARTESIAN Y    -0.266290      0.406422  KCAL/ANGSTROM
     42         14  H    CARTESIAN Z     1.338092      0.393728  KCAL/ANGSTROM
     43         15  H    CARTESIAN X    -1.203455      1.801321  KCAL/ANGSTROM
     44         15  H    CARTESIAN Y     1.059316      2.278747  KCAL/ANGSTROM
     45         15  H    CARTESIAN Z     1.441375      0.222723  KCAL/ANGSTROM
     46         16  H    CARTESIAN X    -0.096436      1.220377  KCAL/ANGSTROM
     47         16  H    CARTESIAN Y    -2.847127     -0.560781  KCAL/ANGSTROM
     48         16  H    CARTESIAN Z     0.653146      0.583204  KCAL/ANGSTROM
     49         17  H    CARTESIAN X    -0.292991      0.663404  KCAL/ANGSTROM
     50         17  H    CARTESIAN Y    -1.844936     -0.396720  KCAL/ANGSTROM
     51         17  H    CARTESIAN Z     2.112815      0.773001  KCAL/ANGSTROM
     52         18  H    CARTESIAN X     1.312295      0.346274  KCAL/ANGSTROM
     53         18  H    CARTESIAN Y    -2.331269     -0.869118  KCAL/ANGSTROM
     54         18  H    CARTESIAN Z     1.566232      0.268101  KCAL/ANGSTROM
     55         19  H    CARTESIAN X     2.441315      0.123295  KCAL/ANGSTROM
     56         19  H    CARTESIAN Y    -1.262809      0.135389  KCAL/ANGSTROM
     57         19  H    CARTESIAN Z    -0.536994     -0.082718  KCAL/ANGSTROM
     58         20  H    CARTESIAN X     1.565478      0.932665  KCAL/ANGSTROM
     59         20  H    CARTESIAN Y    -0.043418      0.491462  KCAL/ANGSTROM
     60         20  H    CARTESIAN Z    -1.490231      0.462368  KCAL/ANGSTROM
     61         21  H    CARTESIAN X     2.108662     -0.552784  KCAL/ANGSTROM
     62         21  H    CARTESIAN Y     0.123156      0.521457  KCAL/ANGSTROM
     63         21  H    CARTESIAN Z     1.625756     -0.939680  KCAL/ANGSTROM




   ATOM   CHEMICAL          X               Y               Z
  NUMBER   SYMBOL      (ANGSTROMS)     (ANGSTROMS)     (ANGSTROMS)

     1       C         -1.33420451  *  -0.82893944  *  -1.38974967  *
     2       N         -0.87286317  *  -0.35127919  *  -0.12084685  *
     3       C         -1.74934682  *   0.40835292  *   0.71841201  *
     4       C          0.42887214  *  -0.74920118  *   0.36531012  *
     5       C          0.32092022  *  -1.99233438  *   1.20955547  *
     6       C          1.64713483  *  -0.50702920  *  -0.50355811  *
     7       C          1.46204979  *   0.33229054  *   0.74160038  *
     8       C          1.14833292  *   1.72014206  *   0.61285414  *
     9       N          0.90721723  *   2.84712653  *   0.52675476  *
    10       H         -1.86115330  *  -1.81331467  *  -1.27402025  *
    11       H         -2.06215668  *  -0.13893497  *  -1.87564517  *
    12       H         -0.50568626  *  -1.00707576  *  -2.11281529  *
    13       H         -2.44131501  *   1.06627281  *   0.14223063  *
    14       H         -2.39609291  *  -0.26629034  *   1.33809243  *
    15       H         -1.20345536  *   1.05931604  *   1.44137511  *
    16       H         -0.09643649  *  -2.84712653  *   0.65314559  *
    17       H         -0.29299074  *  -1.84493641  *   2.11281529  *
    18       H          1.31229485  *  -2.33126910  *   1.56623237  *
    19       H          2.44131501  *  -1.26280862  *  -0.53699351  *
    20       H          1.56547845  *  -0.04341790  *  -1.49023108  *
    21       H          2.10866199  *   0.12315636  *   1.62575595  *

                             CARTESIAN COORDINATES

   1    C       -1.334204508    -0.828939437    -1.389749673
   2    N       -0.872863170    -0.351279186    -0.120846848
   3    C       -1.749346818     0.408352921     0.718412007
   4    C        0.428872135    -0.749201181     0.365310118
   5    C        0.320920224    -1.992334381     1.209555466
   6    C        1.647134831    -0.507029200    -0.503558115
   7    C        1.462049788     0.332290538     0.741600382
   8    C        1.148332922     1.720142061     0.612854136
   9    N        0.907217234     2.847126534     0.526754762
  10    H       -1.861153301    -1.813314674    -1.274020254
  11    H       -2.062156679    -0.138934966    -1.875645175
  12    H       -0.505686257    -1.007075763    -2.112815290
  13    H       -2.441315010     1.066272806     0.142230626
  14    H       -2.396092914    -0.266290336     1.338092435
  15    H       -1.203455361     1.059316038     1.441375110
  16    H       -0.096436485    -2.847126534     0.653145590
  17    H       -0.292990744    -1.844936408     2.112815290
  18    H        1.312294847    -2.331269096     1.566232367
  19    H        2.441315010    -1.262808620    -0.536993513
  20    H        1.565478448    -0.043417903    -1.490231083
  21    H        2.108661992     0.123156360     1.625755951


           Empirical Formula: C7 H12 N2  =    21 atoms



      MOLECULAR POINT GROUP   :   C1  


          ALPHA EIGENVALUES  
 -38.79736 -35.91878 -31.80801 -26.75038 -26.53460 -24.68208 -23.44657 -20.79232
 -19.73318 -18.43957 -17.98308 -17.13021 -16.32466 -15.32842 -15.12415 -14.83759
 -14.69739 -14.35026 -14.24994 -14.06083 -13.82698 -13.49385 -12.73832 -12.15773
 -11.73019  -0.26598  -0.11181   0.38747   1.19079   2.15753   2.28722   2.62002
   2.70827   2.94535   3.11009   4.24474   4.33531   4.42811   4.49379   4.58772
   4.91222   5.02722   5.05190   5.09956   5.21994   5.34424   5.50707   6.22752


           BETA EIGENVALUES 
 -37.21478 -35.90425 -31.67060 -26.53215 -26.44455 -24.32744 -23.42674 -20.52282
 -19.65031 -17.72946 -17.66940 -16.60939 -16.16811 -15.25291 -15.03483 -14.80296
 -14.49354 -14.26754 -14.11954 -14.03315 -13.69341 -13.48412 -12.62153 -12.11156
  -2.20733  -0.11370   0.37746   0.40528   1.20592   2.23187   2.36724   2.71674
   2.91451   3.08841   3.49775   4.34677   4.48514   4.53530   4.54577   4.63880
   4.91967   5.03822   5.05620   5.10444   5.27163   5.38519   5.52053   6.23106


              NET ATOMIC CHARGES AND DIPOLE CONTRIBUTIONS

  ATOM NO.   TYPE          CHARGE      No. of ELECS.   s-Pop       p-Pop       
    1          C          -0.341993        4.3420     1.07363     3.26836
    2          N           0.064227        4.9358     1.53033     3.40544
    3          C          -0.350185        4.3502     1.07340     3.27679
    4          C           0.093646        3.9064     1.04717     2.85918
    5          C          -0.457751        4.4578     1.05584     3.40191
    6          C          -0.284901        4.2849     1.07201     3.21289
    7          C          -0.189248        4.1892     1.04573     3.14352
    8          C           0.188485        3.8115     1.10633     2.70518
    9          N          -0.316643        5.3166     1.82907     3.48757
   10          H           0.240432        0.7596     0.75957
   11          H           0.222846        0.7772     0.77715
   12          H           0.214097        0.7859     0.78590
   13          H           0.226536        0.7735     0.77346
   14          H           0.242620        0.7574     0.75738
   15          H           0.208007        0.7920     0.79199
   16          H           0.190364        0.8096     0.80964
   17          H           0.188090        0.8119     0.81191
   18          H           0.200940        0.7991     0.79906
   19          H           0.212776        0.7872     0.78722
   20          H           0.202844        0.7972     0.79716
   21          H           0.244812        0.7552     0.75519
 DIPOLE           X         Y         Z       TOTAL
 POINT-CHG.    -4.464    -7.088    -1.355     8.485
 HYBRID        -0.025    -0.117     0.022     0.121
 SUM           -4.489    -7.204    -1.333     8.593


          ATOMIC ORBITAL ELECTRON POPULATIONS

     Atom    s        px        py        pz   
    1  C   1.07363   1.19201   1.17855   0.89781
    2  N   1.53033   1.12511   1.14950   1.13084
    3  C   1.07340   1.07764   1.10861   1.09054
    4  C   1.04717   0.79158   0.99961   1.06799
    5  C   1.05584   1.23367   1.03458   1.13365
    6  C   1.07201   1.05898   1.11192   1.04199
    7  C   1.04573   1.11128   0.90238   1.12986
    8  C   1.10633   0.89848   0.91486   0.89185
    9  N   1.82907   1.12853   1.22651   1.13252
   10  H   0.75957
   11  H   0.77715
   12  H   0.78590
   13  H   0.77346
   14  H   0.75738
   15  H   0.79199
   16  H   0.80964
   17  H   0.81191
   18  H   0.79906
   19  H   0.78722
   20  H   0.79716
   21  H   0.75519


                    (SZ)    =    0.500000
                    (S**2)  =    0.759392


          ATOMIC ORBITAL SPIN POPULATIONS

    Atom   Total    s     px     py     pz   
         Atomic
    1  C -0.0423 -0.007 -0.007  0.001 -0.029
    2  N  0.9345  0.044  0.144  0.570  0.176
    3  C -0.0428 -0.007 -0.017 -0.003 -0.015
    4  C -0.0679 -0.007 -0.033 -0.016 -0.012
    5  C  0.0373  0.005  0.001  0.020  0.011
    6  C  0.0102  0.001  0.007  0.002  0.000
    7  C  0.0212  0.002  0.014  0.004  0.001
    8  C -0.0036 -0.000 -0.002 -0.001 -0.001
    9  N  0.0040  0.000  0.003  0.000  0.001
   10  H  0.0525  0.052
   11  H  0.0142  0.014
   12  H  0.0118  0.012
   13  H  0.0147  0.015
   14  H  0.0510  0.051
   15  H  0.0108  0.011
   16  H -0.0015 -0.002
   17  H -0.0013 -0.001
   18  H -0.0001 -0.000
   19  H -0.0010 -0.001
   20  H -0.0008 -0.001
   21  H -0.0009 -0.001

 **********************
 *                    *
 * JOB ENDED NORMALLY *
 *                    *
 **********************



 TOTAL JOB TIME:             1.50 SECONDS

 == MOPAC DONE ==
