 *******************************************************************************
 **                                                                           **
 **                              MOPAC v23.2                                  **
 **                                                                           **
 *******************************************************************************
 **          Digital Object Identifier (DOI): 10.5281/zenodo.6511958          **
 **    Visit the DOI location for information on how to cite this program.    **
 *******************************************************************************

                              PM7 CALCULATION RESULTS

 *******************************************************************************
 *  CALCULATION DONE: (MAX THREADS = 40)             Fri Sep 19 21:52:38 2025  *
 *  PM7        - The PM7 Hamiltonian to be used
 *
 *
 *
 *                 CHARGE ON SYSTEM = +1
 *
 *
 *
 *  1SCF       - DO 1 SCF AND THEN STOP 
 *  T=         - A TIME OF 172800.0 SECONDS REQUESTED
 *  DUMP=N     - RESTART FILE WRITTEN EVERY 7200.0 SECONDS REQUESTED
 *  RELSCF     - DEFAULT SCF CRITERION MULTIPLIED BY 0.0001
 *              (DEFAULT SCF CRITERION = 0.00010)
 *  GRADIENTS  - ALL GRADIENTS TO BE PRINTED
 *  DISP       - PRINT DISPERSION AND HYDROGEN BOND ENERGIES
 *******************************************************************************
PM7 1SCF GRADIENTS DISP RELSCF=0.0001 CHARGE=1
 Title: ASE calculation

   ATOM   CHEMICAL          X               Y               Z
  NUMBER   SYMBOL      (ANGSTROMS)     (ANGSTROMS)     (ANGSTROMS)

     1       C          2.75155363  *   0.36966397  *   0.44501751  *
     2       C          1.41468112  *   0.28150721  *   0.02871053  *
     3       C          0.17191363  *   0.20723274  *  -0.35912094  *
     4       C         -1.11767828  *   0.11315848  *  -0.78381131  *
     5       C         -2.05468143  *   1.27450745  *  -0.61251863  *
     6       C         -2.53801930  *   1.28857552  *   0.83011314  *
     7       O         -2.55493596  *  -0.07474941  *   1.35001602  *
     8       C         -1.84095112  *  -0.93872463  *   0.69959512  *
     9       O         -1.53834048  *  -2.06215936  *   0.70573019  *
    10       H          3.06424140  *   1.40495456  *   0.71956107  *
    11       H          3.47534653  *   0.01448586  *  -0.33066587  *
    12       H          2.96819391  *  -0.25801095  *   1.34726850  *
    13       H         -1.35631897  *  -0.59580748  *  -1.60334626  *
    14       H         -1.55359260  *   2.24017081  *  -0.86985498  *
    15       H         -2.90826843  *   1.21489066  *  -1.32835860  *
    16       H         -1.88171609  *   1.84709656  *   1.52561000  *
    17       H         -3.59653465  *   1.60113614  *   0.95948890  *



          CARTESIAN COORDINATES 

    NO.       ATOM           X           Y           Z

     1         C          2.7516      0.3697      0.4450
     2         C          1.4147      0.2815      0.0287
     3         C          0.1719      0.2072     -0.3591
     4         C         -1.1177      0.1132     -0.7838
     5         C         -2.0547      1.2745     -0.6125
     6         C         -2.5380      1.2886      0.8301
     7         O         -2.5549     -0.0747      1.3500
     8         C         -1.8410     -0.9387      0.6996
     9         O         -1.5383     -2.0622      0.7057
    10         H          3.0642      1.4050      0.7196
    11         H          3.4753      0.0145     -0.3307
    12         H          2.9682     -0.2580      1.3473
    13         H         -1.3563     -0.5958     -1.6033
    14         H         -1.5536      2.2402     -0.8699
    15         H         -2.9083      1.2149     -1.3284
    16         H         -1.8817      1.8471      1.5256
    17         H         -3.5965      1.6011      0.9595

 General Reference for PM7:
 "Optimization of Parameters for Semiempirical Methods VI: More Modifications to the 
 NDDO Approximations and Re-optimization of Parameters", J. J. P. Stewart, J. Mol. Mod., 1:32, 19 (2013)
 https://link.springer.com/article/10.1007/s00894-012-1667-x

           Empirical Formula: C7 H8 O2  =    17 atoms



      MOLECULAR POINT GROUP   :   C1  


          UHF CALCULATION, NO. OF ALPHA ELECTRONS =   24
                           NO. OF BETA  ELECTRONS =   23
  SCF CRITERION =    0.1000E-07

 -------------------------------------------------------------------------------
 PM7 1SCF GRADIENTS DISP RELSCF=0.0001 CHARGE=1
 Title: ASE calculation



     1SCF WAS SPECIFIED, SO BFGS WAS NOT USED                 
     SCF FIELD WAS ACHIEVED                                   


                              PM7 CALCULATION
                                                       MOPAC v23.2 Linux
                                                       Fri Sep 19 21:52:39 2025




          FINAL HEAT OF FORMATION =        173.13221 KCAL/MOL =     724.38516 KJ/MOL

          TOTAL ENERGY            =     -35694.74496 KCAL/MOL = ELECTRONIC ENERGY + CORE-CORE REPULSION
          ENERGY OF ATOMS         =      35867.73354 KCAL/MOL
                              SUM =        172.98859 KCAL/MOL
          DISPERSION ENERGY       =         -1.57104 KCAL/MOL
                              SUM =        171.41755 KCAL/MOL = FINAL HEAT OF FORMATION

     *    WARNING - An energy term is incorrect or missing!

     *    FINAL HEAT OF FORMATION     =    173.13221 KCAL/MOL
     *    SUM OF CONTRIBUTIONS TO HoF =    171.41755 KCAL/MOL
     *                     DIFFERENCE =      1.71466 KCAL/MOL



          TOTAL ENERGY            =      -1547.87064 EV
          ELECTRONIC ENERGY       =      -6821.24106 EV 
          CORE-CORE REPULSION     =       5273.37041 EV
          COSMO AREA              =        166.29 SQUARE ANGSTROMS
          COSMO VOLUME            =        158.01 CUBIC ANGSTROMS

          GRADIENT NORM           =          0.94056          =       0.22812 PER ATOM
          IONIZATION POTENTIAL    =         14.058654 EV
          ALPHA SOMO LUMO (EV)    =        -14.059 -5.396
          BETA  SOMO LUMO (EV)    =        -14.829 -7.247
          NO. OF ALPHA ELECTRONS  =         24
          NO. OF BETA  ELECTRONS  =         23
          MOLECULAR WEIGHT        =        124.1390         POINT GROUP:  C1  

          MOLECULAR DIMENSIONS (Angstroms)

            Atom       Atom       Distance
            H    17    H    11     7.36162
            O     9    H    14     4.53315
            H    13    H    10     3.85181


          SCF CALCULATIONS        =          1

          WALL-CLOCK TIME         =      1.687 SECONDS
          COMPUTATION TIME        =      0.604 SECONDS

          LARGEST ATOMIC GRADIENTS

          Atom     Label                     Cartesian Gradients           Cartesian Coordinates       |Gradient|
                                           X          Y          Z        X          Y          Z

             7       O                   0.311      0.182     -0.216   -2.55494   -0.07475    1.35002      0.420
             6       C                   0.096      0.219     -0.260   -2.53802    1.28858    0.83011      0.353
             3       C                  -0.279     -0.157     -0.115    0.17191    0.20723   -0.35912      0.341
            17       H                   0.157      0.007      0.207   -3.59653    1.60114    0.95949      0.260
            12       H                   0.024      0.056      0.245    2.96819   -0.25801    1.34727      0.252
            13       H                  -0.243      0.052      0.002   -1.35632   -0.59581   -1.60335      0.249
             8       C                   0.033     -0.166      0.098   -1.84095   -0.93872    0.69960      0.195
             9       O                   0.153     -0.109     -0.040   -1.53834   -2.06216    0.70573      0.192
            10       H                  -0.178      0.002     -0.061    3.06424    1.40495    0.71956      0.188
             2       C                   0.127      0.119      0.013    1.41468    0.28151    0.02871      0.175



       FINAL  POINT  AND  DERIVATIVES

   PARAMETER     ATOM    TYPE            VALUE        GRADIENT
      1          1  C    CARTESIAN X     2.751554     -0.096390  KCAL/ANGSTROM
      2          1  C    CARTESIAN Y     0.369664     -0.085938  KCAL/ANGSTROM
      3          1  C    CARTESIAN Z     0.445018      0.110041  KCAL/ANGSTROM
      4          2  C    CARTESIAN X     1.414681      0.127225  KCAL/ANGSTROM
      5          2  C    CARTESIAN Y     0.281507      0.118865  KCAL/ANGSTROM
      6          2  C    CARTESIAN Z     0.028711      0.013126  KCAL/ANGSTROM
      7          3  C    CARTESIAN X     0.171914     -0.279399  KCAL/ANGSTROM
      8          3  C    CARTESIAN Y     0.207233     -0.157268  KCAL/ANGSTROM
      9          3  C    CARTESIAN Z    -0.359121     -0.115240  KCAL/ANGSTROM
     10          4  C    CARTESIAN X    -1.117678     -0.077187  KCAL/ANGSTROM
     11          4  C    CARTESIAN Y     0.113158     -0.136063  KCAL/ANGSTROM
     12          4  C    CARTESIAN Z    -0.783811      0.028398  KCAL/ANGSTROM
     13          5  C    CARTESIAN X    -2.054681      0.034287  KCAL/ANGSTROM
     14          5  C    CARTESIAN Y     1.274507      0.023421  KCAL/ANGSTROM
     15          5  C    CARTESIAN Z    -0.612519     -0.099398  KCAL/ANGSTROM
     16          6  C    CARTESIAN X    -2.538019      0.095819  KCAL/ANGSTROM
     17          6  C    CARTESIAN Y     1.288576      0.219188  KCAL/ANGSTROM
     18          6  C    CARTESIAN Z     0.830113     -0.259991  KCAL/ANGSTROM
     19          7  O    CARTESIAN X    -2.554936      0.310852  KCAL/ANGSTROM
     20          7  O    CARTESIAN Y    -0.074749      0.182179  KCAL/ANGSTROM
     21          7  O    CARTESIAN Z     1.350016     -0.216472  KCAL/ANGSTROM
     22          8  C    CARTESIAN X    -1.840951      0.032974  KCAL/ANGSTROM
     23          8  C    CARTESIAN Y    -0.938725     -0.165758  KCAL/ANGSTROM
     24          8  C    CARTESIAN Z     0.699595      0.097957  KCAL/ANGSTROM
     25          9  O    CARTESIAN X    -1.538340      0.153114  KCAL/ANGSTROM
     26          9  O    CARTESIAN Y    -2.062159     -0.108830  KCAL/ANGSTROM
     27          9  O    CARTESIAN Z     0.705730     -0.040103  KCAL/ANGSTROM
     28         10  H    CARTESIAN X     3.064241     -0.178410  KCAL/ANGSTROM
     29         10  H    CARTESIAN Y     1.404955      0.001778  KCAL/ANGSTROM
     30         10  H    CARTESIAN Z     0.719561     -0.060617  KCAL/ANGSTROM
     31         11  H    CARTESIAN X     3.475347     -0.079552  KCAL/ANGSTROM
     32         11  H    CARTESIAN Y     0.014486      0.093797  KCAL/ANGSTROM
     33         11  H    CARTESIAN Z    -0.330666     -0.038382  KCAL/ANGSTROM
     34         12  H    CARTESIAN X     2.968194      0.023638  KCAL/ANGSTROM
     35         12  H    CARTESIAN Y    -0.258011      0.056438  KCAL/ANGSTROM
     36         12  H    CARTESIAN Z     1.347269      0.244542  KCAL/ANGSTROM
     37         13  H    CARTESIAN X    -1.356319     -0.243317  KCAL/ANGSTROM
     38         13  H    CARTESIAN Y    -0.595807      0.052010  KCAL/ANGSTROM
     39         13  H    CARTESIAN Z    -1.603346      0.002082  KCAL/ANGSTROM
     40         14  H    CARTESIAN X    -1.553593      0.094789  KCAL/ANGSTROM
     41         14  H    CARTESIAN Y     2.240171     -0.020473  KCAL/ANGSTROM
     42         14  H    CARTESIAN Z    -0.869855      0.105230  KCAL/ANGSTROM
     43         15  H    CARTESIAN X    -2.908268      0.017924  KCAL/ANGSTROM
     44         15  H    CARTESIAN Y     1.214891      0.054221  KCAL/ANGSTROM
     45         15  H    CARTESIAN Z    -1.328359      0.018766  KCAL/ANGSTROM
     46         16  H    CARTESIAN X    -1.881716     -0.093544  KCAL/ANGSTROM
     47         16  H    CARTESIAN Y     1.847097     -0.134164  KCAL/ANGSTROM
     48         16  H    CARTESIAN Z     1.525610      0.003388  KCAL/ANGSTROM
     49         17  H    CARTESIAN X    -3.596535      0.157173  KCAL/ANGSTROM
     50         17  H    CARTESIAN Y     1.601136      0.006593  KCAL/ANGSTROM
     51         17  H    CARTESIAN Z     0.959489      0.206670  KCAL/ANGSTROM




   ATOM   CHEMICAL          X               Y               Z
  NUMBER   SYMBOL      (ANGSTROMS)     (ANGSTROMS)     (ANGSTROMS)

     1       C          2.75155363  *   0.36966397  *   0.44501751  *
     2       C          1.41468112  *   0.28150721  *   0.02871053  *
     3       C          0.17191363  *   0.20723274  *  -0.35912094  *
     4       C         -1.11767828  *   0.11315848  *  -0.78381131  *
     5       C         -2.05468143  *   1.27450745  *  -0.61251863  *
     6       C         -2.53801930  *   1.28857552  *   0.83011314  *
     7       O         -2.55493596  *  -0.07474941  *   1.35001602  *
     8       C         -1.84095112  *  -0.93872463  *   0.69959512  *
     9       O         -1.53834048  *  -2.06215936  *   0.70573019  *
    10       H          3.06424140  *   1.40495456  *   0.71956107  *
    11       H          3.47534653  *   0.01448586  *  -0.33066587  *
    12       H          2.96819391  *  -0.25801095  *   1.34726850  *
    13       H         -1.35631897  *  -0.59580748  *  -1.60334626  *
    14       H         -1.55359260  *   2.24017081  *  -0.86985498  *
    15       H         -2.90826843  *   1.21489066  *  -1.32835860  *
    16       H         -1.88171609  *   1.84709656  *   1.52561000  *
    17       H         -3.59653465  *   1.60113614  *   0.95948890  *

                             CARTESIAN COORDINATES

   1    C        2.751553632     0.369663968     0.445017509
   2    C        1.414681120     0.281507213     0.028710530
   3    C        0.171913628     0.207232740    -0.359120936
   4    C       -1.117678278     0.113158478    -0.783811307
   5    C       -2.054681426     1.274507446    -0.612518627
   6    C       -2.538019304     1.288575517     0.830113139
   7    O       -2.554935963    -0.074749407     1.350016020
   8    C       -1.840951124    -0.938724629     0.699595121
   9    O       -1.538340480    -2.062159360     0.705730187
  10    H        3.064241396     1.404954564     0.719561072
  11    H        3.475346526     0.014485862    -0.330665867
  12    H        2.968193908    -0.258010946     1.347268504
  13    H       -1.356318974    -0.595807478    -1.603346258
  14    H       -1.553592602     2.240170813    -0.869854984
  15    H       -2.908268431     1.214890656    -1.328358599
  16    H       -1.881716093     1.847096563     1.525609997
  17    H       -3.596534651     1.601136143     0.959488902


           Empirical Formula: C7 H8 O2  =    17 atoms



      MOLECULAR POINT GROUP   :   C1  


          ALPHA EIGENVALUES  
 -38.63786 -37.32195 -33.50465 -32.00536 -30.44493 -28.53026 -26.44296 -25.65504
 -23.05293 -22.07359 -21.59006 -21.13410 -20.44455 -19.84506 -19.58124 -19.29743
 -19.14352 -18.54997 -18.07612 -17.56249 -16.45290 -16.24502 -14.87238 -14.05865
  -5.39632  -4.32823  -4.28207  -3.98054  -3.48374  -1.50956  -1.06456  -0.99420
  -0.86865  -0.51905   0.01354   0.39035   0.58987   0.85746   0.92104   0.95212
   0.98237   1.00226   1.54079   2.16095


           BETA EIGENVALUES 
 -37.90192 -37.03501 -33.40904 -31.86927 -30.36987 -28.37202 -26.28473 -25.31293
 -22.92667 -21.92565 -21.32678 -20.93183 -20.33707 -19.73236 -19.31952 -19.01650
 -18.88377 -18.29607 -18.03332 -17.46228 -16.23775 -15.60892 -14.82917  -7.24709
  -4.46150  -4.19455  -4.13816  -3.86289  -2.84362  -1.42343  -1.00230  -0.88256
  -0.79894  -0.22187   0.11110   0.43554   0.63797   0.93274   0.94348   0.96525
   1.00371   1.03177   1.54598   2.18957


              NET ATOMIC CHARGES AND DIPOLE CONTRIBUTIONS

  ATOM NO.   TYPE          CHARGE      No. of ELECS.   s-Pop       p-Pop       
    1          C          -0.461404        4.4614     1.04106     3.42034
    2          C           0.237272        3.7627     1.14711     2.61562
    3          C          -0.220126        4.2201     1.08844     3.13169
    4          C          -0.033290        4.0333     1.10371     2.92958
    5          C          -0.348213        4.3482     1.06642     3.28179
    6          C          -0.007864        4.0079     1.11960     2.88827
    7          O          -0.233409        6.2334     1.85998     4.37343
    8          C           0.532711        3.4673     1.17785     2.28944
    9          O          -0.125056        6.1251     1.87358     4.25147
   10          H           0.220267        0.7797     0.77973
   11          H           0.229143        0.7709     0.77086
   12          H           0.231689        0.7683     0.76831
   13          H           0.206420        0.7936     0.79358
   14          H           0.209110        0.7909     0.79089
   15          H           0.199302        0.8007     0.80070
   16          H           0.169796        0.8302     0.83020
   17          H           0.193652        0.8063     0.80635
 DIPOLE           X         Y         Z       TOTAL
 POINT-CHG.     2.019     2.863    -0.709     3.574
 HYBRID         0.025    -0.403     0.241     0.470
 SUM            2.044     2.460    -0.467     3.232


          ATOMIC ORBITAL ELECTRON POPULATIONS

     Atom    s        px        py        pz   
    1  C   1.04106   1.00205   1.22109   1.19720
    2  C   1.14711   0.93841   0.87559   0.80162
    3  C   1.08844   0.97394   1.10389   1.05386
    4  C   1.10371   0.95556   0.99828   0.97575
    5  C   1.06642   1.12790   1.10360   1.05029
    6  C   1.11960   1.17228   0.72799   0.98799
    7  O   1.85998   1.58613   1.29732   1.48998
    8  C   1.17785   0.72114   0.80860   0.75970
    9  O   1.87358   1.51630   1.18995   1.54523
   10  H   0.77973
   11  H   0.77086
   12  H   0.76831
   13  H   0.79358
   14  H   0.79089
   15  H   0.80070
   16  H   0.83020
   17  H   0.80635


                    (SZ)    =    0.500000
                    (S**2)  =    0.810174


          ATOMIC ORBITAL SPIN POPULATIONS

    Atom   Total    s     px     py     pz   
         Atomic
    1  C -0.0073 -0.003 -0.011  0.001  0.005
    2  C  0.4606  0.012  0.030  0.146  0.273
    3  C -0.1503 -0.008 -0.009 -0.069 -0.064
    4  C  0.2695  0.005  0.030  0.068  0.166
    5  C -0.0059 -0.002 -0.005  0.004 -0.003
    6  C  0.0007  0.005  0.000 -0.006  0.002
    7  O  0.0821 -0.002  0.030  0.005  0.049
    8  C  0.0558  0.020 -0.007  0.017  0.024
    9  O  0.2480  0.006  0.041  0.049  0.152
   10  H  0.0065  0.006
   11  H  0.0126  0.013
   12  H  0.0266  0.027
   13  H -0.0038 -0.004
   14  H  0.0049  0.005
   15  H  0.0006  0.001
   16  H -0.0001 -0.000
   17  H -0.0004 -0.000

 **********************
 *                    *
 * JOB ENDED NORMALLY *
 *                    *
 **********************



 TOTAL JOB TIME:             2.34 SECONDS

 == MOPAC DONE ==
