 *******************************************************************************
 **                                                                           **
 **                              MOPAC v23.2                                  **
 **                                                                           **
 *******************************************************************************
 **          Digital Object Identifier (DOI): 10.5281/zenodo.6511958          **
 **    Visit the DOI location for information on how to cite this program.    **
 *******************************************************************************

                              PM7 CALCULATION RESULTS

 *******************************************************************************
 *  CALCULATION DONE: (MAX THREADS = 40)             Fri Sep 19 21:31:23 2025  *
 *  PM7        - The PM7 Hamiltonian to be used
 *  1SCF       - DO 1 SCF AND THEN STOP 
 *  T=         - A TIME OF 172800.0 SECONDS REQUESTED
 *  DUMP=N     - RESTART FILE WRITTEN EVERY 7200.0 SECONDS REQUESTED
 *  RELSCF     - DEFAULT SCF CRITERION MULTIPLIED BY 0.0001
 *              (DEFAULT SCF CRITERION = 0.00010)
 *  GRADIENTS  - ALL GRADIENTS TO BE PRINTED
 *  DISP       - PRINT DISPERSION AND HYDROGEN BOND ENERGIES
 *******************************************************************************
PM7 1SCF GRADIENTS DISP RELSCF=0.0001
 Title: ASE calculation

   ATOM   CHEMICAL          X               Y               Z
  NUMBER   SYMBOL      (ANGSTROMS)     (ANGSTROMS)     (ANGSTROMS)

     1       O         -0.40689645  *   2.03390486  *  -0.04318273  *
     2       C         -0.64909107  *   0.70567402  *   0.23536930  *
     3       C         -2.05569469  *   0.32658778  *   0.76877153  *
     4       O         -2.29446878  *  -0.53878526  *  -0.37732972  *
     5       C         -1.00196509  *  -0.25742205  *  -0.96980793  *
     6       C         -0.04162733  *  -1.44665941  *  -0.85486965  *
     7       N          0.90380804  *  -1.19181363  *   0.26013192  *
     8       C          1.80174995  *  -0.02612580  *   0.09127529  *
     9       C          0.54743629  *   0.09739570  *   0.92659257  *
    10       H         -1.18131067  *   2.45567569  *  -0.47947339  *
    11       H         -2.79886701  *   1.12658885  *   0.78806507  *
    12       H         -2.08192855  *  -0.26692585  *   1.68706252  *
    13       H         -1.14070399  *   0.15969637  *  -1.96684835  *
    14       H          0.50581701  *  -1.64912060  *  -1.79351613  *
    15       H         -0.60115155  *  -2.37614904  *  -0.59265897  *
    16       H          1.88471158  *   0.50343549  *  -0.85672063  *
    17       H          2.77403544  *  -0.12417047  *   0.58091205  *
    18       H          0.58279144  *   0.14929591  *   2.01391774  *



          CARTESIAN COORDINATES 

    NO.       ATOM           X           Y           Z

     1         O         -0.4069      2.0339     -0.0432
     2         C         -0.6491      0.7057      0.2354
     3         C         -2.0557      0.3266      0.7688
     4         O         -2.2945     -0.5388     -0.3773
     5         C         -1.0020     -0.2574     -0.9698
     6         C         -0.0416     -1.4467     -0.8549
     7         N          0.9038     -1.1918      0.2601
     8         C          1.8017     -0.0261      0.0913
     9         C          0.5474      0.0974      0.9266
    10         H         -1.1813      2.4557     -0.4795
    11         H         -2.7989      1.1266      0.7881
    12         H         -2.0819     -0.2669      1.6871
    13         H         -1.1407      0.1597     -1.9668
    14         H          0.5058     -1.6491     -1.7935
    15         H         -0.6012     -2.3761     -0.5927
    16         H          1.8847      0.5034     -0.8567
    17         H          2.7740     -0.1242      0.5809
    18         H          0.5828      0.1493      2.0139

 General Reference for PM7:
 "Optimization of Parameters for Semiempirical Methods VI: More Modifications to the 
 NDDO Approximations and Re-optimization of Parameters", J. J. P. Stewart, J. Mol. Mod., 1:32, 19 (2013)
 https://link.springer.com/article/10.1007/s00894-012-1667-x

           Empirical Formula: C6 H9 N O2  =    18 atoms



      MOLECULAR POINT GROUP   :   C1  


      RHF CALCULATION, NO. OF DOUBLY OCCUPIED LEVELS = 25

  SCF CRITERION =    0.1000E-07

 -------------------------------------------------------------------------------
 PM7 1SCF GRADIENTS DISP RELSCF=0.0001
 Title: ASE calculation



     1SCF WAS SPECIFIED, SO BFGS WAS NOT USED                 
     SCF FIELD WAS ACHIEVED                                   


                              PM7 CALCULATION
                                                       MOPAC v23.2 Linux
                                                       Fri Sep 19 21:31:23 2025




          FINAL HEAT OF FORMATION =        -22.49871 KCAL/MOL =     -94.13461 KJ/MOL

          TOTAL ENERGY            =     -37659.92030 KCAL/MOL = ELECTRONIC ENERGY + CORE-CORE REPULSION
          ENERGY OF ATOMS         =      37638.97832 KCAL/MOL
                              SUM =        -20.94198 KCAL/MOL
          DISPERSION ENERGY       =         -1.55673 KCAL/MOL
                              SUM =        -22.49871 KCAL/MOL = FINAL HEAT OF FORMATION



          TOTAL ENERGY            =      -1633.08871 EV
          ELECTRONIC ENERGY       =      -7912.05864 EV 
          CORE-CORE REPULSION     =       6278.96993 EV
          COSMO AREA              =        150.17 SQUARE ANGSTROMS
          COSMO VOLUME            =        150.35 CUBIC ANGSTROMS

          GRADIENT NORM           =          0.92713          =       0.21853 PER ATOM
          IONIZATION POTENTIAL    =         10.006075 EV
          HOMO LUMO ENERGIES (EV) =        -10.006  1.385
          NO. OF FILLED LEVELS    =         25
          MOLECULAR WEIGHT        =        127.1426         POINT GROUP:  C1  

          MOLECULAR DIMENSIONS (Angstroms)

            Atom       Atom       Distance
            H    17    H    11     5.71529
            H    15    H    10     4.58782
            H    18    H    13     4.03456


          SCF CALCULATIONS        =          1

          WALL-CLOCK TIME         =      0.359 SECONDS
          COMPUTATION TIME        =      0.406 SECONDS

          LARGEST ATOMIC GRADIENTS

          Atom     Label                     Cartesian Gradients           Cartesian Coordinates       |Gradient|
                                           X          Y          Z        X          Y          Z

            11       H                   0.204      0.295      0.179   -2.79887    1.12659    0.78807      0.402
             9       C                  -0.288     -0.261      0.079    0.54744    0.09740    0.92659      0.396
             2       C                  -0.049      0.185     -0.228   -0.64909    0.70567    0.23537      0.298
             4       O                  -0.138     -0.228      0.065   -2.29447   -0.53879   -0.37733      0.275
             8       C                   0.171      0.164     -0.062    1.80175   -0.02613    0.09128      0.245
            14       H                   0.109      0.077      0.201    0.50582   -1.64912   -1.79352      0.241
            16       H                   0.027      0.219      0.042    1.88471    0.50344   -0.85672      0.225
            10       H                  -0.112     -0.181     -0.018   -1.18131    2.45568   -0.47947      0.213
             1       O                   0.153     -0.098     -0.096   -0.40690    2.03390   -0.04318      0.205
            13       H                   0.028     -0.050     -0.146   -1.14070    0.15970   -1.96685      0.157



       FINAL  POINT  AND  DERIVATIVES

   PARAMETER     ATOM    TYPE            VALUE        GRADIENT
      1          1  O    CARTESIAN X    -0.406896      0.153119  KCAL/ANGSTROM
      2          1  O    CARTESIAN Y     2.033905     -0.098106  KCAL/ANGSTROM
      3          1  O    CARTESIAN Z    -0.043183     -0.095627  KCAL/ANGSTROM
      4          2  C    CARTESIAN X    -0.649091     -0.048675  KCAL/ANGSTROM
      5          2  C    CARTESIAN Y     0.705674      0.185362  KCAL/ANGSTROM
      6          2  C    CARTESIAN Z     0.235369     -0.228293  KCAL/ANGSTROM
      7          3  C    CARTESIAN X    -2.055695     -0.038131  KCAL/ANGSTROM
      8          3  C    CARTESIAN Y     0.326588     -0.055408  KCAL/ANGSTROM
      9          3  C    CARTESIAN Z     0.768772     -0.019047  KCAL/ANGSTROM
     10          4  O    CARTESIAN X    -2.294469     -0.137866  KCAL/ANGSTROM
     11          4  O    CARTESIAN Y    -0.538785     -0.228398  KCAL/ANGSTROM
     12          4  O    CARTESIAN Z    -0.377330      0.064883  KCAL/ANGSTROM
     13          5  C    CARTESIAN X    -1.001965     -0.061529  KCAL/ANGSTROM
     14          5  C    CARTESIAN Y    -0.257422      0.067251  KCAL/ANGSTROM
     15          5  C    CARTESIAN Z    -0.969808     -0.068002  KCAL/ANGSTROM
     16          6  C    CARTESIAN X    -0.041627     -0.042988  KCAL/ANGSTROM
     17          6  C    CARTESIAN Y    -1.446659      0.045070  KCAL/ANGSTROM
     18          6  C    CARTESIAN Z    -0.854870      0.035878  KCAL/ANGSTROM
     19          7  N    CARTESIAN X     0.903808     -0.039012  KCAL/ANGSTROM
     20          7  N    CARTESIAN Y    -1.191814     -0.037855  KCAL/ANGSTROM
     21          7  N    CARTESIAN Z     0.260132     -0.093356  KCAL/ANGSTROM
     22          8  C    CARTESIAN X     1.801750      0.170741  KCAL/ANGSTROM
     23          8  C    CARTESIAN Y    -0.026126      0.163637  KCAL/ANGSTROM
     24          8  C    CARTESIAN Z     0.091275     -0.062143  KCAL/ANGSTROM
     25          9  C    CARTESIAN X     0.547436     -0.288062  KCAL/ANGSTROM
     26          9  C    CARTESIAN Y     0.097396     -0.260531  KCAL/ANGSTROM
     27          9  C    CARTESIAN Z     0.926593      0.079495  KCAL/ANGSTROM
     28         10  H    CARTESIAN X    -1.181311     -0.111924  KCAL/ANGSTROM
     29         10  H    CARTESIAN Y     2.455676     -0.180874  KCAL/ANGSTROM
     30         10  H    CARTESIAN Z    -0.479473     -0.017523  KCAL/ANGSTROM
     31         11  H    CARTESIAN X    -2.798867      0.204401  KCAL/ANGSTROM
     32         11  H    CARTESIAN Y     1.126589      0.295409  KCAL/ANGSTROM
     33         11  H    CARTESIAN Z     0.788065      0.179424  KCAL/ANGSTROM
     34         12  H    CARTESIAN X    -2.081929      0.087088  KCAL/ANGSTROM
     35         12  H    CARTESIAN Y    -0.266926      0.049665  KCAL/ANGSTROM
     36         12  H    CARTESIAN Z     1.687063      0.104571  KCAL/ANGSTROM
     37         13  H    CARTESIAN X    -1.140704      0.028118  KCAL/ANGSTROM
     38         13  H    CARTESIAN Y     0.159696     -0.049905  KCAL/ANGSTROM
     39         13  H    CARTESIAN Z    -1.966848     -0.146359  KCAL/ANGSTROM
     40         14  H    CARTESIAN X     0.505817      0.108701  KCAL/ANGSTROM
     41         14  H    CARTESIAN Y    -1.649121      0.076959  KCAL/ANGSTROM
     42         14  H    CARTESIAN Z    -1.793516      0.200907  KCAL/ANGSTROM
     43         15  H    CARTESIAN X    -0.601152     -0.011959  KCAL/ANGSTROM
     44         15  H    CARTESIAN Y    -2.376149     -0.045003  KCAL/ANGSTROM
     45         15  H    CARTESIAN Z    -0.592659     -0.090836  KCAL/ANGSTROM
     46         16  H    CARTESIAN X     1.884712      0.026979  KCAL/ANGSTROM
     47         16  H    CARTESIAN Y     0.503435      0.219350  KCAL/ANGSTROM
     48         16  H    CARTESIAN Z    -0.856721      0.042068  KCAL/ANGSTROM
     49         17  H    CARTESIAN X     2.774035     -0.047786  KCAL/ANGSTROM
     50         17  H    CARTESIAN Y    -0.124170     -0.037783  KCAL/ANGSTROM
     51         17  H    CARTESIAN Z     0.580912      0.109265  KCAL/ANGSTROM
     52         18  H    CARTESIAN X     0.582791      0.048781  KCAL/ANGSTROM
     53         18  H    CARTESIAN Y     0.149296     -0.108845  KCAL/ANGSTROM
     54         18  H    CARTESIAN Z     2.013918      0.004689  KCAL/ANGSTROM




   ATOM   CHEMICAL          X               Y               Z
  NUMBER   SYMBOL      (ANGSTROMS)     (ANGSTROMS)     (ANGSTROMS)

     1       O         -0.40689645  *   2.03390486  *  -0.04318273  *
     2       C         -0.64909107  *   0.70567402  *   0.23536930  *
     3       C         -2.05569469  *   0.32658778  *   0.76877153  *
     4       O         -2.29446878  *  -0.53878526  *  -0.37732972  *
     5       C         -1.00196509  *  -0.25742205  *  -0.96980793  *
     6       C         -0.04162733  *  -1.44665941  *  -0.85486965  *
     7       N          0.90380804  *  -1.19181363  *   0.26013192  *
     8       C          1.80174995  *  -0.02612580  *   0.09127529  *
     9       C          0.54743629  *   0.09739570  *   0.92659257  *
    10       H         -1.18131067  *   2.45567569  *  -0.47947339  *
    11       H         -2.79886701  *   1.12658885  *   0.78806507  *
    12       H         -2.08192855  *  -0.26692585  *   1.68706252  *
    13       H         -1.14070399  *   0.15969637  *  -1.96684835  *
    14       H          0.50581701  *  -1.64912060  *  -1.79351613  *
    15       H         -0.60115155  *  -2.37614904  *  -0.59265897  *
    16       H          1.88471158  *   0.50343549  *  -0.85672063  *
    17       H          2.77403544  *  -0.12417047  *   0.58091205  *
    18       H          0.58279144  *   0.14929591  *   2.01391774  *

                             CARTESIAN COORDINATES

   1    O       -0.406896449     2.033904864    -0.043182729
   2    C       -0.649091071     0.705674015     0.235369300
   3    C       -2.055694685     0.326587777     0.768771527
   4    O       -2.294468780    -0.538785264    -0.377329716
   5    C       -1.001965085    -0.257422045    -0.969807931
   6    C       -0.041627329    -1.446659413    -0.854869648
   7    N        0.903808042    -1.191813629     0.260131920
   8    C        1.801749953    -0.026125797     0.091275289
   9    C        0.547436291     0.097395700     0.926592570
  10    H       -1.181310669     2.455675687    -0.479473391
  11    H       -2.798867012     1.126588851     0.788065072
  12    H       -2.081928553    -0.266925853     1.687062522
  13    H       -1.140703990     0.159696365    -1.966848351
  14    H        0.505817013    -1.649120604    -1.793516127
  15    H       -0.601151546    -2.376149040    -0.592658968
  16    H        1.884711581     0.503435486    -0.856720625
  17    H        2.774035442    -0.124170467     0.580912047
  18    H        0.582791444     0.149295907     2.013917735


           Empirical Formula: C6 H9 N O2  =    18 atoms



      MOLECULAR POINT GROUP   :   C1  


                  EIGENVALUES  
 -36.81780 -31.48629 -29.74686 -26.39625 -25.78128 -23.98061 -21.96665 -20.93521
 -19.89280 -17.99092 -17.50939 -16.34226 -15.84134 -15.44912 -15.24193 -14.63015
 -13.97243 -13.51575 -13.38277 -12.49822 -12.19651 -11.60167 -10.85923 -10.69535
 -10.00608   1.38460   1.83256   2.26330   2.37670   2.72921   3.28298   3.51338
   3.61121   3.77045   3.93495   4.32124   5.14729   5.18414   5.35303   5.42078
   5.51009   5.58533   5.70053   5.82973   5.97299


              NET ATOMIC CHARGES AND DIPOLE CONTRIBUTIONS

  ATOM NO.   TYPE          CHARGE      No. of ELECS.   s-Pop       p-Pop       
    1          O          -0.510693        6.5107     1.84225     4.66845
    2          C           0.202503        3.7975     1.09975     2.69775
    3          C          -0.115592        4.1156     1.10979     3.00580
    4          O          -0.375865        6.3759     1.90782     4.46804
    5          C          -0.005656        4.0057     1.12383     2.88183
    6          C          -0.175712        4.1757     1.08020     3.09551
    7          N          -0.333429        5.3334     1.76576     3.56767
    8          C          -0.205065        4.2051     1.07249     3.13257
    9          C          -0.101669        4.1017     1.07301     3.02866
   10          H           0.325376        0.6746     0.67462
   11          H           0.142963        0.8570     0.85704
   12          H           0.153962        0.8460     0.84604
   13          H           0.146865        0.8531     0.85313
   14          H           0.152494        0.8475     0.84751
   15          H           0.183892        0.8161     0.81611
   16          H           0.160587        0.8394     0.83941
   17          H           0.172325        0.8277     0.82767
   18          H           0.182712        0.8173     0.81729
 DIPOLE           X         Y         Z       TOTAL
 POINT-CHG.     0.212     1.240    -0.220     1.277
 HYBRID        -0.766     0.551    -0.724     1.190
 SUM           -0.555     1.791    -0.944     2.099


          ATOMIC ORBITAL ELECTRON POPULATIONS

     Atom    s        px        py        pz   
    1  O   1.84225   1.51522   1.31802   1.83521
    2  C   1.09975   0.95302   0.78595   0.95878
    3  C   1.10979   1.02104   1.01901   0.96576
    4  O   1.90782   1.36158   1.68795   1.41851
    5  C   1.12383   0.84833   0.98750   1.04600
    6  C   1.08020   0.99874   1.08020   1.01657
    7  N   1.76576   1.16983   1.17592   1.22193
    8  C   1.07249   1.01237   0.99663   1.12357
    9  C   1.07301   0.99197   0.96441   1.07227
   10  H   0.67462
   11  H   0.85704
   12  H   0.84604
   13  H   0.85313
   14  H   0.84751
   15  H   0.81611
   16  H   0.83941
   17  H   0.82767
   18  H   0.81729

 **********************
 *                    *
 * JOB ENDED NORMALLY *
 *                    *
 **********************



 TOTAL JOB TIME:             0.66 SECONDS

 == MOPAC DONE ==
