 *******************************************************************************
 **                                                                           **
 **                              MOPAC v23.2                                  **
 **                                                                           **
 *******************************************************************************
 **          Digital Object Identifier (DOI): 10.5281/zenodo.6511958          **
 **    Visit the DOI location for information on how to cite this program.    **
 *******************************************************************************

                              PM7 CALCULATION RESULTS

 *******************************************************************************
 *  CALCULATION DONE: (MAX THREADS = 40)             Fri Sep 19 21:29:32 2025  *
 *  PM7        - The PM7 Hamiltonian to be used
 *
 *
 *
 *                 CHARGE ON SYSTEM = +1
 *
 *
 *
 *  EPS=37.5   - USE ANDREAS KLAMT'S COSMO IMPLICIT SOLVATION MODEL
 *  1SCF       - DO 1 SCF AND THEN STOP 
 *  T=         - A TIME OF 172800.0 SECONDS REQUESTED
 *  DUMP=N     - RESTART FILE WRITTEN EVERY 7200.0 SECONDS REQUESTED
 *  RELSCF     - DEFAULT SCF CRITERION MULTIPLIED BY 0.0001
 *              (DEFAULT SCF CRITERION = 0.00010)
 *  GRADIENTS  - ALL GRADIENTS TO BE PRINTED
 *  DISP       - PRINT DISPERSION AND HYDROGEN BOND ENERGIES
 *******************************************************************************
PM7 1SCF GRADIENTS EPS=37.5 DISP RELSCF=0.0001 CHARGE=1
 Title: ASE calculation

   ATOM   CHEMICAL          X               Y               Z
  NUMBER   SYMBOL      (ANGSTROMS)     (ANGSTROMS)     (ANGSTROMS)

     1       C          2.52010394  *  -0.16806506  *   0.76779659  *
     2       C          1.10712893  *   0.02317408  *   0.43657290  *
     3       C          0.09598861  *  -0.99763901  *   0.41927903  *
     4       C         -1.22936807  *  -0.41677967  *   0.03194175  *
     5       C         -1.73696266  *  -1.01656170  *  -1.27253165  *
     6       C         -2.24505359  *  -0.55473177  *   1.15819792  *
     7       C         -0.91219923  *   1.06883385  *  -0.18427480  *
     8       O         -1.51871848  *   2.03041518  *  -0.49420310  *
     9       N          0.56325990  *   1.20329874  *   0.09857511  *
    10       H          2.77560952  *  -1.21734821  *   1.02054366  *
    11       H          3.20606533  *   0.11303158  *  -0.06104253  *
    12       H          2.85128203  *   0.43650297  *   1.64036767  *
    13       H          0.24392420  *  -2.03963584  *   0.64794183  *
    14       H         -1.02838689  *  -0.91132291  *  -2.10483699  *
    15       H         -1.95298098  *  -2.09254226  *  -1.16694022  *
    16       H         -2.68384727  *  -0.54915470  *  -1.59598211  *
    17       H         -1.90795379  *  -0.11179515  *   2.10483699  *
    18       H         -3.20606533  *  -0.07413296  *   0.90300789  *
    19       H         -2.48201523  *  -1.61184054  *   1.36297210  *
    20       H          1.05300229  *   2.09254226  *   0.03176492  *



          CARTESIAN COORDINATES 

    NO.       ATOM           X           Y           Z

     1         C          2.5201     -0.1681      0.7678
     2         C          1.1071      0.0232      0.4366
     3         C          0.0960     -0.9976      0.4193
     4         C         -1.2294     -0.4168      0.0319
     5         C         -1.7370     -1.0166     -1.2725
     6         C         -2.2451     -0.5547      1.1582
     7         C         -0.9122      1.0688     -0.1843
     8         O         -1.5187      2.0304     -0.4942
     9         N          0.5633      1.2033      0.0986
    10         H          2.7756     -1.2173      1.0205
    11         H          3.2061      0.1130     -0.0610
    12         H          2.8513      0.4365      1.6404
    13         H          0.2439     -2.0396      0.6479
    14         H         -1.0284     -0.9113     -2.1048
    15         H         -1.9530     -2.0925     -1.1669
    16         H         -2.6838     -0.5492     -1.5960
    17         H         -1.9080     -0.1118      2.1048
    18         H         -3.2061     -0.0741      0.9030
    19         H         -2.4820     -1.6118      1.3630
    20         H          1.0530      2.0925      0.0318

 General Reference for PM7:
 "Optimization of Parameters for Semiempirical Methods VI: More Modifications to the 
 NDDO Approximations and Re-optimization of Parameters", J. J. P. Stewart, J. Mol. Mod., 1:32, 19 (2013)
 https://link.springer.com/article/10.1007/s00894-012-1667-x

           Empirical Formula: C7 H11 N O  =    20 atoms



      MOLECULAR POINT GROUP   :   Cs  


          UHF CALCULATION, NO. OF ALPHA ELECTRONS =   25
                           NO. OF BETA  ELECTRONS =   24
  SCF CRITERION =    0.1000E-07

 -------------------------------------------------------------------------------
 PM7 1SCF GRADIENTS EPS=37.5 DISP RELSCF=0.0001 CHARGE=1
 Title: ASE calculation



     1SCF WAS SPECIFIED, SO BFGS WAS NOT USED                 
     SCF FIELD WAS ACHIEVED                                   


                              PM7 CALCULATION
                                                       MOPAC v23.2 Linux
                                                       Fri Sep 19 21:29:33 2025




          FINAL HEAT OF FORMATION =         83.86539 KCAL/MOL =     350.89280 KJ/MOL

          TOTAL ENERGY            =     -34237.98634 KCAL/MOL = ELECTRONIC ENERGY + CORE-CORE REPULSION + SOLVATION ENERGY
          ENERGY OF ATOMS         =      34323.93363 KCAL/MOL
                              SUM =         85.94730 KCAL/MOL
          DISPERSION ENERGY       =         -2.08190 KCAL/MOL
                              SUM =         83.86539 KCAL/MOL = FINAL HEAT OF FORMATION

          VAN DER WAALS AREA      =        167.50 SQUARE ANGSTROMS


          TOTAL ENERGY            =      -1484.69961 EV
          ELECTRONIC ENERGY       =      -2263.47626 EV 
          CORE-CORE REPULSION     =        778.77665 EV

          DIELECTRIC ENERGY       =         -2.38570 EV
          COSMO AREA              =        167.50 SQUARE ANGSTROMS
          COSMO VOLUME            =        167.24 CUBIC ANGSTROMS

          GRADIENT NORM           =         33.30351          =       7.44689 PER ATOM
          IONIZATION POTENTIAL    =         10.974556 EV
          ALPHA SOMO LUMO (EV)    =        -10.975 -1.324
          BETA  SOMO LUMO (EV)    =        -11.912 -2.808
          NO. OF ALPHA ELECTRONS  =         25
          NO. OF BETA  ELECTRONS  =         24
          MOLECULAR WEIGHT        =        125.1700         POINT GROUP:  Cs  

          MOLECULAR DIMENSIONS (Angstroms)

            Atom       Atom       Distance
            H    16    H    12     6.48715
            H    17    H    11     4.45997
            H    13    O     8     4.33897


          SCF CALCULATIONS        =          2

          WALL-CLOCK TIME         =      1.352 SECONDS
          COMPUTATION TIME        =      1.082 SECONDS

          LARGEST ATOMIC GRADIENTS

          Atom     Label                     Cartesian Gradients           Cartesian Coordinates       |Gradient|
                                           X          Y          Z        X          Y          Z

             7       C                 -24.337      8.666     -6.776   -0.91220    1.06883   -0.18427     26.708
             8       O                   8.849     -8.870      3.566   -1.51872    2.03042   -0.49420     13.027
             9       N                  11.153      4.719      1.412    0.56326    1.20330    0.09858     12.192
             5       C                   3.363     -0.328      0.617   -1.73696   -1.01656   -1.27253      3.435
             6       C                   3.190     -0.246      0.886   -2.24505   -0.55473    1.15820      3.320
             2       C                  -1.236     -2.961      0.300    1.10713    0.02317    0.43657      3.222
             4       C                   2.767      0.963      0.385   -1.22937   -0.41678    0.03194      2.955
            20       H                  -1.256     -2.484      0.212    1.05300    2.09254    0.03176      2.792
             1       C                   0.551      2.064     -0.406    2.52010   -0.16807    0.76780      2.174
             3       C                   1.452      1.163      0.058    0.09599   -0.99764    0.41928      1.861



       FINAL  POINT  AND  DERIVATIVES

   PARAMETER     ATOM    TYPE            VALUE        GRADIENT
      1          1  C    CARTESIAN X     2.520104      0.551492  KCAL/ANGSTROM
      2          1  C    CARTESIAN Y    -0.168065      2.063680  KCAL/ANGSTROM
      3          1  C    CARTESIAN Z     0.767797     -0.405814  KCAL/ANGSTROM
      4          2  C    CARTESIAN X     1.107129     -1.235604  KCAL/ANGSTROM
      5          2  C    CARTESIAN Y     0.023174     -2.960762  KCAL/ANGSTROM
      6          2  C    CARTESIAN Z     0.436573      0.300376  KCAL/ANGSTROM
      7          3  C    CARTESIAN X     0.095989      1.451619  KCAL/ANGSTROM
      8          3  C    CARTESIAN Y    -0.997639      1.163432  KCAL/ANGSTROM
      9          3  C    CARTESIAN Z     0.419279      0.058400  KCAL/ANGSTROM
     10          4  C    CARTESIAN X    -1.229368      2.767359  KCAL/ANGSTROM
     11          4  C    CARTESIAN Y    -0.416780      0.962885  KCAL/ANGSTROM
     12          4  C    CARTESIAN Z     0.031942      0.385299  KCAL/ANGSTROM
     13          5  C    CARTESIAN X    -1.736963      3.362633  KCAL/ANGSTROM
     14          5  C    CARTESIAN Y    -1.016562     -0.328331  KCAL/ANGSTROM
     15          5  C    CARTESIAN Z    -1.272532      0.617094  KCAL/ANGSTROM
     16          6  C    CARTESIAN X    -2.245054      3.189667  KCAL/ANGSTROM
     17          6  C    CARTESIAN Y    -0.554732     -0.246482  KCAL/ANGSTROM
     18          6  C    CARTESIAN Z     1.158198      0.886054  KCAL/ANGSTROM
     19          7  C    CARTESIAN X    -0.912199    -24.337259  KCAL/ANGSTROM
     20          7  C    CARTESIAN Y     1.068834      8.665930  KCAL/ANGSTROM
     21          7  C    CARTESIAN Z    -0.184275     -6.775591  KCAL/ANGSTROM
     22          8  O    CARTESIAN X    -1.518718      8.848673  KCAL/ANGSTROM
     23          8  O    CARTESIAN Y     2.030415     -8.870176  KCAL/ANGSTROM
     24          8  O    CARTESIAN Z    -0.494203      3.565919  KCAL/ANGSTROM
     25          9  N    CARTESIAN X     0.563260     11.153082  KCAL/ANGSTROM
     26          9  N    CARTESIAN Y     1.203299      4.718867  KCAL/ANGSTROM
     27          9  N    CARTESIAN Z     0.098575      1.412070  KCAL/ANGSTROM
     28         10  H    CARTESIAN X     2.775610      1.317183  KCAL/ANGSTROM
     29         10  H    CARTESIAN Y    -1.217348     -0.636259  KCAL/ANGSTROM
     30         10  H    CARTESIAN Z     1.020544      0.461145  KCAL/ANGSTROM
     31         11  H    CARTESIAN X     3.206065      1.260745  KCAL/ANGSTROM
     32         11  H    CARTESIAN Y     0.113032     -0.996299  KCAL/ANGSTROM
     33         11  H    CARTESIAN Z    -0.061043      0.188191  KCAL/ANGSTROM
     34         12  H    CARTESIAN X     2.851282      1.096436  KCAL/ANGSTROM
     35         12  H    CARTESIAN Y     0.436503     -0.898315  KCAL/ANGSTROM
     36         12  H    CARTESIAN Z     1.640368      0.733336  KCAL/ANGSTROM
     37         13  H    CARTESIAN X     0.243924     -0.230887  KCAL/ANGSTROM
     38         13  H    CARTESIAN Y    -2.039636      0.285777  KCAL/ANGSTROM
     39         13  H    CARTESIAN Z     0.647942     -0.030092  KCAL/ANGSTROM
     40         14  H    CARTESIAN X    -1.028387     -1.287122  KCAL/ANGSTROM
     41         14  H    CARTESIAN Y    -0.911323      0.005014  KCAL/ANGSTROM
     42         14  H    CARTESIAN Z    -2.104837     -0.691925  KCAL/ANGSTROM
     43         15  H    CARTESIAN X    -1.952981     -1.263343  KCAL/ANGSTROM
     44         15  H    CARTESIAN Y    -2.092542     -0.242927  KCAL/ANGSTROM
     45         15  H    CARTESIAN Z    -1.166940     -0.558384  KCAL/ANGSTROM
     46         16  H    CARTESIAN X    -2.683847     -1.239163  KCAL/ANGSTROM
     47         16  H    CARTESIAN Y    -0.549155     -0.142914  KCAL/ANGSTROM
     48         16  H    CARTESIAN Z    -1.595982     -0.672990  KCAL/ANGSTROM
     49         17  H    CARTESIAN X    -1.907954     -1.389202  KCAL/ANGSTROM
     50         17  H    CARTESIAN Y    -0.111795      0.055413  KCAL/ANGSTROM
     51         17  H    CARTESIAN Z     2.104837      0.099080  KCAL/ANGSTROM
     52         18  H    CARTESIAN X    -3.206065     -1.395177  KCAL/ANGSTROM
     53         18  H    CARTESIAN Y    -0.074133     -0.022020  KCAL/ANGSTROM
     54         18  H    CARTESIAN Z     0.903008      0.119500  KCAL/ANGSTROM
     55         19  H    CARTESIAN X    -2.482015     -1.364989  KCAL/ANGSTROM
     56         19  H    CARTESIAN Y    -1.611841     -0.092450  KCAL/ANGSTROM
     57         19  H    CARTESIAN Z     1.362972      0.096778  KCAL/ANGSTROM
     58         20  H    CARTESIAN X     1.053002     -1.256150  KCAL/ANGSTROM
     59         20  H    CARTESIAN Y     2.092542     -2.484072  KCAL/ANGSTROM
     60         20  H    CARTESIAN Z     0.031765      0.211550  KCAL/ANGSTROM




   ATOM   CHEMICAL          X               Y               Z
  NUMBER   SYMBOL      (ANGSTROMS)     (ANGSTROMS)     (ANGSTROMS)

     1       C          2.52010394  *  -0.16806506  *   0.76779659  *
     2       C          1.10712893  *   0.02317408  *   0.43657290  *
     3       C          0.09598861  *  -0.99763901  *   0.41927903  *
     4       C         -1.22936807  *  -0.41677967  *   0.03194175  *
     5       C         -1.73696266  *  -1.01656170  *  -1.27253165  *
     6       C         -2.24505359  *  -0.55473177  *   1.15819792  *
     7       C         -0.91219923  *   1.06883385  *  -0.18427480  *
     8       O         -1.51871848  *   2.03041518  *  -0.49420310  *
     9       N          0.56325990  *   1.20329874  *   0.09857511  *
    10       H          2.77560952  *  -1.21734821  *   1.02054366  *
    11       H          3.20606533  *   0.11303158  *  -0.06104253  *
    12       H          2.85128203  *   0.43650297  *   1.64036767  *
    13       H          0.24392420  *  -2.03963584  *   0.64794183  *
    14       H         -1.02838689  *  -0.91132291  *  -2.10483699  *
    15       H         -1.95298098  *  -2.09254226  *  -1.16694022  *
    16       H         -2.68384727  *  -0.54915470  *  -1.59598211  *
    17       H         -1.90795379  *  -0.11179515  *   2.10483699  *
    18       H         -3.20606533  *  -0.07413296  *   0.90300789  *
    19       H         -2.48201523  *  -1.61184054  *   1.36297210  *
    20       H          1.05300229  *   2.09254226  *   0.03176492  *

                             CARTESIAN COORDINATES

   1    C        2.520103942    -0.168065055     0.767796588
   2    C        1.107128933     0.023174076     0.436572900
   3    C        0.095988610    -0.997639008     0.419279033
   4    C       -1.229368066    -0.416779667     0.031941751
   5    C       -1.736962659    -1.016561697    -1.272531646
   6    C       -2.245053592    -0.554731775     1.158197918
   7    C       -0.912199231     1.068833847    -0.184274797
   8    O       -1.518718476     2.030415184    -0.494203099
   9    N        0.563259898     1.203298741     0.098575108
  10    H        2.775609519    -1.217348207     1.020543663
  11    H        3.206065333     0.113031577    -0.061042530
  12    H        2.851282030     0.436502971     1.640367671
  13    H        0.243924200    -2.039635843     0.647941830
  14    H       -1.028386893    -0.911322912    -2.104836990
  15    H       -1.952980981    -2.092542258    -1.166940224
  16    H       -2.683847266    -0.549154704    -1.595982107
  17    H       -1.907953795    -0.111795155     2.104836990
  18    H       -3.206065333    -0.074132957     0.903007893
  19    H       -2.482015231    -1.611840542     1.362972104
  20    H        1.053002288     2.092542258     0.031764922


           Empirical Formula: C7 H11 N O  =    20 atoms



      MOLECULAR POINT GROUP   :   Cs  


          ALPHA EIGENVALUES  
 -38.98387 -33.18134 -30.81289 -28.16809 -25.61862 -24.85737 -23.34438 -21.60574
 -20.05471 -18.56552 -17.25167 -16.76701 -16.41678 -15.92329 -15.48010 -15.20081
 -14.97786 -14.25147 -13.84563 -13.84179 -13.39981 -13.18259 -13.04213 -11.98674
 -10.97456  -1.32405  -0.17608   0.24757   1.47427   1.87862   2.37608   2.86766
   2.88390   3.05505   3.37284   3.80597   4.81674   4.85513   4.95182   5.15060
   5.16706   5.17465   5.22816   5.28309   6.03079   6.28946   6.38964


           BETA EIGENVALUES 
 -38.45050 -33.08145 -30.66616 -28.05051 -25.47635 -24.82181 -23.26051 -21.43520
 -19.97461 -18.46483 -16.90070 -16.68401 -16.38471 -15.83954 -15.36053 -15.09572
 -14.76981 -14.19930 -13.83203 -13.81101 -13.16553 -12.94254 -12.62177 -11.91214
  -2.80811  -0.60029   0.37335   0.40285   1.49610   2.05755   2.49179   2.93696
   2.94512   3.19294   3.41206   3.84218   4.81086   4.85429   5.11075   5.15531
   5.16986   5.18226   5.23157   5.40243   6.02948   6.29066   6.39256


              NET ATOMIC CHARGES AND DIPOLE CONTRIBUTIONS

  ATOM NO.   TYPE          CHARGE      No. of ELECS.   s-Pop       p-Pop       
    1          C          -0.503498        4.5035     1.05252     3.45098
    2          C           0.339310        3.6607     1.09855     2.56214
    3          C          -0.101268        4.1013     1.15211     2.94916
    4          C           0.001513        3.9985     1.06302     2.93547
    5          C          -0.455636        4.4556     1.05612     3.39951
    6          C          -0.456235        4.4562     1.05619     3.40005
    7          C           0.567824        3.4322     1.15462     2.27755
    8          O          -0.364636        6.3646     1.86794     4.49670
    9          N          -0.383267        5.3833     1.57629     3.80698
   10          H           0.210512        0.7895     0.78949
   11          H           0.225108        0.7749     0.77489
   12          H           0.224566        0.7754     0.77543
   13          H           0.217255        0.7827     0.78274
   14          H           0.175233        0.8248     0.82477
   15          H           0.186993        0.8130     0.81301
   16          H           0.185775        0.8142     0.81422
   17          H           0.175397        0.8246     0.82460
   18          H           0.186319        0.8137     0.81368
   19          H           0.187209        0.8128     0.81279
   20          H           0.381525        0.6185     0.61848
 DIPOLE           X         Y         Z       TOTAL
 POINT-CHG.     5.177    -2.880     1.629     6.144
 HYBRID         0.360     1.068    -0.130     1.134
 SUM            5.537    -1.812     1.500     6.016


          ATOMIC ORBITAL ELECTRON POPULATIONS

     Atom    s        px        py        pz   
    1  C   1.05252   0.98935   1.24270   1.21893
    2  C   1.09855   0.96942   0.84613   0.74659
    3  C   1.15211   0.95873   1.08642   0.90401
    4  C   1.06302   0.99021   0.91452   1.03074
    5  C   1.05612   1.18565   1.18542   1.02844
    6  C   1.05619   1.10264   1.22083   1.07658
    7  C   1.15462   0.72625   0.88632   0.66499
    8  O   1.86794   1.64574   1.43710   1.41385
    9  N   1.57629   1.22779   1.19200   1.38719
   10  H   0.78949
   11  H   0.77489
   12  H   0.77543
   13  H   0.78274
   14  H   0.82477
   15  H   0.81301
   16  H   0.81422
   17  H   0.82460
   18  H   0.81368
   19  H   0.81279
   20  H   0.61848


                    (SZ)    =    0.500000
                    (S**2)  =    0.783337


          ATOMIC ORBITAL SPIN POPULATIONS

    Atom   Total    s     px     py     pz   
         Atomic
    1  C  0.0044  0.001  0.003  0.000  0.001
    2  C -0.1220 -0.009 -0.015 -0.023 -0.075
    3  C  0.8296  0.021  0.059  0.049  0.701
    4  C -0.0402 -0.005 -0.021 -0.007 -0.007
    5  C  0.0192  0.003  0.004  0.001  0.010
    6  C  0.0192  0.003  0.010  0.000  0.005
    7  C -0.0239 -0.001 -0.011 -0.001 -0.011
    8  O  0.0312  0.001 -0.004  0.001  0.033
    9  N  0.3236  0.014  0.029  0.023  0.257
   10  H -0.0008 -0.001
   11  H -0.0018 -0.002
   12  H -0.0018 -0.002
   13  H -0.0223 -0.022
   14  H -0.0008 -0.001
   15  H -0.0006 -0.001
   16  H  0.0003  0.000
   17  H -0.0008 -0.001
   18  H  0.0003  0.000
   19  H -0.0006 -0.001
   20  H -0.0121 -0.012

 **********************
 *                    *
 * JOB ENDED NORMALLY *
 *                    *
 **********************



 TOTAL JOB TIME:             1.86 SECONDS

 == MOPAC DONE ==
