 *******************************************************************************
 **                                                                           **
 **                              MOPAC v23.2                                  **
 **                                                                           **
 *******************************************************************************
 **          Digital Object Identifier (DOI): 10.5281/zenodo.6511958          **
 **    Visit the DOI location for information on how to cite this program.    **
 *******************************************************************************

                              PM7 CALCULATION RESULTS

 *******************************************************************************
 *  CALCULATION DONE: (MAX THREADS = 40)             Fri Sep 19 21:44:16 2025  *
 *  PM7        - The PM7 Hamiltonian to be used
 *
 *
 *
 *                 CHARGE ON SYSTEM = +1
 *
 *
 *
 *  EPS=37.5   - USE ANDREAS KLAMT'S COSMO IMPLICIT SOLVATION MODEL
 *  1SCF       - DO 1 SCF AND THEN STOP 
 *  T=         - A TIME OF 172800.0 SECONDS REQUESTED
 *  DUMP=N     - RESTART FILE WRITTEN EVERY 7200.0 SECONDS REQUESTED
 *  RELSCF     - DEFAULT SCF CRITERION MULTIPLIED BY 0.0001
 *              (DEFAULT SCF CRITERION = 0.00010)
 *  GRADIENTS  - ALL GRADIENTS TO BE PRINTED
 *  DISP       - PRINT DISPERSION AND HYDROGEN BOND ENERGIES
 *******************************************************************************
PM7 1SCF GRADIENTS EPS=37.5 DISP RELSCF=0.0001 CHARGE=1
 Title: ASE calculation

   ATOM   CHEMICAL          X               Y               Z
  NUMBER   SYMBOL      (ANGSTROMS)     (ANGSTROMS)     (ANGSTROMS)

     1       C          2.95058031  *   0.46914790  *  -0.61987122  *
     2       C          1.47529252  *   0.32800734  *  -0.66643564  *
     3       O          0.91643642  *   0.38656887  *  -1.77139073  *
     4       C          0.70103036  *   0.11284240  *   0.55665652  *
     5       C         -0.57861713  *   0.92444243  *   0.84685350  *
     6       C         -1.37196512  *   1.27803784  *  -0.41466336  *
     7       C         -1.46582028  *  -0.25483014  *  -0.76669313  *
     8       C         -2.86315909  *  -0.82172483  *  -0.77070126  *
     9       C         -0.67174528  *  -0.56566040  *   0.52596513  *
    10       H          3.44260825  *  -0.52382655  *  -0.48484528  *
    11       H          3.39152161  *   0.91238665  *  -1.53666147  *
    12       H          3.28823769  *   1.09553677  *   0.23545549  *
    13       H          1.34059126  *  -0.10764838  *   1.43704381  *
    14       H         -0.68857899  *   1.47214913  *   1.77139073  *
    15       H         -0.88829047  *   1.92174754  *  -1.15123625  *
    16       H         -2.35012330  *   1.73839809  *  -0.19525752  *
    17       H         -0.93729413  *  -0.53681227  *  -1.70166717  *
    18       H         -3.43532723  *  -0.54399895  *   0.12700386  *
    19       H         -2.86083230  *  -1.92174754  *  -0.81931617  *
    20       H         -3.44260825  *  -0.46707348  *  -1.63848396  *
    21       H         -0.89230554  *  -1.42738220  *   1.13691652  *



          CARTESIAN COORDINATES 

    NO.       ATOM           X           Y           Z

     1         C          2.9506      0.4691     -0.6199
     2         C          1.4753      0.3280     -0.6664
     3         O          0.9164      0.3866     -1.7714
     4         C          0.7010      0.1128      0.5567
     5         C         -0.5786      0.9244      0.8469
     6         C         -1.3720      1.2780     -0.4147
     7         C         -1.4658     -0.2548     -0.7667
     8         C         -2.8632     -0.8217     -0.7707
     9         C         -0.6717     -0.5657      0.5260
    10         H          3.4426     -0.5238     -0.4848
    11         H          3.3915      0.9124     -1.5367
    12         H          3.2882      1.0955      0.2355
    13         H          1.3406     -0.1076      1.4370
    14         H         -0.6886      1.4721      1.7714
    15         H         -0.8883      1.9217     -1.1512
    16         H         -2.3501      1.7384     -0.1953
    17         H         -0.9373     -0.5368     -1.7017
    18         H         -3.4353     -0.5440      0.1270
    19         H         -2.8608     -1.9217     -0.8193
    20         H         -3.4426     -0.4671     -1.6385
    21         H         -0.8923     -1.4274      1.1369

 General Reference for PM7:
 "Optimization of Parameters for Semiempirical Methods VI: More Modifications to the 
 NDDO Approximations and Re-optimization of Parameters", J. J. P. Stewart, J. Mol. Mod., 1:32, 19 (2013)
 https://link.springer.com/article/10.1007/s00894-012-1667-x

           Empirical Formula: C8 H12 O  =    21 atoms



      MOLECULAR POINT GROUP   :   C1  


          UHF CALCULATION, NO. OF ALPHA ELECTRONS =   25
                           NO. OF BETA  ELECTRONS =   24
  SCF CRITERION =    0.1000E-07

 -------------------------------------------------------------------------------
 PM7 1SCF GRADIENTS EPS=37.5 DISP RELSCF=0.0001 CHARGE=1
 Title: ASE calculation



     1SCF WAS SPECIFIED, SO BFGS WAS NOT USED                 
     SCF FIELD WAS ACHIEVED                                   


                              PM7 CALCULATION
                                                       MOPAC v23.2 Linux
                                                       Fri Sep 19 21:44:18 2025




          FINAL HEAT OF FORMATION =        152.53235 KCAL/MOL =     638.19536 KJ/MOL

          TOTAL ENERGY            =     -33012.97254 KCAL/MOL = ELECTRONIC ENERGY + CORE-CORE REPULSION + SOLVATION ENERGY
          ENERGY OF ATOMS         =      33167.45855 KCAL/MOL
                              SUM =        154.48602 KCAL/MOL
          DISPERSION ENERGY       =         -1.95367 KCAL/MOL
                              SUM =        152.53235 KCAL/MOL = FINAL HEAT OF FORMATION

          VAN DER WAALS AREA      =        167.91 SQUARE ANGSTROMS


          TOTAL ENERGY            =      -1431.57798 EV
          ELECTRONIC ENERGY       =      -2249.18991 EV 
          CORE-CORE REPULSION     =        817.61193 EV

          DIELECTRIC ENERGY       =         -2.20488 EV
          COSMO AREA              =        167.91 SQUARE ANGSTROMS
          COSMO VOLUME            =        166.64 CUBIC ANGSTROMS

          GRADIENT NORM           =         13.76839          =       3.00451 PER ATOM
          IONIZATION POTENTIAL    =         11.317350 EV
          ALPHA SOMO LUMO (EV)    =        -11.317 -1.726
          BETA  SOMO LUMO (EV)    =        -11.380 -4.008
          NO. OF ALPHA ELECTRONS  =         25
          NO. OF BETA  ELECTRONS  =         24
          MOLECULAR WEIGHT        =        124.1822         POINT GROUP:  C1  

          MOLECULAR DIMENSIONS (Angstroms)

            Atom       Atom       Distance
            H    18    H    11     7.17598
            H    14    H    19     4.27856
            H    21    H    15     3.81320


          SCF CALCULATIONS        =          2

          WALL-CLOCK TIME         =      2.734 SECONDS
          COMPUTATION TIME        =      0.720 SECONDS

          LARGEST ATOMIC GRADIENTS

          Atom     Label                     Cartesian Gradients           Cartesian Coordinates       |Gradient|
                                           X          Y          Z        X          Y          Z

             4       C                   8.503     -1.000     -0.424    0.70103    0.11284    0.55666      8.572
             2       C                  -6.008     -0.473      0.947    1.47529    0.32801   -0.66644      6.101
             8       C                   3.996      0.782      0.546   -2.86316   -0.82172   -0.77070      4.108
             5       C                  -3.489      0.977     -0.859   -0.57862    0.92444    0.84685      3.724
             6       C                   3.529     -0.213     -0.492   -1.37197    1.27804   -0.41466      3.570
             1       C                   1.533     -0.827      0.527    2.95058    0.46915   -0.61987      1.820
            16       H                  -1.560      0.899      0.215   -2.35012    1.73840   -0.19526      1.813
             3       O                  -1.535     -0.862     -0.286    0.91644    0.38657   -1.77139      1.783
             9       C                  -1.536      0.046     -0.688   -0.67175   -0.56566    0.52597      1.684
            21       H                  -0.537     -1.436      0.362   -0.89231   -1.42738    1.13692      1.575



       FINAL  POINT  AND  DERIVATIVES

   PARAMETER     ATOM    TYPE            VALUE        GRADIENT
      1          1  C    CARTESIAN X     2.950580      1.533368  KCAL/ANGSTROM
      2          1  C    CARTESIAN Y     0.469148     -0.827366  KCAL/ANGSTROM
      3          1  C    CARTESIAN Z    -0.619871      0.526672  KCAL/ANGSTROM
      4          2  C    CARTESIAN X     1.475293     -6.008225  KCAL/ANGSTROM
      5          2  C    CARTESIAN Y     0.328007     -0.473477  KCAL/ANGSTROM
      6          2  C    CARTESIAN Z    -0.666436      0.947156  KCAL/ANGSTROM
      7          3  O    CARTESIAN X     0.916436     -1.534626  KCAL/ANGSTROM
      8          3  O    CARTESIAN Y     0.386569     -0.862257  KCAL/ANGSTROM
      9          3  O    CARTESIAN Z    -1.771391     -0.285519  KCAL/ANGSTROM
     10          4  C    CARTESIAN X     0.701030      8.502986  KCAL/ANGSTROM
     11          4  C    CARTESIAN Y     0.112842     -0.999629  KCAL/ANGSTROM
     12          4  C    CARTESIAN Z     0.556657     -0.424486  KCAL/ANGSTROM
     13          5  C    CARTESIAN X    -0.578617     -3.489011  KCAL/ANGSTROM
     14          5  C    CARTESIAN Y     0.924442      0.977136  KCAL/ANGSTROM
     15          5  C    CARTESIAN Z     0.846854     -0.859215  KCAL/ANGSTROM
     16          6  C    CARTESIAN X    -1.371965      3.529292  KCAL/ANGSTROM
     17          6  C    CARTESIAN Y     1.278038     -0.213498  KCAL/ANGSTROM
     18          6  C    CARTESIAN Z    -0.414663     -0.492031  KCAL/ANGSTROM
     19          7  C    CARTESIAN X    -1.465820     -0.845646  KCAL/ANGSTROM
     20          7  C    CARTESIAN Y    -0.254830      0.584005  KCAL/ANGSTROM
     21          7  C    CARTESIAN Z    -0.766693      0.961472  KCAL/ANGSTROM
     22          8  C    CARTESIAN X    -2.863159      3.996342  KCAL/ANGSTROM
     23          8  C    CARTESIAN Y    -0.821725      0.781598  KCAL/ANGSTROM
     24          8  C    CARTESIAN Z    -0.770701      0.545881  KCAL/ANGSTROM
     25          9  C    CARTESIAN X    -0.671745     -1.536406  KCAL/ANGSTROM
     26          9  C    CARTESIAN Y    -0.565660      0.045977  KCAL/ANGSTROM
     27          9  C    CARTESIAN Z     0.525965     -0.687515  KCAL/ANGSTROM
     28         10  H    CARTESIAN X     3.442608      1.307508  KCAL/ANGSTROM
     29         10  H    CARTESIAN Y    -0.523827     -0.011934  KCAL/ANGSTROM
     30         10  H    CARTESIAN Z    -0.484845     -0.053368  KCAL/ANGSTROM
     31         11  H    CARTESIAN X     3.391522      1.140924  KCAL/ANGSTROM
     32         11  H    CARTESIAN Y     0.912387      0.622703  KCAL/ANGSTROM
     33         11  H    CARTESIAN Z    -1.536661     -0.455830  KCAL/ANGSTROM
     34         12  H    CARTESIAN X     3.288238      1.283209  KCAL/ANGSTROM
     35         12  H    CARTESIAN Y     1.095537      0.451703  KCAL/ANGSTROM
     36         12  H    CARTESIAN Z     0.235455      0.458687  KCAL/ANGSTROM
     37         13  H    CARTESIAN X     1.340591     -0.728066  KCAL/ANGSTROM
     38         13  H    CARTESIAN Y    -0.107648      0.290208  KCAL/ANGSTROM
     39         13  H    CARTESIAN Z     1.437044     -0.494992  KCAL/ANGSTROM
     40         14  H    CARTESIAN X    -0.688579     -0.577222  KCAL/ANGSTROM
     41         14  H    CARTESIAN Y     1.472149      0.945104  KCAL/ANGSTROM
     42         14  H    CARTESIAN Z     1.771391      0.990450  KCAL/ANGSTROM
     43         15  H    CARTESIAN X    -0.888290     -1.411448  KCAL/ANGSTROM
     44         15  H    CARTESIAN Y     1.921748      0.605586  KCAL/ANGSTROM
     45         15  H    CARTESIAN Z    -1.151236      0.211356  KCAL/ANGSTROM
     46         16  H    CARTESIAN X    -2.350123     -1.559815  KCAL/ANGSTROM
     47         16  H    CARTESIAN Y     1.738398      0.899241  KCAL/ANGSTROM
     48         16  H    CARTESIAN Z    -0.195258      0.215066  KCAL/ANGSTROM
     49         17  H    CARTESIAN X    -0.937294      0.717863  KCAL/ANGSTROM
     50         17  H    CARTESIAN Y    -0.536812     -0.026424  KCAL/ANGSTROM
     51         17  H    CARTESIAN Z    -1.701667     -0.632573  KCAL/ANGSTROM
     52         18  H    CARTESIAN X    -3.435327     -1.258808  KCAL/ANGSTROM
     53         18  H    CARTESIAN Y    -0.543999     -0.189313  KCAL/ANGSTROM
     54         18  H    CARTESIAN Z     0.127004      0.057052  KCAL/ANGSTROM
     55         19  H    CARTESIAN X    -2.860832     -1.209155  KCAL/ANGSTROM
     56         19  H    CARTESIAN Y    -1.921748     -0.894506  KCAL/ANGSTROM
     57         19  H    CARTESIAN Z    -0.819316     -0.164921  KCAL/ANGSTROM
     58         20  H    CARTESIAN X    -3.442608     -1.316172  KCAL/ANGSTROM
     59         20  H    CARTESIAN Y    -0.467073     -0.269358  KCAL/ANGSTROM
     60         20  H    CARTESIAN Z    -1.638484     -0.725484  KCAL/ANGSTROM
     61         21  H    CARTESIAN X    -0.892306     -0.536889  KCAL/ANGSTROM
     62         21  H    CARTESIAN Y    -1.427382     -1.435501  KCAL/ANGSTROM
     63         21  H    CARTESIAN Z     1.136917      0.362141  KCAL/ANGSTROM




   ATOM   CHEMICAL          X               Y               Z
  NUMBER   SYMBOL      (ANGSTROMS)     (ANGSTROMS)     (ANGSTROMS)

     1       C          2.95058031  *   0.46914790  *  -0.61987122  *
     2       C          1.47529252  *   0.32800734  *  -0.66643564  *
     3       O          0.91643642  *   0.38656887  *  -1.77139073  *
     4       C          0.70103036  *   0.11284240  *   0.55665652  *
     5       C         -0.57861713  *   0.92444243  *   0.84685350  *
     6       C         -1.37196512  *   1.27803784  *  -0.41466336  *
     7       C         -1.46582028  *  -0.25483014  *  -0.76669313  *
     8       C         -2.86315909  *  -0.82172483  *  -0.77070126  *
     9       C         -0.67174528  *  -0.56566040  *   0.52596513  *
    10       H          3.44260825  *  -0.52382655  *  -0.48484528  *
    11       H          3.39152161  *   0.91238665  *  -1.53666147  *
    12       H          3.28823769  *   1.09553677  *   0.23545549  *
    13       H          1.34059126  *  -0.10764838  *   1.43704381  *
    14       H         -0.68857899  *   1.47214913  *   1.77139073  *
    15       H         -0.88829047  *   1.92174754  *  -1.15123625  *
    16       H         -2.35012330  *   1.73839809  *  -0.19525752  *
    17       H         -0.93729413  *  -0.53681227  *  -1.70166717  *
    18       H         -3.43532723  *  -0.54399895  *   0.12700386  *
    19       H         -2.86083230  *  -1.92174754  *  -0.81931617  *
    20       H         -3.44260825  *  -0.46707348  *  -1.63848396  *
    21       H         -0.89230554  *  -1.42738220  *   1.13691652  *

                             CARTESIAN COORDINATES

   1    C        2.950580309     0.469147895    -0.619871223
   2    C        1.475292520     0.328007335    -0.666435640
   3    O        0.916436420     0.386568871    -1.771390733
   4    C        0.701030364     0.112842403     0.556656524
   5    C       -0.578617127     0.924442429     0.846853503
   6    C       -1.371965117     1.278037837    -0.414663363
   7    C       -1.465820284    -0.254830142    -0.766693127
   8    C       -2.863159085    -0.821724825    -0.770701259
   9    C       -0.671745282    -0.565660401     0.525965135
  10    H        3.442608254    -0.523826553    -0.484845275
  11    H        3.391521612     0.912386654    -1.536661474
  12    H        3.288237695     1.095536770     0.235455488
  13    H        1.340591258    -0.107648376     1.437043808
  14    H       -0.688578993     1.472149126     1.771390733
  15    H       -0.888290475     1.921747543    -1.151236249
  16    H       -2.350123302     1.738398088    -0.195257520
  17    H       -0.937294134    -0.536812275    -1.701667170
  18    H       -3.435327231    -0.543998949     0.127003865
  19    H       -2.860832303    -1.921747543    -0.819316174
  20    H       -3.442608254    -0.467073485    -1.638483962
  21    H       -0.892305539    -1.427382196     1.136916520


           Empirical Formula: C8 H12 O  =    21 atoms



      MOLECULAR POINT GROUP   :   C1  


          ALPHA EIGENVALUES  
 -36.12254 -33.12896 -28.96422 -27.07810 -24.66974 -23.38599 -22.03119 -20.68114
 -18.91577 -18.10136 -17.51693 -17.34478 -17.11321 -16.03794 -14.87928 -14.44805
 -14.40359 -14.23730 -13.91062 -13.78149 -13.33846 -12.51703 -12.15569 -12.02776
 -11.31735  -1.72593   1.05662   1.31839   1.81159   2.08157   2.62060   2.68348
   2.69661   2.93894   3.97611   4.28268   4.53468   4.60666   4.86231   5.14961
   5.28902   5.44446   5.51281   5.55356   5.67664   5.68130   6.01460   6.70977


           BETA EIGENVALUES 
 -33.87304 -32.28554 -28.47087 -26.98705 -24.64039 -23.06591 -21.97175 -19.96664
 -18.84640 -17.81468 -17.13766 -16.82738 -16.61132 -15.80903 -14.69794 -14.27896
 -14.15886 -13.96875 -13.74251 -13.26123 -12.61774 -12.13518 -11.99487 -11.38028
  -4.00829  -1.54955   1.08815   1.69022   2.13319   2.33262   2.62836   2.68724
   2.73602   2.99168   3.98506   4.28631   4.54867   4.62461   4.87644   5.15936
   5.29352   5.44650   5.51425   5.55432   5.68070   5.68672   6.01545   6.71073


              NET ATOMIC CHARGES AND DIPOLE CONTRIBUTIONS

  ATOM NO.   TYPE          CHARGE      No. of ELECS.   s-Pop       p-Pop       
    1          C          -0.478095        4.4781     1.06717     3.41093
    2          C           0.393022        3.6070     1.16112     2.44586
    3          O           0.139431        5.8606     1.91081     3.94976
    4          C          -0.294432        4.2944     1.07132     3.22312
    5          C          -0.096178        4.0962     1.08010     3.01608
    6          C          -0.315488        4.3155     1.07747     3.23801
    7          C          -0.086266        4.0863     1.07398     3.01229
    8          C          -0.451728        4.4517     1.05156     3.40017
    9          C          -0.139756        4.1398     1.08616     3.05360
   10          H           0.244081        0.7559     0.75592
   11          H           0.222160        0.7778     0.77784
   12          H           0.232798        0.7672     0.76720
   13          H           0.237861        0.7621     0.76214
   14          H           0.195216        0.8048     0.80478
   15          H           0.165863        0.8341     0.83414
   16          H           0.185441        0.8146     0.81456
   17          H           0.153299        0.8467     0.84670
   18          H           0.164569        0.8354     0.83543
   19          H           0.164609        0.8354     0.83539
   20          H           0.167028        0.8330     0.83297
   21          H           0.196564        0.8034     0.80344
 DIPOLE           X         Y         Z       TOTAL
 POINT-CHG.     5.831     0.415     0.105     5.847
 HYBRID         0.150     0.033    -0.349     0.381
 SUM            5.981     0.448    -0.244     6.003


          ATOMIC ORBITAL ELECTRON POPULATIONS

     Atom    s        px        py        pz   
    1  C   1.06717   0.91625   1.23776   1.25692
    2  C   1.16112   0.95955   0.60541   0.88090
    3  O   1.91081   1.18085   1.54281   1.22610
    4  C   1.07132   0.98146   1.20729   1.03437
    5  C   1.08010   0.92008   1.00205   1.09395
    6  C   1.07747   1.14729   1.04543   1.04529
    7  C   1.07398   1.02153   0.97628   1.01448
    8  C   1.05156   1.03517   1.16777   1.19723
    9  C   1.08616   0.92513   1.03569   1.09278
   10  H   0.75592
   11  H   0.77784
   12  H   0.76720
   13  H   0.76214
   14  H   0.80478
   15  H   0.83414
   16  H   0.81456
   17  H   0.84670
   18  H   0.83543
   19  H   0.83539
   20  H   0.83297
   21  H   0.80344


                    (SZ)    =    0.500000
                    (S**2)  =    0.766113


          ATOMIC ORBITAL SPIN POPULATIONS

    Atom   Total    s     px     py     pz   
         Atomic
    1  C  0.1040  0.011  0.087  0.001  0.005
    2  C -0.1255 -0.017 -0.013 -0.065 -0.030
    3  O  0.9142  0.017  0.636  0.098  0.163
    4  C  0.0952  0.007  0.024  0.006  0.059
    5  C  0.0004 -0.001 -0.003  0.004  0.000
    6  C  0.0015 -0.000 -0.000 -0.000  0.002
    7  C  0.0180  0.001  0.002  0.001  0.014
    8  C  0.0020  0.000  0.002  0.000  0.000
    9  C -0.0004 -0.001 -0.005  0.001  0.004
   10  H -0.0048 -0.005
   11  H -0.0041 -0.004
   12  H -0.0026 -0.003
   13  H -0.0008 -0.001
   14  H -0.0000 -0.000
   15  H  0.0002  0.000
   16  H  0.0000  0.000
   17  H  0.0014  0.001
   18  H  0.0008  0.001
   19  H -0.0000 -0.000
   20  H  0.0001  0.000
   21  H  0.0004  0.000

 **********************
 *                    *
 * JOB ENDED NORMALLY *
 *                    *
 **********************



 TOTAL JOB TIME:             3.16 SECONDS

 == MOPAC DONE ==
