 *******************************************************************************
 **                                                                           **
 **                              MOPAC v23.2                                  **
 **                                                                           **
 *******************************************************************************
 **          Digital Object Identifier (DOI): 10.5281/zenodo.6511958          **
 **    Visit the DOI location for information on how to cite this program.    **
 *******************************************************************************

                              PM7 CALCULATION RESULTS

 *******************************************************************************
 *  CALCULATION DONE: (MAX THREADS = 40)             Fri Sep 19 22:03:14 2025  *
 *  PM7        - The PM7 Hamiltonian to be used
 *
 *
 *
 *                 CHARGE ON SYSTEM = +1
 *
 *
 *
 *  EPS=37.5   - USE ANDREAS KLAMT'S COSMO IMPLICIT SOLVATION MODEL
 *  1SCF       - DO 1 SCF AND THEN STOP 
 *  T=         - A TIME OF 172800.0 SECONDS REQUESTED
 *  DUMP=N     - RESTART FILE WRITTEN EVERY 7200.0 SECONDS REQUESTED
 *  RELSCF     - DEFAULT SCF CRITERION MULTIPLIED BY 0.0001
 *              (DEFAULT SCF CRITERION = 0.00010)
 *  GRADIENTS  - ALL GRADIENTS TO BE PRINTED
 *  DISP       - PRINT DISPERSION AND HYDROGEN BOND ENERGIES
 *******************************************************************************
PM7 1SCF GRADIENTS EPS=37.5 DISP RELSCF=0.0001 CHARGE=1
 Title: ASE calculation

   ATOM   CHEMICAL          X               Y               Z
  NUMBER   SYMBOL      (ANGSTROMS)     (ANGSTROMS)     (ANGSTROMS)

     1       C          2.95928263  *   1.32559596  *   0.19624314  *
     2       C          1.79079766  *   0.57234489  *   0.22613236  *
     3       C          0.68795800  *  -0.13414401  *   0.26477825  *
     4       C         -0.48421619  *  -0.88996205  *   0.28917253  *
     5       C         -0.64128937  *  -1.77937236  *  -0.94192365  *
     6       C         -1.73839919  *   0.01004923  *   0.61360615  *
     7       C         -2.93844900  *  -0.85183749  *   0.96870104  *
     8       C         -2.06195336  *   0.90680044  *  -0.60443890  *
     9       O         -3.11585039  *   1.76786567  *  -0.26850621  *
    10       H          3.82388750  *   0.81902353  *  -0.30566750  *
    11       H          2.84232809  *   2.29181774  *  -0.38068740  *
    12       H          3.30694820  *   1.67210001  *   1.20520465  *
    13       H         -0.42914252  *  -1.59514253  *   1.21442777  *
    14       H          0.18851510  *  -2.49227556  *  -1.05844313  *
    15       H         -0.70554684  *  -1.20090740  *  -1.87464803  *
    16       H         -1.56382865  *  -2.38313376  *  -0.88396117  *
    17       H         -1.48863050  *   0.66091071  *   1.48736374  *
    18       H         -3.23638774  *  -1.53323380  *   0.16081958  *
    19       H         -3.82388750  *  -0.21254767  *   1.15470094  *
    20       H         -2.78487360  *  -1.44927289  *   1.87464803  *
    21       H         -1.18271981  *   1.47462831  *  -0.95008517  *
    22       H         -2.48186947  *   0.32420916  *  -1.45110350  *
    23       H         -2.81841116  *   2.49227556  *   0.32421982  *



          CARTESIAN COORDINATES 

    NO.       ATOM           X           Y           Z

     1         C          2.9593      1.3256      0.1962
     2         C          1.7908      0.5723      0.2261
     3         C          0.6880     -0.1341      0.2648
     4         C         -0.4842     -0.8900      0.2892
     5         C         -0.6413     -1.7794     -0.9419
     6         C         -1.7384      0.0100      0.6136
     7         C         -2.9384     -0.8518      0.9687
     8         C         -2.0620      0.9068     -0.6044
     9         O         -3.1159      1.7679     -0.2685
    10         H          3.8239      0.8190     -0.3057
    11         H          2.8423      2.2918     -0.3807
    12         H          3.3069      1.6721      1.2052
    13         H         -0.4291     -1.5951      1.2144
    14         H          0.1885     -2.4923     -1.0584
    15         H         -0.7055     -1.2009     -1.8746
    16         H         -1.5638     -2.3831     -0.8840
    17         H         -1.4886      0.6609      1.4874
    18         H         -3.2364     -1.5332      0.1608
    19         H         -3.8239     -0.2125      1.1547
    20         H         -2.7849     -1.4493      1.8746
    21         H         -1.1827      1.4746     -0.9501
    22         H         -2.4819      0.3242     -1.4511
    23         H         -2.8184      2.4923      0.3242

 General Reference for PM7:
 "Optimization of Parameters for Semiempirical Methods VI: More Modifications to the 
 NDDO Approximations and Re-optimization of Parameters", J. J. P. Stewart, J. Mol. Mod., 1:32, 19 (2013)
 https://link.springer.com/article/10.1007/s00894-012-1667-x

           Empirical Formula: C8 H14 O  =    23 atoms



      MOLECULAR POINT GROUP   :   C1  


          UHF CALCULATION, NO. OF ALPHA ELECTRONS =   26
                           NO. OF BETA  ELECTRONS =   25
  SCF CRITERION =    0.1000E-07

 -------------------------------------------------------------------------------
 PM7 1SCF GRADIENTS EPS=37.5 DISP RELSCF=0.0001 CHARGE=1
 Title: ASE calculation



     1SCF WAS SPECIFIED, SO BFGS WAS NOT USED                 
     SCF FIELD WAS ACHIEVED                                   


                              PM7 CALCULATION
                                                       MOPAC v23.2 Linux
                                                       Fri Sep 19 22:03:16 2025




          FINAL HEAT OF FORMATION =        128.98475 KCAL/MOL =     539.67220 KJ/MOL

          TOTAL ENERGY            =     -33651.78428 KCAL/MOL = ELECTRONIC ENERGY + CORE-CORE REPULSION + SOLVATION ENERGY
          ENERGY OF ATOMS         =      33782.22825 KCAL/MOL
                              SUM =        130.44397 KCAL/MOL
          DISPERSION ENERGY       =         -2.36125 KCAL/MOL
                              SUM =        128.08272 KCAL/MOL = FINAL HEAT OF FORMATION

     *    WARNING - An energy term is incorrect or missing!

     *    FINAL HEAT OF FORMATION     =    128.98475 KCAL/MOL
     *    SUM OF CONTRIBUTIONS TO HoF =    128.08272 KCAL/MOL
     *                     DIFFERENCE =      0.90203 KCAL/MOL

          VAN DER WAALS AREA      =        187.82 SQUARE ANGSTROMS


          TOTAL ENERGY            =      -1459.27948 EV
          ELECTRONIC ENERGY       =      -2151.15723 EV 
          CORE-CORE REPULSION     =        691.87775 EV

          DIELECTRIC ENERGY       =         -2.55345 EV
          COSMO AREA              =        187.82 SQUARE ANGSTROMS
          COSMO VOLUME            =        186.79 CUBIC ANGSTROMS

          GRADIENT NORM           =         26.82713          =       5.59384 PER ATOM
          IONIZATION POTENTIAL    =         10.862416 EV
          ALPHA SOMO LUMO (EV)    =        -10.862 -1.002
          BETA  SOMO LUMO (EV)    =        -10.992 -3.877
          NO. OF ALPHA ELECTRONS  =         26
          NO. OF BETA  ELECTRONS  =         25
          MOLECULAR WEIGHT        =        126.1980         POINT GROUP:  C1  

          MOLECULAR DIMENSIONS (Angstroms)

            Atom       Atom       Distance
            H    19    H    10     7.85400
            H    23    H    14     5.42184
            H    12    H    22     3.55918


          SCF CALCULATIONS        =          2

          WALL-CLOCK TIME         =      1.781 SECONDS
          COMPUTATION TIME        =      1.669 SECONDS

          LARGEST ATOMIC GRADIENTS

          Atom     Label                     Cartesian Gradients           Cartesian Coordinates       |Gradient|
                                           X          Y          Z        X          Y          Z

             4       C                  12.579     -2.623     -3.460   -0.48422   -0.88996    0.28917     13.307
             8       C                  -2.207      9.744     -0.519   -2.06195    0.90680   -0.60444     10.005
             6       C                  -5.918      2.844      7.036   -1.73840    0.01005    0.61361      9.624
             2       C                  -8.067     -4.788     -1.343    1.79080    0.57234    0.22613      9.477
             7       C                   8.023     -2.285     -0.551   -2.93845   -0.85184    0.96870      8.360
             9       O                   4.133     -6.532      0.729   -3.11585    1.76787   -0.26851      7.764
             1       C                   2.261      5.842      2.449    2.95928    1.32560    0.19624      6.726
             5       C                   3.174      2.222      2.424   -0.64129   -1.77937   -0.94192      4.570
            13       H                  -3.910      0.324      0.412   -0.42914   -1.59514    1.21443      3.945
            19       H                  -2.545      1.149     -0.225   -3.82389   -0.21255    1.15470      2.801



       FINAL  POINT  AND  DERIVATIVES

   PARAMETER     ATOM    TYPE            VALUE        GRADIENT
      1          1  C    CARTESIAN X     2.959283      2.260944  KCAL/ANGSTROM
      2          1  C    CARTESIAN Y     1.325596      5.841634  KCAL/ANGSTROM
      3          1  C    CARTESIAN Z     0.196243      2.449419  KCAL/ANGSTROM
      4          2  C    CARTESIAN X     1.790798     -8.067028  KCAL/ANGSTROM
      5          2  C    CARTESIAN Y     0.572345     -4.788167  KCAL/ANGSTROM
      6          2  C    CARTESIAN Z     0.226132     -1.343154  KCAL/ANGSTROM
      7          3  C    CARTESIAN X     0.687958     -1.094195  KCAL/ANGSTROM
      8          3  C    CARTESIAN Y    -0.134144     -0.291327  KCAL/ANGSTROM
      9          3  C    CARTESIAN Z     0.264778      0.551743  KCAL/ANGSTROM
     10          4  C    CARTESIAN X    -0.484216     12.579368  KCAL/ANGSTROM
     11          4  C    CARTESIAN Y    -0.889962     -2.622503  KCAL/ANGSTROM
     12          4  C    CARTESIAN Z     0.289173     -3.459731  KCAL/ANGSTROM
     13          5  C    CARTESIAN X    -0.641289      3.174108  KCAL/ANGSTROM
     14          5  C    CARTESIAN Y    -1.779372      2.221803  KCAL/ANGSTROM
     15          5  C    CARTESIAN Z    -0.941924      2.424255  KCAL/ANGSTROM
     16          6  C    CARTESIAN X    -1.738399     -5.917869  KCAL/ANGSTROM
     17          6  C    CARTESIAN Y     0.010049      2.843766  KCAL/ANGSTROM
     18          6  C    CARTESIAN Z     0.613606      7.036280  KCAL/ANGSTROM
     19          7  C    CARTESIAN X    -2.938449      8.023348  KCAL/ANGSTROM
     20          7  C    CARTESIAN Y    -0.851837     -2.284548  KCAL/ANGSTROM
     21          7  C    CARTESIAN Z     0.968701     -0.551099  KCAL/ANGSTROM
     22          8  C    CARTESIAN X    -2.061953     -2.206669  KCAL/ANGSTROM
     23          8  C    CARTESIAN Y     0.906800      9.744410  KCAL/ANGSTROM
     24          8  C    CARTESIAN Z    -0.604439     -0.519003  KCAL/ANGSTROM
     25          9  O    CARTESIAN X    -3.115850      4.133432  KCAL/ANGSTROM
     26          9  O    CARTESIAN Y     1.767866     -6.531911  KCAL/ANGSTROM
     27          9  O    CARTESIAN Z    -0.268506      0.728896  KCAL/ANGSTROM
     28         10  H    CARTESIAN X     3.823888      1.569898  KCAL/ANGSTROM
     29         10  H    CARTESIAN Y     0.819024     -0.085673  KCAL/ANGSTROM
     30         10  H    CARTESIAN Z    -0.305667     -1.075570  KCAL/ANGSTROM
     31         11  H    CARTESIAN X     2.842328      1.139759  KCAL/ANGSTROM
     32         11  H    CARTESIAN Y     2.291818     -0.785001  KCAL/ANGSTROM
     33         11  H    CARTESIAN Z    -0.380687     -0.905877  KCAL/ANGSTROM
     34         12  H    CARTESIAN X     3.306948      1.061414  KCAL/ANGSTROM
     35         12  H    CARTESIAN Y     1.672100     -0.703294  KCAL/ANGSTROM
     36         12  H    CARTESIAN Z     1.205205     -0.034162  KCAL/ANGSTROM
     37         13  H    CARTESIAN X    -0.429143     -3.909583  KCAL/ANGSTROM
     38         13  H    CARTESIAN Y    -1.595143      0.323956  KCAL/ANGSTROM
     39         13  H    CARTESIAN Z     1.214428      0.411823  KCAL/ANGSTROM
     40         14  H    CARTESIAN X     0.188515     -0.493038  KCAL/ANGSTROM
     41         14  H    CARTESIAN Y    -2.492276     -1.730768  KCAL/ANGSTROM
     42         14  H    CARTESIAN Z    -1.058443     -1.182160  KCAL/ANGSTROM
     43         15  H    CARTESIAN X    -0.705547     -1.058313  KCAL/ANGSTROM
     44         15  H    CARTESIAN Y    -1.200907     -0.580599  KCAL/ANGSTROM
     45         15  H    CARTESIAN Z    -1.874648     -1.063837  KCAL/ANGSTROM
     46         16  H    CARTESIAN X    -1.563829     -1.294203  KCAL/ANGSTROM
     47         16  H    CARTESIAN Y    -2.383134     -0.872719  KCAL/ANGSTROM
     48         16  H    CARTESIAN Z    -0.883961     -0.524170  KCAL/ANGSTROM
     49         17  H    CARTESIAN X    -1.488630     -1.006051  KCAL/ANGSTROM
     50         17  H    CARTESIAN Y     0.660911     -0.539694  KCAL/ANGSTROM
     51         17  H    CARTESIAN Z     1.487364      0.247054  KCAL/ANGSTROM
     52         18  H    CARTESIAN X    -3.236388     -2.445320  KCAL/ANGSTROM
     53         18  H    CARTESIAN Y    -1.533234      0.455569  KCAL/ANGSTROM
     54         18  H    CARTESIAN Z     0.160820     -0.030019  KCAL/ANGSTROM
     55         19  H    CARTESIAN X    -3.823888     -2.544664  KCAL/ANGSTROM
     56         19  H    CARTESIAN Y    -0.212548      1.148854  KCAL/ANGSTROM
     57         19  H    CARTESIAN Z     1.154701     -0.225082  KCAL/ANGSTROM
     58         20  H    CARTESIAN X    -2.784874     -1.880524  KCAL/ANGSTROM
     59         20  H    CARTESIAN Y    -1.449273      0.103294  KCAL/ANGSTROM
     60         20  H    CARTESIAN Z     1.874648      0.405431  KCAL/ANGSTROM
     61         21  H    CARTESIAN X    -1.182720      0.214354  KCAL/ANGSTROM
     62         21  H    CARTESIAN Y     1.474628     -1.194298  KCAL/ANGSTROM
     63         21  H    CARTESIAN Z    -0.950085     -0.822615  KCAL/ANGSTROM
     64         22  H    CARTESIAN X    -2.481869     -1.403744  KCAL/ANGSTROM
     65         22  H    CARTESIAN Y     0.324209      0.340112  KCAL/ANGSTROM
     66         22  H    CARTESIAN Z    -1.451104     -0.392460  KCAL/ANGSTROM
     67         23  H    CARTESIAN X    -2.818411     -0.835427  KCAL/ANGSTROM
     68         23  H    CARTESIAN Y     2.492276     -0.012900  KCAL/ANGSTROM
     69         23  H    CARTESIAN Z     0.324220     -2.125966  KCAL/ANGSTROM




   ATOM   CHEMICAL          X               Y               Z
  NUMBER   SYMBOL      (ANGSTROMS)     (ANGSTROMS)     (ANGSTROMS)

     1       C          2.95928263  *   1.32559596  *   0.19624314  *
     2       C          1.79079766  *   0.57234489  *   0.22613236  *
     3       C          0.68795800  *  -0.13414401  *   0.26477825  *
     4       C         -0.48421619  *  -0.88996205  *   0.28917253  *
     5       C         -0.64128937  *  -1.77937236  *  -0.94192365  *
     6       C         -1.73839919  *   0.01004923  *   0.61360615  *
     7       C         -2.93844900  *  -0.85183749  *   0.96870104  *
     8       C         -2.06195336  *   0.90680044  *  -0.60443890  *
     9       O         -3.11585039  *   1.76786567  *  -0.26850621  *
    10       H          3.82388750  *   0.81902353  *  -0.30566750  *
    11       H          2.84232809  *   2.29181774  *  -0.38068740  *
    12       H          3.30694820  *   1.67210001  *   1.20520465  *
    13       H         -0.42914252  *  -1.59514253  *   1.21442777  *
    14       H          0.18851510  *  -2.49227556  *  -1.05844313  *
    15       H         -0.70554684  *  -1.20090740  *  -1.87464803  *
    16       H         -1.56382865  *  -2.38313376  *  -0.88396117  *
    17       H         -1.48863050  *   0.66091071  *   1.48736374  *
    18       H         -3.23638774  *  -1.53323380  *   0.16081958  *
    19       H         -3.82388750  *  -0.21254767  *   1.15470094  *
    20       H         -2.78487360  *  -1.44927289  *   1.87464803  *
    21       H         -1.18271981  *   1.47462831  *  -0.95008517  *
    22       H         -2.48186947  *   0.32420916  *  -1.45110350  *
    23       H         -2.81841116  *   2.49227556  *   0.32421982  *

                             CARTESIAN COORDINATES

   1    C        2.959282631     1.325595957     0.196243136
   2    C        1.790797656     0.572344890     0.226132361
   3    C        0.687957999    -0.134144009     0.264778249
   4    C       -0.484216190    -0.889962049     0.289172527
   5    C       -0.641289367    -1.779372361    -0.941923648
   6    C       -1.738399193     0.010049229     0.613606152
   7    C       -2.938449000    -0.851837486     0.968701039
   8    C       -2.061953357     0.906800436    -0.604438898
   9    O       -3.115850391     1.767865674    -0.268506206
  10    H        3.823887501     0.819023531    -0.305667499
  11    H        2.842328094     2.291817744    -0.380687401
  12    H        3.306948199     1.672100014     1.205204646
  13    H       -0.429142520    -1.595142530     1.214427769
  14    H        0.188515100    -2.492275557    -1.058443135
  15    H       -0.705546844    -1.200907400    -1.874648027
  16    H       -1.563828654    -2.383133760    -0.883961174
  17    H       -1.488630496     0.660910712     1.487363739
  18    H       -3.236387739    -1.533233796     0.160819579
  19    H       -3.823887501    -0.212547665     1.154700942
  20    H       -2.784873598    -1.449272891     1.874648027
  21    H       -1.182719812     1.474628310    -0.950085167
  22    H       -2.481869468     0.324209157    -1.451103500
  23    H       -2.818411162     2.492275557     0.324219820


           Empirical Formula: C8 H14 O  =    23 atoms



      MOLECULAR POINT GROUP   :   C1  


          ALPHA EIGENVALUES  
 -30.94977 -29.48725 -28.68206 -26.69373 -25.33604 -23.95112 -23.09812 -20.05899
 -18.20663 -17.56367 -16.87505 -16.65948 -16.04184 -15.73859 -15.40680 -14.73839
 -14.57354 -13.70155 -13.50557 -13.14475 -12.96840 -12.52262 -11.98978 -11.49264
 -11.25141 -10.86242  -1.00206  -0.64543   2.08872   2.32007   3.08526   3.20133
   3.28947   3.62817   3.92590   4.07720   4.38582   4.65082   4.68451   5.09921
   5.28082   5.34926   5.45876   5.56635   5.63275   5.70691   5.75091   6.02072
   6.48107   6.79871


           BETA EIGENVALUES 
 -30.89697 -29.42692 -28.49480 -26.62648 -25.17273 -23.93323 -22.98192 -20.00668
 -18.06841 -17.52760 -16.75276 -16.51423 -15.91288 -15.48054 -14.99764 -14.60912
 -14.53774 -13.68421 -13.41744 -13.07281 -12.89010 -12.33550 -11.94237 -11.12447
 -10.99165  -3.87732  -0.45837   0.22600   2.22506   2.35709   3.14276   3.24699
   3.38989   3.75156   4.03816   4.10199   4.51706   4.69308   4.78833   5.10325
   5.28361   5.35895   5.46177   5.56734   5.63392   5.74344   5.75446   6.02191
   6.48312   6.79943


              NET ATOMIC CHARGES AND DIPOLE CONTRIBUTIONS

  ATOM NO.   TYPE          CHARGE      No. of ELECS.   s-Pop       p-Pop       
    1          C          -0.459974        4.4600     1.04504     3.41494
    2          C           0.259542        3.7405     1.15384     2.58662
    3          C           0.105541        3.8945     1.15667     2.73779
    4          C          -0.132488        4.1325     1.05685     3.07564
    5          C          -0.439165        4.4392     1.05455     3.38461
    6          C          -0.113367        4.1134     1.07940     3.03397
    7          C          -0.454496        4.4545     1.05423     3.40027
    8          C           0.000241        3.9998     1.09196     2.90780
    9          O          -0.605425        6.6054     1.84068     4.76475
   10          H           0.235016        0.7650     0.76498
   11          H           0.273730        0.7263     0.72627
   12          H           0.250659        0.7493     0.74934
   13          H           0.273879        0.7261     0.72612
   14          H           0.170223        0.8298     0.82978
   15          H           0.169091        0.8309     0.83091
   16          H           0.179072        0.8209     0.82093
   17          H           0.163051        0.8369     0.83695
   18          H           0.160919        0.8391     0.83908
   19          H           0.169625        0.8304     0.83037
   20          H           0.157281        0.8427     0.84272
   21          H           0.123775        0.8762     0.87622
   22          H           0.156330        0.8437     0.84367
   23          H           0.356941        0.6431     0.64306
 DIPOLE           X         Y         Z       TOTAL
 POINT-CHG.    10.949     0.349     1.400    11.043
 HYBRID         0.199     0.335     0.304     0.494
 SUM           11.147     0.684     1.703    11.297


          ATOMIC ORBITAL ELECTRON POPULATIONS

     Atom    s        px        py        pz   
    1  C   1.04504   1.05039   1.14763   1.21692
    2  C   1.15384   0.91046   0.86752   0.80865
    3  C   1.15667   0.94982   0.91893   0.86904
    4  C   1.05685   0.95204   1.03366   1.08995
    5  C   1.05455   1.20570   1.12579   1.05312
    6  C   1.07940   0.94369   1.01076   1.07952
    7  C   1.05423   1.08284   1.13853   1.17891
    8  C   1.09196   0.94734   0.94608   1.01438
    9  O   1.84068   1.46420   1.53324   1.76731
   10  H   0.76498
   11  H   0.72627
   12  H   0.74934
   13  H   0.72612
   14  H   0.82978
   15  H   0.83091
   16  H   0.82093
   17  H   0.83695
   18  H   0.83908
   19  H   0.83037
   20  H   0.84272
   21  H   0.87622
   22  H   0.84367
   23  H   0.64306


                    (SZ)    =    0.500000
                    (S**2)  =    0.753382


          ATOMIC ORBITAL SPIN POPULATIONS

    Atom   Total    s     px     py     pz   
         Atomic
    1  C  0.0211 -0.003  0.001  0.004  0.019
    2  C  0.3818  0.006  0.058  0.120  0.198
    3  C  0.3960  0.007  0.057  0.130  0.202
    4  C  0.0184 -0.004 -0.005  0.009  0.019
    5  C  0.0093  0.001  0.001 -0.000  0.008
    6  C  0.0292  0.003  0.016  0.010  0.000
    7  C -0.0013 -0.000 -0.001 -0.000 -0.000
    8  C  0.0033 -0.000 -0.000  0.001  0.002
    9  O  0.0024  0.000  0.000  0.001  0.001
   10  H  0.0028  0.003
   11  H  0.0476  0.048
   12  H  0.0217  0.022
   13  H  0.0667  0.067
   14  H  0.0004  0.000
   15  H  0.0016  0.002
   16  H -0.0006 -0.001
   17  H -0.0008 -0.001
   18  H  0.0001  0.000
   19  H  0.0007  0.001
   20  H  0.0001  0.000
   21  H -0.0003 -0.000
   22  H -0.0001 -0.000
   23  H -0.0001 -0.000

 **********************
 *                    *
 * JOB ENDED NORMALLY *
 *                    *
 **********************



 TOTAL JOB TIME:             2.05 SECONDS

 == MOPAC DONE ==
