 *******************************************************************************
 **                                                                           **
 **                              MOPAC v23.2                                  **
 **                                                                           **
 *******************************************************************************
 **          Digital Object Identifier (DOI): 10.5281/zenodo.6511958          **
 **    Visit the DOI location for information on how to cite this program.    **
 *******************************************************************************

                              PM7 CALCULATION RESULTS

 *******************************************************************************
 *  CALCULATION DONE: (MAX THREADS = 40)             Fri Sep 19 21:30:43 2025  *
 *  PM7        - The PM7 Hamiltonian to be used
 *
 *
 *
 *                 CHARGE ON SYSTEM = +1
 *
 *
 *
 *  1SCF       - DO 1 SCF AND THEN STOP 
 *  T=         - A TIME OF 172800.0 SECONDS REQUESTED
 *  DUMP=N     - RESTART FILE WRITTEN EVERY 7200.0 SECONDS REQUESTED
 *  RELSCF     - DEFAULT SCF CRITERION MULTIPLIED BY 0.0001
 *              (DEFAULT SCF CRITERION = 0.00010)
 *  GRADIENTS  - ALL GRADIENTS TO BE PRINTED
 *  DISP       - PRINT DISPERSION AND HYDROGEN BOND ENERGIES
 *******************************************************************************
PM7 1SCF GRADIENTS DISP RELSCF=0.0001 CHARGE=1
 Title: ASE calculation

   ATOM   CHEMICAL          X               Y               Z
  NUMBER   SYMBOL      (ANGSTROMS)     (ANGSTROMS)     (ANGSTROMS)

     1       N         -0.88908410  *   2.36922114  *   1.11994498  *
     2       C         -0.72125738  *   1.25025267  *   0.89138912  *
     3       C         -0.52038602  *  -0.15472514  *   0.62318431  *
     4       C         -1.81356854  *  -0.87322997  *   0.15827609  *
     5       C         -1.44804576  *  -1.51985941  *  -1.17161193  *
     6       O         -0.06192001  *  -1.09114298  *  -1.47026999  *
     7       C          0.42929181  *  -0.37084799  *  -0.52523771  *
     8       C          2.72162053  *  -0.57380040  *   0.25002899  *
     9       C          1.80773596  *   0.11198906  *  -0.67605696  *
    10       H         -0.11232838  *  -0.65473412  *   1.56393100  *
    11       H         -2.16092296  *  -1.61747839  *   0.90788515  *
    12       H         -2.66979014  *  -0.16737124  *   0.06063112  *
    13       H         -1.39438550  *  -2.62712300  *  -1.16345801  *
    14       H         -2.03018758  *  -1.17107164  *  -2.04806071  *
    15       H          2.42622810  *  -1.37735739  *   0.88554975  *
    16       H          3.75703649  *  -0.28325035  *   0.28522381  *
    17       H          1.86570328  *   1.23151603  *  -0.50170739  *
    18       H          2.19584939  *  -0.00433177  *  -1.73328686  *



          CARTESIAN COORDINATES 

    NO.       ATOM           X           Y           Z

     1         N         -0.8891      2.3692      1.1199
     2         C         -0.7213      1.2503      0.8914
     3         C         -0.5204     -0.1547      0.6232
     4         C         -1.8136     -0.8732      0.1583
     5         C         -1.4480     -1.5199     -1.1716
     6         O         -0.0619     -1.0911     -1.4703
     7         C          0.4293     -0.3708     -0.5252
     8         C          2.7216     -0.5738      0.2500
     9         C          1.8077      0.1120     -0.6761
    10         H         -0.1123     -0.6547      1.5639
    11         H         -2.1609     -1.6175      0.9079
    12         H         -2.6698     -0.1674      0.0606
    13         H         -1.3944     -2.6271     -1.1635
    14         H         -2.0302     -1.1711     -2.0481
    15         H          2.4262     -1.3774      0.8855
    16         H          3.7570     -0.2833      0.2852
    17         H          1.8657      1.2315     -0.5017
    18         H          2.1958     -0.0043     -1.7333

 General Reference for PM7:
 "Optimization of Parameters for Semiempirical Methods VI: More Modifications to the 
 NDDO Approximations and Re-optimization of Parameters", J. J. P. Stewart, J. Mol. Mod., 1:32, 19 (2013)
 https://link.springer.com/article/10.1007/s00894-012-1667-x

           Empirical Formula: C7 H9 N O  =    18 atoms



      MOLECULAR POINT GROUP   :   C1  


          UHF CALCULATION, NO. OF ALPHA ELECTRONS =   24
                           NO. OF BETA  ELECTRONS =   23
  SCF CRITERION =    0.1000E-07

 -------------------------------------------------------------------------------
 PM7 1SCF GRADIENTS DISP RELSCF=0.0001 CHARGE=1
 Title: ASE calculation



     1SCF WAS SPECIFIED, SO BFGS WAS NOT USED                 
     SCF FIELD WAS ACHIEVED                                   


                              PM7 CALCULATION
                                                       MOPAC v23.2 Linux
                                                       Fri Sep 19 21:30:44 2025




          FINAL HEAT OF FORMATION =        196.89466 KCAL/MOL =     823.80728 KJ/MOL

          TOTAL ENERGY            =     -33510.31619 KCAL/MOL = ELECTRONIC ENERGY + CORE-CORE REPULSION
          ENERGY OF ATOMS         =      33709.16394 KCAL/MOL
                              SUM =        198.84775 KCAL/MOL
          DISPERSION ENERGY       =         -1.95308 KCAL/MOL
                              SUM =        196.89466 KCAL/MOL = FINAL HEAT OF FORMATION



          TOTAL ENERGY            =      -1453.14484 EV
          ELECTRONIC ENERGY       =      -6880.49838 EV 
          CORE-CORE REPULSION     =       5427.35353 EV
          COSMO AREA              =        167.64 SQUARE ANGSTROMS
          COSMO VOLUME            =        164.23 CUBIC ANGSTROMS

          GRADIENT NORM           =          0.93938          =       0.22141 PER ATOM
          IONIZATION POTENTIAL    =         14.026140 EV
          ALPHA SOMO LUMO (EV)    =        -14.026 -6.442
          BETA  SOMO LUMO (EV)    =        -16.818 -6.423
          NO. OF ALPHA ELECTRONS  =         24
          NO. OF BETA  ELECTRONS  =         23
          MOLECULAR WEIGHT        =        123.1542         POINT GROUP:  C1  

          MOLECULAR DIMENSIONS (Angstroms)

            Atom       Atom       Distance
            H    16    H    12     6.43179
            H    13    N     1     5.49437
            H    10    H    18     3.36008


          SCF CALCULATIONS        =          1

          WALL-CLOCK TIME         =      0.609 SECONDS
          COMPUTATION TIME        =      1.048 SECONDS

          LARGEST ATOMIC GRADIENTS

          Atom     Label                     Cartesian Gradients           Cartesian Coordinates       |Gradient|
                                           X          Y          Z        X          Y          Z

            15       H                  -0.186     -0.294      0.137    2.42623   -1.37736    0.88555      0.374
            17       H                   0.121      0.236      0.222    1.86570    1.23152   -0.50171      0.346
             8       C                   0.011      0.139     -0.300    2.72162   -0.57380    0.25003      0.330
            16       H                   0.163     -0.021     -0.222    3.75704   -0.28325    0.28522      0.276
             4       C                  -0.177      0.177     -0.081   -1.81357   -0.87323    0.15828      0.264
            10       H                  -0.103      0.204     -0.077   -0.11233   -0.65473    1.56393      0.241
             1       N                   0.182      0.083     -0.011   -0.88908    2.36922    1.11994      0.200
             5       C                  -0.035     -0.187     -0.044   -1.44805   -1.51986   -1.17161      0.195
             3       C                  -0.167     -0.040      0.090   -0.52039   -0.15473    0.62318      0.194
            18       H                   0.101      0.125      0.100    2.19585   -0.00433   -1.73329      0.189



       FINAL  POINT  AND  DERIVATIVES

   PARAMETER     ATOM    TYPE            VALUE        GRADIENT
      1          1  N    CARTESIAN X    -0.889084      0.181885  KCAL/ANGSTROM
      2          1  N    CARTESIAN Y     2.369221      0.083046  KCAL/ANGSTROM
      3          1  N    CARTESIAN Z     1.119945     -0.011122  KCAL/ANGSTROM
      4          2  C    CARTESIAN X    -0.721257      0.050347  KCAL/ANGSTROM
      5          2  C    CARTESIAN Y     1.250253     -0.008451  KCAL/ANGSTROM
      6          2  C    CARTESIAN Z     0.891389      0.001521  KCAL/ANGSTROM
      7          3  C    CARTESIAN X    -0.520386     -0.167301  KCAL/ANGSTROM
      8          3  C    CARTESIAN Y    -0.154725     -0.039668  KCAL/ANGSTROM
      9          3  C    CARTESIAN Z     0.623184      0.089685  KCAL/ANGSTROM
     10          4  C    CARTESIAN X    -1.813569     -0.177358  KCAL/ANGSTROM
     11          4  C    CARTESIAN Y    -0.873230      0.177391  KCAL/ANGSTROM
     12          4  C    CARTESIAN Z     0.158276     -0.080953  KCAL/ANGSTROM
     13          5  C    CARTESIAN X    -1.448046     -0.034814  KCAL/ANGSTROM
     14          5  C    CARTESIAN Y    -1.519859     -0.187153  KCAL/ANGSTROM
     15          5  C    CARTESIAN Z    -1.171612     -0.043816  KCAL/ANGSTROM
     16          6  O    CARTESIAN X    -0.061920     -0.081530  KCAL/ANGSTROM
     17          6  O    CARTESIAN Y    -1.091143      0.003303  KCAL/ANGSTROM
     18          6  O    CARTESIAN Z    -1.470270     -0.123232  KCAL/ANGSTROM
     19          7  C    CARTESIAN X     0.429292     -0.027519  KCAL/ANGSTROM
     20          7  C    CARTESIAN Y    -0.370848     -0.064795  KCAL/ANGSTROM
     21          7  C    CARTESIAN Z    -0.525238      0.124011  KCAL/ANGSTROM
     22          8  C    CARTESIAN X     2.721621      0.010651  KCAL/ANGSTROM
     23          8  C    CARTESIAN Y    -0.573800      0.138649  KCAL/ANGSTROM
     24          8  C    CARTESIAN Z     0.250029     -0.299631  KCAL/ANGSTROM
     25          9  C    CARTESIAN X     1.807736     -0.116180  KCAL/ANGSTROM
     26          9  C    CARTESIAN Y     0.111989     -0.035280  KCAL/ANGSTROM
     27          9  C    CARTESIAN Z    -0.676057      0.082352  KCAL/ANGSTROM
     28         10  H    CARTESIAN X    -0.112328     -0.103181  KCAL/ANGSTROM
     29         10  H    CARTESIAN Y    -0.654734      0.203928  KCAL/ANGSTROM
     30         10  H    CARTESIAN Z     1.563931     -0.077181  KCAL/ANGSTROM
     31         11  H    CARTESIAN X    -2.160923      0.083754  KCAL/ANGSTROM
     32         11  H    CARTESIAN Y    -1.617478     -0.056903  KCAL/ANGSTROM
     33         11  H    CARTESIAN Z     0.907885     -0.042425  KCAL/ANGSTROM
     34         12  H    CARTESIAN X    -2.669790     -0.057546  KCAL/ANGSTROM
     35         12  H    CARTESIAN Y    -0.167371     -0.082470  KCAL/ANGSTROM
     36         12  H    CARTESIAN Z     0.060631     -0.033645  KCAL/ANGSTROM
     37         13  H    CARTESIAN X    -1.394386      0.079129  KCAL/ANGSTROM
     38         13  H    CARTESIAN Y    -2.627123     -0.140412  KCAL/ANGSTROM
     39         13  H    CARTESIAN Z    -1.163458      0.094339  KCAL/ANGSTROM
     40         14  H    CARTESIAN X    -2.030188      0.160857  KCAL/ANGSTROM
     41         14  H    CARTESIAN Y    -1.171072     -0.036980  KCAL/ANGSTROM
     42         14  H    CARTESIAN Z    -2.048061      0.082673  KCAL/ANGSTROM
     43         15  H    CARTESIAN X     2.426228     -0.185809  KCAL/ANGSTROM
     44         15  H    CARTESIAN Y    -1.377357     -0.293805  KCAL/ANGSTROM
     45         15  H    CARTESIAN Z     0.885550      0.137187  KCAL/ANGSTROM
     46         16  H    CARTESIAN X     3.757036      0.163033  KCAL/ANGSTROM
     47         16  H    CARTESIAN Y    -0.283250     -0.021009  KCAL/ANGSTROM
     48         16  H    CARTESIAN Z     0.285224     -0.222083  KCAL/ANGSTROM
     49         17  H    CARTESIAN X     1.865703      0.121058  KCAL/ANGSTROM
     50         17  H    CARTESIAN Y     1.231516      0.235663  KCAL/ANGSTROM
     51         17  H    CARTESIAN Z    -0.501707      0.221839  KCAL/ANGSTROM
     52         18  H    CARTESIAN X     2.195849      0.100524  KCAL/ANGSTROM
     53         18  H    CARTESIAN Y    -0.004332      0.124942  KCAL/ANGSTROM
     54         18  H    CARTESIAN Z    -1.733287      0.100477  KCAL/ANGSTROM




   ATOM   CHEMICAL          X               Y               Z
  NUMBER   SYMBOL      (ANGSTROMS)     (ANGSTROMS)     (ANGSTROMS)

     1       N         -0.88908410  *   2.36922114  *   1.11994498  *
     2       C         -0.72125738  *   1.25025267  *   0.89138912  *
     3       C         -0.52038602  *  -0.15472514  *   0.62318431  *
     4       C         -1.81356854  *  -0.87322997  *   0.15827609  *
     5       C         -1.44804576  *  -1.51985941  *  -1.17161193  *
     6       O         -0.06192001  *  -1.09114298  *  -1.47026999  *
     7       C          0.42929181  *  -0.37084799  *  -0.52523771  *
     8       C          2.72162053  *  -0.57380040  *   0.25002899  *
     9       C          1.80773596  *   0.11198906  *  -0.67605696  *
    10       H         -0.11232838  *  -0.65473412  *   1.56393100  *
    11       H         -2.16092296  *  -1.61747839  *   0.90788515  *
    12       H         -2.66979014  *  -0.16737124  *   0.06063112  *
    13       H         -1.39438550  *  -2.62712300  *  -1.16345801  *
    14       H         -2.03018758  *  -1.17107164  *  -2.04806071  *
    15       H          2.42622810  *  -1.37735739  *   0.88554975  *
    16       H          3.75703649  *  -0.28325035  *   0.28522381  *
    17       H          1.86570328  *   1.23151603  *  -0.50170739  *
    18       H          2.19584939  *  -0.00433177  *  -1.73328686  *

                             CARTESIAN COORDINATES

   1    N       -0.889084098     2.369221141     1.119944983
   2    C       -0.721257379     1.250252670     0.891389122
   3    C       -0.520386016    -0.154725136     0.623184315
   4    C       -1.813568542    -0.873229965     0.158276092
   5    C       -1.448045759    -1.519859415    -1.171611928
   6    O       -0.061920009    -1.091142982    -1.470269986
   7    C        0.429291808    -0.370847990    -0.525237710
   8    C        2.721620529    -0.573800399     0.250028988
   9    C        1.807735961     0.111989060    -0.676056960
  10    H       -0.112328385    -0.654734120     1.563931000
  11    H       -2.160922955    -1.617478389     0.907885153
  12    H       -2.669790137    -0.167371239     0.060631125
  13    H       -1.394385502    -2.627123000    -1.163458006
  14    H       -2.030187585    -1.171071644    -2.048060709
  15    H        2.426228104    -1.377357393     0.885549747
  16    H        3.757036487    -0.283250347     0.285223814
  17    H        1.865703284     1.231516026    -0.501707393
  18    H        2.195849386    -0.004331768    -1.733286858


           Empirical Formula: C7 H9 N O  =    18 atoms



      MOLECULAR POINT GROUP   :   C1  


          ALPHA EIGENVALUES  
 -39.14504 -38.98816 -34.55186 -33.69463 -30.47377 -27.59218 -26.89148 -25.65225
 -23.52730 -23.16584 -21.88592 -21.06379 -20.41882 -19.71625 -19.59187 -19.08708
 -18.95279 -18.69316 -17.95557 -17.81057 -17.40366 -17.33128 -16.81971 -14.02614
  -6.44208  -4.77247  -3.86810  -3.34268  -2.85375  -2.67117  -2.08547  -1.82254
  -1.71507  -1.56381  -0.87081  -0.41667  -0.17495  -0.13412   0.43015   0.46911
   0.70856   1.11296   1.33243   1.59470   1.99569


           BETA EIGENVALUES 
 -39.14578 -38.99297 -34.53680 -33.63546 -30.39517 -27.50185 -26.84526 -25.49212
 -23.48932 -23.13205 -21.83587 -21.05774 -20.31588 -19.67580 -19.55944 -18.94912
 -18.83064 -18.59170 -17.80286 -17.79402 -17.35810 -17.32852 -16.81791  -6.42303
  -4.77384  -3.98896  -3.86413  -3.34177  -2.85167  -2.67044  -2.08477  -1.81967
  -1.71058  -1.56229  -0.54493  -0.41214  -0.13425  -0.06903   0.43031   0.46915
   0.78129   1.11301   1.33245   1.77623   2.23825


              NET ATOMIC CHARGES AND DIPOLE CONTRIBUTIONS

  ATOM NO.   TYPE          CHARGE      No. of ELECS.   s-Pop       p-Pop       
    1          N          -0.064968        5.0650     1.82711     3.23786
    2          C           0.013209        3.9868     1.09380     2.89299
    3          C          -0.171657        4.1717     1.06354     3.10811
    4          C          -0.317009        4.3170     1.07434     3.24267
    5          C          -0.057314        4.0573     1.13025     2.92706
    6          O          -0.136755        6.1368     1.86579     4.27097
    7          C           0.479508        3.5205     1.19575     2.32474
    8          C          -0.270995        4.2710     1.11978     3.15122
    9          C          -0.358656        4.3587     1.05859     3.30006
   10          H           0.245449        0.7546     0.75455
   11          H           0.204996        0.7950     0.79500
   12          H           0.209318        0.7907     0.79068
   13          H           0.193808        0.8062     0.80619
   14          H           0.196734        0.8033     0.80327
   15          H           0.157899        0.8421     0.84210
   16          H           0.192993        0.8070     0.80701
   17          H           0.245114        0.7549     0.75489
   18          H           0.238325        0.7617     0.76167
 DIPOLE           X         Y         Z       TOTAL
 POINT-CHG.     0.303    -3.668    -1.403     3.939
 HYBRID        -0.052    -0.564    -0.453     0.725
 SUM            0.251    -4.232    -1.856     4.628


          ATOMIC ORBITAL ELECTRON POPULATIONS

     Atom    s        px        py        pz   
    1  N   1.82711   1.01627   1.19582   1.02577
    2  C   1.09380   0.99445   0.90797   0.99057
    3  C   1.06354   1.01226   1.01109   1.08476
    4  C   1.07434   1.04545   1.14773   1.04950
    5  C   1.13025   0.74515   1.12051   1.06140
    6  O   1.86579   1.37658   1.48345   1.41093
    7  C   1.19575   0.91051   0.62318   0.79105
    8  C   1.11978   1.08785   1.05589   1.00749
    9  C   1.05859   0.94173   1.16482   1.19351
   10  H   0.75455
   11  H   0.79500
   12  H   0.79068
   13  H   0.80619
   14  H   0.80327
   15  H   0.84210
   16  H   0.80701
   17  H   0.75489
   18  H   0.76167


                    (SZ)    =    0.500000
                    (S**2)  =    0.753072


          ATOMIC ORBITAL SPIN POPULATIONS

    Atom   Total    s     px     py     pz   
         Atomic
    1  N -0.0001 -0.000 -0.000 -0.000 -0.000
    2  C  0.0001  0.000  0.000  0.000  0.000
    3  C  0.0002 -0.000 -0.000 -0.000  0.000
    4  C -0.0000  0.000 -0.000 -0.000 -0.000
    5  C  0.0003  0.000  0.000 -0.000 -0.000
    6  O -0.0026 -0.000 -0.000 -0.002  0.000
    7  C  0.0030  0.000  0.001  0.001  0.000
    8  C  1.0444  0.026  0.074  0.434  0.511
    9  C -0.0363 -0.006 -0.009 -0.009 -0.012
   10  H  0.0000  0.000
   11  H  0.0000  0.000
   12  H  0.0000  0.000
   13  H -0.0001 -0.000
   14  H -0.0000 -0.000
   15  H -0.0290 -0.029
   16  H -0.0290 -0.029
   17  H  0.0224  0.022
   18  H  0.0267  0.027

 **********************
 *                    *
 * JOB ENDED NORMALLY *
 *                    *
 **********************



 TOTAL JOB TIME:             1.00 SECONDS

 == MOPAC DONE ==
