 *******************************************************************************
 **                                                                           **
 **                              MOPAC v23.2                                  **
 **                                                                           **
 *******************************************************************************
 **          Digital Object Identifier (DOI): 10.5281/zenodo.6511958          **
 **    Visit the DOI location for information on how to cite this program.    **
 *******************************************************************************

                              PM7 CALCULATION RESULTS

 *******************************************************************************
 *  CALCULATION DONE: (MAX THREADS = 40)             Fri Sep 19 21:32:39 2025  *
 *  PM7        - The PM7 Hamiltonian to be used
 *  EPS=37.5   - USE ANDREAS KLAMT'S COSMO IMPLICIT SOLVATION MODEL
 *  1SCF       - DO 1 SCF AND THEN STOP 
 *  T=         - A TIME OF 172800.0 SECONDS REQUESTED
 *  DUMP=N     - RESTART FILE WRITTEN EVERY 7200.0 SECONDS REQUESTED
 *  RELSCF     - DEFAULT SCF CRITERION MULTIPLIED BY 0.0001
 *              (DEFAULT SCF CRITERION = 0.00010)
 *  GRADIENTS  - ALL GRADIENTS TO BE PRINTED
 *  DISP       - PRINT DISPERSION AND HYDROGEN BOND ENERGIES
 *******************************************************************************
PM7 1SCF GRADIENTS EPS=37.5 DISP RELSCF=0.0001
 Title: ASE calculation

   ATOM   CHEMICAL          X               Y               Z
  NUMBER   SYMBOL      (ANGSTROMS)     (ANGSTROMS)     (ANGSTROMS)

     1       C         -2.28928532  *  -1.21577096  *  -1.34918611  *
     2       N         -1.32625134  *  -0.95996849  *  -0.27599706  *
     3       C         -1.76714712  *   0.05974801  *   0.74787926  *
     4       C         -0.52420991  *   0.93728149  *   0.43696952  *
     5       C         -0.14860234  *  -0.09871651  *  -0.66359986  *
     6       C          1.16226388  *  -0.89621792  *  -0.45899299  *
     7       N          2.28972304  *  -0.04838462  *  -0.91770679  *
     8       C          1.37472102  *  -1.22672175  *   0.94801293  *
     9       N          1.54071757  *  -1.49953414  *   2.05867180  *
    10       H         -2.61198206  *  -0.32672489  *  -1.91191634  *
    11       H         -3.18590369  *  -1.69158574  *  -0.91197167  *
    12       H         -1.84959962  *  -1.93869655  *  -2.05867180  *
    13       H         -1.77924242  *  -0.40356653  *   1.74686896  *
    14       H         -2.73206310  *   0.54191329  *   0.56227099  *
    15       H          0.19771397  *   1.03367159  *   1.25337694  *
    16       H         -0.73928274  *   1.93869655  *   0.06244802  *
    17       H         -0.18117315  *   0.31774472  *  -1.68725231  *
    18       H          1.07681335  *  -1.86298527  *  -1.04159605  *
    19       H          3.18590369  *  -0.45776287  *  -0.70631476  *
    20       H          2.23405070  *   0.15596484  *  -1.90187129  *



          CARTESIAN COORDINATES 

    NO.       ATOM           X           Y           Z

     1         C         -2.2893     -1.2158     -1.3492
     2         N         -1.3263     -0.9600     -0.2760
     3         C         -1.7671      0.0597      0.7479
     4         C         -0.5242      0.9373      0.4370
     5         C         -0.1486     -0.0987     -0.6636
     6         C          1.1623     -0.8962     -0.4590
     7         N          2.2897     -0.0484     -0.9177
     8         C          1.3747     -1.2267      0.9480
     9         N          1.5407     -1.4995      2.0587
    10         H         -2.6120     -0.3267     -1.9119
    11         H         -3.1859     -1.6916     -0.9120
    12         H         -1.8496     -1.9387     -2.0587
    13         H         -1.7792     -0.4036      1.7469
    14         H         -2.7321      0.5419      0.5623
    15         H          0.1977      1.0337      1.2534
    16         H         -0.7393      1.9387      0.0624
    17         H         -0.1812      0.3177     -1.6873
    18         H          1.0768     -1.8630     -1.0416
    19         H          3.1859     -0.4578     -0.7063
    20         H          2.2341      0.1560     -1.9019

 General Reference for PM7:
 "Optimization of Parameters for Semiempirical Methods VI: More Modifications to the 
 NDDO Approximations and Re-optimization of Parameters", J. J. P. Stewart, J. Mol. Mod., 1:32, 19 (2013)
 https://link.springer.com/article/10.1007/s00894-012-1667-x

           Empirical Formula: C6 H11 N3  =    20 atoms



      MOLECULAR POINT GROUP   :   C1  


      RHF CALCULATION, NO. OF DOUBLY OCCUPIED LEVELS = 25

  SCF CRITERION =    0.1000E-07

 -------------------------------------------------------------------------------
 PM7 1SCF GRADIENTS EPS=37.5 DISP RELSCF=0.0001
 Title: ASE calculation



     1SCF WAS SPECIFIED, SO BFGS WAS NOT USED                 
     SCF FIELD WAS ACHIEVED                                   


                              PM7 CALCULATION
                                                       MOPAC v23.2 Linux
                                                       Fri Sep 19 21:32:40 2025




          FINAL HEAT OF FORMATION =         37.06675 KCAL/MOL =     155.08730 KJ/MOL

          TOTAL ENERGY            =     -33282.47246 KCAL/MOL = ELECTRONIC ENERGY + CORE-CORE REPULSION + SOLVATION ENERGY
          ENERGY OF ATOMS         =      33321.83911 KCAL/MOL
                              SUM =         39.36665 KCAL/MOL
          DISPERSION ENERGY       =         -2.29990 KCAL/MOL
                              SUM =         37.06675 KCAL/MOL = FINAL HEAT OF FORMATION

          VAN DER WAALS AREA      =        170.77 SQUARE ANGSTROMS


          TOTAL ENERGY            =      -1443.26461 EV
          ELECTRONIC ENERGY       =      -2212.15572 EV 
          CORE-CORE REPULSION     =        768.89111 EV

          DIELECTRIC ENERGY       =         -0.72397 EV
          COSMO AREA              =        170.77 SQUARE ANGSTROMS
          COSMO VOLUME            =        172.29 CUBIC ANGSTROMS

          GRADIENT NORM           =         18.91780          =       4.23015 PER ATOM
          IONIZATION POTENTIAL    =          9.570813 EV
          HOMO LUMO ENERGIES (EV) =         -9.571  0.716
          NO. OF FILLED LEVELS    =         25
          MOLECULAR WEIGHT        =        125.1730         POINT GROUP:  C1  

          MOLECULAR DIMENSIONS (Angstroms)

            Atom       Atom       Distance
            H    19    H    11     6.49342
            H    10    N     9     4.30846
            H    18    H    16     4.15266


          SCF CALCULATIONS        =          2

          WALL-CLOCK TIME         =      0.820 SECONDS
          COMPUTATION TIME        =      0.184 SECONDS

          LARGEST ATOMIC GRADIENTS

          Atom     Label                     Cartesian Gradients           Cartesian Coordinates       |Gradient|
                                           X          Y          Z        X          Y          Z

             7       N                   2.812     -6.108     -9.717    2.28972   -0.04838   -0.91771     11.817
             8       C                   1.174     -2.532      6.775    1.37472   -1.22672    0.94801      7.327
             9       N                  -1.066      2.271     -6.833    1.54072   -1.49953    2.05867      7.279
            19       H                  -2.798      4.202      2.790    3.18590   -0.45776   -0.70631      5.768
            20       H                   0.212      2.477      4.816    2.23405    0.15596   -1.90187      5.420
             6       C                  -0.596     -1.745      1.893    1.16226   -0.89622   -0.45899      2.642
             1       C                  -0.046      2.132     -1.477   -2.28929   -1.21577   -1.34919      2.594
             4       C                  -1.374      1.371     -1.496   -0.52421    0.93728    0.43697      2.450
            18       H                  -0.320      1.740      1.687    1.07681   -1.86299   -1.04160      2.444
             5       C                  -0.212      0.592     -2.317   -0.14860   -0.09872   -0.66360      2.401



       FINAL  POINT  AND  DERIVATIVES

   PARAMETER     ATOM    TYPE            VALUE        GRADIENT
      1          1  C    CARTESIAN X    -2.289285     -0.045803  KCAL/ANGSTROM
      2          1  C    CARTESIAN Y    -1.215771      2.132073  KCAL/ANGSTROM
      3          1  C    CARTESIAN Z    -1.349186     -1.477216  KCAL/ANGSTROM
      4          2  N    CARTESIAN X    -1.326251     -0.460410  KCAL/ANGSTROM
      5          2  N    CARTESIAN Y    -0.959968      0.205556  KCAL/ANGSTROM
      6          2  N    CARTESIAN Z    -0.275997     -0.419350  KCAL/ANGSTROM
      7          3  C    CARTESIAN X    -1.767147     -1.508993  KCAL/ANGSTROM
      8          3  C    CARTESIAN Y     0.059748      0.305059  KCAL/ANGSTROM
      9          3  C    CARTESIAN Z     0.747879     -0.582724  KCAL/ANGSTROM
     10          4  C    CARTESIAN X    -0.524210     -1.373840  KCAL/ANGSTROM
     11          4  C    CARTESIAN Y     0.937281      1.370697  KCAL/ANGSTROM
     12          4  C    CARTESIAN Z     0.436970     -1.495647  KCAL/ANGSTROM
     13          5  C    CARTESIAN X    -0.148602     -0.212439  KCAL/ANGSTROM
     14          5  C    CARTESIAN Y    -0.098717      0.592427  KCAL/ANGSTROM
     15          5  C    CARTESIAN Z    -0.663600     -2.317148  KCAL/ANGSTROM
     16          6  C    CARTESIAN X     1.162264     -0.595595  KCAL/ANGSTROM
     17          6  C    CARTESIAN Y    -0.896218     -1.744690  KCAL/ANGSTROM
     18          6  C    CARTESIAN Z    -0.458993      1.892897  KCAL/ANGSTROM
     19          7  N    CARTESIAN X     2.289723      2.811575  KCAL/ANGSTROM
     20          7  N    CARTESIAN Y    -0.048385     -6.108387  KCAL/ANGSTROM
     21          7  N    CARTESIAN Z    -0.917707     -9.717183  KCAL/ANGSTROM
     22          8  C    CARTESIAN X     1.374721      1.173950  KCAL/ANGSTROM
     23          8  C    CARTESIAN Y    -1.226722     -2.531577  KCAL/ANGSTROM
     24          8  C    CARTESIAN Z     0.948013      6.774713  KCAL/ANGSTROM
     25          9  N    CARTESIAN X     1.540718     -1.066409  KCAL/ANGSTROM
     26          9  N    CARTESIAN Y    -1.499534      2.271223  KCAL/ANGSTROM
     27          9  N    CARTESIAN Z     2.058672     -6.832961  KCAL/ANGSTROM
     28         10  H    CARTESIAN X    -2.611982     -0.091566  KCAL/ANGSTROM
     29         10  H    CARTESIAN Y    -0.326725     -0.064490  KCAL/ANGSTROM
     30         10  H    CARTESIAN Z    -1.911916      0.139879  KCAL/ANGSTROM
     31         11  H    CARTESIAN X    -3.185904      0.968851  KCAL/ANGSTROM
     32         11  H    CARTESIAN Y    -1.691586     -0.563358  KCAL/ANGSTROM
     33         11  H    CARTESIAN Z    -0.911972      0.958049  KCAL/ANGSTROM
     34         12  H    CARTESIAN X    -1.849600     -0.205616  KCAL/ANGSTROM
     35         12  H    CARTESIAN Y    -1.938697     -0.851546  KCAL/ANGSTROM
     36         12  H    CARTESIAN Z    -2.058672      1.257779  KCAL/ANGSTROM
     37         13  H    CARTESIAN X    -1.779242      0.580727  KCAL/ANGSTROM
     38         13  H    CARTESIAN Y    -0.403567     -1.325434  KCAL/ANGSTROM
     39         13  H    CARTESIAN Z     1.746869     -0.168207  KCAL/ANGSTROM
     40         14  H    CARTESIAN X    -2.732063      1.003972  KCAL/ANGSTROM
     41         14  H    CARTESIAN Y     0.541913     -0.274955  KCAL/ANGSTROM
     42         14  H    CARTESIAN Z     0.562271      0.386078  KCAL/ANGSTROM
     43         15  H    CARTESIAN X     0.197714      0.953206  KCAL/ANGSTROM
     44         15  H    CARTESIAN Y     1.033672     -0.732409  KCAL/ANGSTROM
     45         15  H    CARTESIAN Z     1.253377      0.304610  KCAL/ANGSTROM
     46         16  H    CARTESIAN X    -0.739283      0.666137  KCAL/ANGSTROM
     47         16  H    CARTESIAN Y     1.938697     -1.248463  KCAL/ANGSTROM
     48         16  H    CARTESIAN Z     0.062448      0.386075  KCAL/ANGSTROM
     49         17  H    CARTESIAN X    -0.181173      0.308208  KCAL/ANGSTROM
     50         17  H    CARTESIAN Y     0.317745      0.149203  KCAL/ANGSTROM
     51         17  H    CARTESIAN Z    -1.687252      1.617678  KCAL/ANGSTROM
     52         18  H    CARTESIAN X     1.076813     -0.320239  KCAL/ANGSTROM
     53         18  H    CARTESIAN Y    -1.862985      1.740240  KCAL/ANGSTROM
     54         18  H    CARTESIAN Z    -1.041596      1.686547  KCAL/ANGSTROM
     55         19  H    CARTESIAN X     3.185904     -2.798064  KCAL/ANGSTROM
     56         19  H    CARTESIAN Y    -0.457763      4.202007  KCAL/ANGSTROM
     57         19  H    CARTESIAN Z    -0.706315      2.790185  KCAL/ANGSTROM
     58         20  H    CARTESIAN X     2.234051      0.212349  KCAL/ANGSTROM
     59         20  H    CARTESIAN Y     0.155965      2.476819  KCAL/ANGSTROM
     60         20  H    CARTESIAN Z    -1.901871      4.815942  KCAL/ANGSTROM




   ATOM   CHEMICAL          X               Y               Z
  NUMBER   SYMBOL      (ANGSTROMS)     (ANGSTROMS)     (ANGSTROMS)

     1       C         -2.28928532  *  -1.21577096  *  -1.34918611  *
     2       N         -1.32625134  *  -0.95996849  *  -0.27599706  *
     3       C         -1.76714712  *   0.05974801  *   0.74787926  *
     4       C         -0.52420991  *   0.93728149  *   0.43696952  *
     5       C         -0.14860234  *  -0.09871651  *  -0.66359986  *
     6       C          1.16226388  *  -0.89621792  *  -0.45899299  *
     7       N          2.28972304  *  -0.04838462  *  -0.91770679  *
     8       C          1.37472102  *  -1.22672175  *   0.94801293  *
     9       N          1.54071757  *  -1.49953414  *   2.05867180  *
    10       H         -2.61198206  *  -0.32672489  *  -1.91191634  *
    11       H         -3.18590369  *  -1.69158574  *  -0.91197167  *
    12       H         -1.84959962  *  -1.93869655  *  -2.05867180  *
    13       H         -1.77924242  *  -0.40356653  *   1.74686896  *
    14       H         -2.73206310  *   0.54191329  *   0.56227099  *
    15       H          0.19771397  *   1.03367159  *   1.25337694  *
    16       H         -0.73928274  *   1.93869655  *   0.06244802  *
    17       H         -0.18117315  *   0.31774472  *  -1.68725231  *
    18       H          1.07681335  *  -1.86298527  *  -1.04159605  *
    19       H          3.18590369  *  -0.45776287  *  -0.70631476  *
    20       H          2.23405070  *   0.15596484  *  -1.90187129  *

                             CARTESIAN COORDINATES

   1    C       -2.289285322    -1.215770962    -1.349186113
   2    N       -1.326251338    -0.959968492    -0.275997060
   3    C       -1.767147121     0.059748013     0.747879260
   4    C       -0.524209905     0.937281494     0.436969522
   5    C       -0.148602339    -0.098716509    -0.663599859
   6    C        1.162263882    -0.896217922    -0.458992989
   7    N        2.289723038    -0.048384618    -0.917706786
   8    C        1.374721019    -1.226721746     0.948012934
   9    N        1.540717574    -1.499534143     2.058671797
  10    H       -2.611982063    -0.326724889    -1.911916336
  11    H       -3.185903688    -1.691585740    -0.911971672
  12    H       -1.849599623    -1.938696554    -2.058671797
  13    H       -1.779242422    -0.403566527     1.746868958
  14    H       -2.732063099     0.541913290     0.562270993
  15    H        0.197713966     1.033671594     1.253376940
  16    H       -0.739282738     1.938696554     0.062448017
  17    H       -0.181173149     0.317744717    -1.687252310
  18    H        1.076813350    -1.862985268    -1.041596045
  19    H        3.185903688    -0.457762873    -0.706314759
  20    H        2.234050701     0.155964837    -1.901871293


           Empirical Formula: C6 H11 N3  =    20 atoms



      MOLECULAR POINT GROUP   :   C1  


                  EIGENVALUES  
 -36.20907 -35.68700 -35.54654 -27.45854 -25.82507 -23.16527 -22.77258 -19.91909
 -17.82891 -17.29449 -17.10831 -16.35414 -15.92818 -15.17282 -14.63640 -14.14712
 -13.64525 -13.61713 -13.18431 -13.10029 -12.53386 -11.87600 -11.75309 -10.13279
  -9.57081   0.71625   0.85940   2.14360   2.59974   2.99118   3.10137   3.38975
   3.86409   3.96999   4.88547   4.96645   5.32268   5.39165   5.52294   5.64645
   5.73394   5.92711   5.98754   6.05197   6.32850   6.52887   6.85726


              NET ATOMIC CHARGES AND DIPOLE CONTRIBUTIONS

  ATOM NO.   TYPE          CHARGE      No. of ELECS.   s-Pop       p-Pop       
    1          C          -0.292425        4.2924     1.06234     3.23008
    2          N          -0.460138        5.4601     1.72075     3.73939
    3          C          -0.125722        4.1257     1.08240     3.04332
    4          C          -0.330598        4.3306     1.07736     3.25324
    5          C           0.026354        3.9736     1.08988     2.88376
    6          C           0.039033        3.9610     1.06167     2.89930
    7          N          -0.685455        5.6855     1.64039     4.04506
    8          C           0.214597        3.7854     1.13529     2.65011
    9          N          -0.388982        5.3890     1.83017     3.55881
   10          H           0.141460        0.8585     0.85854
   11          H           0.158641        0.8414     0.84136
   12          H           0.157307        0.8427     0.84269
   13          H           0.153016        0.8470     0.84698
   14          H           0.145694        0.8543     0.85431
   15          H           0.161604        0.8384     0.83840
   16          H           0.161203        0.8388     0.83880
   17          H           0.160700        0.8393     0.83930
   18          H           0.188568        0.8114     0.81143
   19          H           0.284205        0.7158     0.71580
   20          H           0.290937        0.7091     0.70906
 DIPOLE           X         Y         Z       TOTAL
 POINT-CHG.    -1.687     1.382    -5.377     5.802
 HYBRID         0.166    -0.070    -1.103     1.117
 SUM           -1.521     1.312    -6.479     6.784


          ATOMIC ORBITAL ELECTRON POPULATIONS

     Atom    s        px        py        pz   
    1  C   1.06234   1.05086   1.15648   1.02275
    2  N   1.72075   1.14131   1.41002   1.18806
    3  C   1.08240   1.05290   0.95761   1.03281
    4  C   1.07736   1.07471   1.08050   1.09803
    5  C   1.08988   0.88076   0.92777   1.07524
    6  C   1.06167   0.93829   1.03999   0.92103
    7  N   1.64039   1.15308   1.53455   1.35743
    8  C   1.13529   0.86405   0.86261   0.92345
    9  N   1.83017   1.15247   1.16968   1.23666
   10  H   0.85854
   11  H   0.84136
   12  H   0.84269
   13  H   0.84698
   14  H   0.85431
   15  H   0.83840
   16  H   0.83880
   17  H   0.83930
   18  H   0.81143
   19  H   0.71580
   20  H   0.70906

 **********************
 *                    *
 * JOB ENDED NORMALLY *
 *                    *
 **********************



 TOTAL JOB TIME:             1.31 SECONDS

 == MOPAC DONE ==
