 *******************************************************************************
 **                                                                           **
 **                              MOPAC v23.2                                  **
 **                                                                           **
 *******************************************************************************
 **          Digital Object Identifier (DOI): 10.5281/zenodo.6511958          **
 **    Visit the DOI location for information on how to cite this program.    **
 *******************************************************************************

                              PM7 CALCULATION RESULTS

 *******************************************************************************
 *  CALCULATION DONE: (MAX THREADS = 40)             Fri Sep 19 21:42:33 2025  *
 *  PM7        - The PM7 Hamiltonian to be used
 *
 *
 *
 *                 CHARGE ON SYSTEM = +1
 *
 *
 *
 *  1SCF       - DO 1 SCF AND THEN STOP 
 *  T=         - A TIME OF 172800.0 SECONDS REQUESTED
 *  DUMP=N     - RESTART FILE WRITTEN EVERY 7200.0 SECONDS REQUESTED
 *  RELSCF     - DEFAULT SCF CRITERION MULTIPLIED BY 0.0001
 *              (DEFAULT SCF CRITERION = 0.00010)
 *  GRADIENTS  - ALL GRADIENTS TO BE PRINTED
 *  DISP       - PRINT DISPERSION AND HYDROGEN BOND ENERGIES
 *******************************************************************************
PM7 1SCF GRADIENTS DISP RELSCF=0.0001 CHARGE=1
 Title: ASE calculation

   ATOM   CHEMICAL          X               Y               Z
  NUMBER   SYMBOL      (ANGSTROMS)     (ANGSTROMS)     (ANGSTROMS)

     1       C         -2.18910975  *  -0.11729433  *   0.38033153  *
     2       N         -1.68400801  *  -1.19302883  *   1.14565207  *
     3       C         -1.01942517  *  -1.02842788  *  -0.12853894  *
     4       C          0.35661592  *  -0.60002728  *  -0.06853785  *
     5       C          1.36128266  *   0.15670478  *  -0.96341745  *
     6       C          1.47392448  *   1.23161286  *   0.15136258  *
     7       N          0.93876450  *   0.19093277  *   1.15384159  *
     8       C          2.10417770  *  -0.81747326  *   1.17265592  *
     9       C          1.76808621  *  -1.17116519  *  -0.30126262  *
    10       H         -3.17458747  *  -0.19734423  *  -0.12414443  *
    11       H         -2.05012992  *   0.92098446  *   0.75004470  *
    12       H         -1.46505526  *  -1.40481357  *   2.09333418  *
    13       H         -1.26326115  *  -1.74971420  *  -0.94800585  *
    14       H          1.35785431  *   0.35470998  *  -2.01633929  *
    15       H          2.47696946  *   1.62080606  *   0.37333032  *
    16       H          0.77699675  *   2.07560923  *   0.05134806  *
    17       H          1.91369324  *  -1.62459392  *   1.89349339  *
    18       H          3.09220657  *  -0.38368887  *   1.37786940  *
    19       H          2.10639408  *  -2.04611178  *  -0.81862570  *



          CARTESIAN COORDINATES 

    NO.       ATOM           X           Y           Z

     1         C         -2.1891     -0.1173      0.3803
     2         N         -1.6840     -1.1930      1.1457
     3         C         -1.0194     -1.0284     -0.1285
     4         C          0.3566     -0.6000     -0.0685
     5         C          1.3613      0.1567     -0.9634
     6         C          1.4739      1.2316      0.1514
     7         N          0.9388      0.1909      1.1538
     8         C          2.1042     -0.8175      1.1727
     9         C          1.7681     -1.1712     -0.3013
    10         H         -3.1746     -0.1973     -0.1241
    11         H         -2.0501      0.9210      0.7500
    12         H         -1.4651     -1.4048      2.0933
    13         H         -1.2633     -1.7497     -0.9480
    14         H          1.3579      0.3547     -2.0163
    15         H          2.4770      1.6208      0.3733
    16         H          0.7770      2.0756      0.0513
    17         H          1.9137     -1.6246      1.8935
    18         H          3.0922     -0.3837      1.3779
    19         H          2.1064     -2.0461     -0.8186

 General Reference for PM7:
 "Optimization of Parameters for Semiempirical Methods VI: More Modifications to the 
 NDDO Approximations and Re-optimization of Parameters", J. J. P. Stewart, J. Mol. Mod., 1:32, 19 (2013)
 https://link.springer.com/article/10.1007/s00894-012-1667-x

           Empirical Formula: C7 H10 N2  =    19 atoms



      MOLECULAR POINT GROUP   :   C1  


          UHF CALCULATION, NO. OF ALPHA ELECTRONS =   24
                           NO. OF BETA  ELECTRONS =   23
  SCF CRITERION =    0.1000E-07

 -------------------------------------------------------------------------------
 PM7 1SCF GRADIENTS DISP RELSCF=0.0001 CHARGE=1
 Title: ASE calculation



     1SCF WAS SPECIFIED, SO BFGS WAS NOT USED                 
     SCF FIELD WAS ACHIEVED                                   


                              PM7 CALCULATION
                                                       MOPAC v23.2 Linux
                                                       Fri Sep 19 21:42:34 2025




          FINAL HEAT OF FORMATION =        337.98767 KCAL/MOL =    1414.14040 KJ/MOL

          TOTAL ENERGY            =     -31210.74024 KCAL/MOL = ELECTRONIC ENERGY + CORE-CORE REPULSION
          ENERGY OF ATOMS         =      31550.59433 KCAL/MOL
                              SUM =        339.85410 KCAL/MOL
          DISPERSION ENERGY       =         -1.86643 KCAL/MOL
                              SUM =        337.98767 KCAL/MOL = FINAL HEAT OF FORMATION



          TOTAL ENERGY            =      -1353.42579 EV
          ELECTRONIC ENERGY       =      -7027.21004 EV 
          CORE-CORE REPULSION     =       5673.78425 EV
          COSMO AREA              =        158.69 SQUARE ANGSTROMS
          COSMO VOLUME            =        159.33 CUBIC ANGSTROMS

          GRADIENT NORM           =          1.09315          =       0.25078 PER ATOM
          IONIZATION POTENTIAL    =         14.212729 EV
          ALPHA SOMO LUMO (EV)    =        -14.214 -4.538
          BETA  SOMO LUMO (EV)    =        -14.213 -7.304
          NO. OF ALPHA ELECTRONS  =         24
          NO. OF BETA  ELECTRONS  =         23
          MOLECULAR WEIGHT        =        122.1694         POINT GROUP:  C1  

          MOLECULAR DIMENSIONS (Angstroms)

            Atom       Atom       Distance
            H    18    H    10     6.44697
            H    12    H    14     4.99415
            H    16    H    19     4.22940


          SCF CALCULATIONS        =          1

          WALL-CLOCK TIME         =      0.930 SECONDS
          COMPUTATION TIME        =      0.637 SECONDS

          LARGEST ATOMIC GRADIENTS

          Atom     Label                     Cartesian Gradients           Cartesian Coordinates       |Gradient|
                                           X          Y          Z        X          Y          Z

            15       H                   0.266     -0.127     -0.310    2.47697    1.62081    0.37333      0.428
            17       H                  -0.366      0.104     -0.101    1.91369   -1.62459    1.89349      0.393
             7       N                  -0.371     -0.105     -0.030    0.93876    0.19093    1.15384      0.386
            10       H                  -0.070     -0.107      0.329   -3.17459   -0.19734   -0.12414      0.353
             1       C                   0.243      0.035     -0.223   -2.18911   -0.11729    0.38033      0.332
            19       H                   0.263      0.120      0.020    2.10639   -2.04611   -0.81863      0.290
            13       H                   0.241      0.063     -0.051   -1.26326   -1.74971   -0.94801      0.255
             4       C                  -0.050      0.055      0.211    0.35662   -0.60003   -0.06854      0.224
             9       C                  -0.200     -0.006     -0.082    1.76809   -1.17117   -0.30126      0.216
             3       C                   0.118     -0.170      0.058   -1.01943   -1.02843   -0.12854      0.215



       FINAL  POINT  AND  DERIVATIVES

   PARAMETER     ATOM    TYPE            VALUE        GRADIENT
      1          1  C    CARTESIAN X    -2.189110      0.243174  KCAL/ANGSTROM
      2          1  C    CARTESIAN Y    -0.117294      0.035075  KCAL/ANGSTROM
      3          1  C    CARTESIAN Z     0.380332     -0.222973  KCAL/ANGSTROM
      4          2  N    CARTESIAN X    -1.684008      0.014812  KCAL/ANGSTROM
      5          2  N    CARTESIAN Y    -1.193029     -0.016585  KCAL/ANGSTROM
      6          2  N    CARTESIAN Z     1.145652     -0.051219  KCAL/ANGSTROM
      7          3  C    CARTESIAN X    -1.019425      0.117864  KCAL/ANGSTROM
      8          3  C    CARTESIAN Y    -1.028428     -0.170154  KCAL/ANGSTROM
      9          3  C    CARTESIAN Z    -0.128539      0.058135  KCAL/ANGSTROM
     10          4  C    CARTESIAN X     0.356616     -0.049733  KCAL/ANGSTROM
     11          4  C    CARTESIAN Y    -0.600027      0.055131  KCAL/ANGSTROM
     12          4  C    CARTESIAN Z    -0.068538      0.210913  KCAL/ANGSTROM
     13          5  C    CARTESIAN X     1.361283      0.197976  KCAL/ANGSTROM
     14          5  C    CARTESIAN Y     0.156705     -0.024849  KCAL/ANGSTROM
     15          5  C    CARTESIAN Z    -0.963417      0.026865  KCAL/ANGSTROM
     16          6  C    CARTESIAN X     1.473924     -0.016524  KCAL/ANGSTROM
     17          6  C    CARTESIAN Y     1.231613      0.024511  KCAL/ANGSTROM
     18          6  C    CARTESIAN Z     0.151363      0.063299  KCAL/ANGSTROM
     19          7  N    CARTESIAN X     0.938764     -0.370539  KCAL/ANGSTROM
     20          7  N    CARTESIAN Y     0.190933     -0.105172  KCAL/ANGSTROM
     21          7  N    CARTESIAN Z     1.153842     -0.030420  KCAL/ANGSTROM
     22          8  C    CARTESIAN X     2.104178      0.006379  KCAL/ANGSTROM
     23          8  C    CARTESIAN Y    -0.817473     -0.040392  KCAL/ANGSTROM
     24          8  C    CARTESIAN Z     1.172656     -0.106715  KCAL/ANGSTROM
     25          9  C    CARTESIAN X     1.768086     -0.200085  KCAL/ANGSTROM
     26          9  C    CARTESIAN Y    -1.171165     -0.006126  KCAL/ANGSTROM
     27          9  C    CARTESIAN Z    -0.301263     -0.082344  KCAL/ANGSTROM
     28         10  H    CARTESIAN X    -3.174587     -0.069622  KCAL/ANGSTROM
     29         10  H    CARTESIAN Y    -0.197344     -0.107184  KCAL/ANGSTROM
     30         10  H    CARTESIAN Z    -0.124144      0.329194  KCAL/ANGSTROM
     31         11  H    CARTESIAN X    -2.050130     -0.076735  KCAL/ANGSTROM
     32         11  H    CARTESIAN Y     0.920984      0.107589  KCAL/ANGSTROM
     33         11  H    CARTESIAN Z     0.750045      0.057846  KCAL/ANGSTROM
     34         12  H    CARTESIAN X    -1.465055     -0.115926  KCAL/ANGSTROM
     35         12  H    CARTESIAN Y    -1.404814      0.082397  KCAL/ANGSTROM
     36         12  H    CARTESIAN Z     2.093334      0.013182  KCAL/ANGSTROM
     37         13  H    CARTESIAN X    -1.263261      0.241328  KCAL/ANGSTROM
     38         13  H    CARTESIAN Y    -1.749714      0.063237  KCAL/ANGSTROM
     39         13  H    CARTESIAN Z    -0.948006     -0.051248  KCAL/ANGSTROM
     40         14  H    CARTESIAN X     1.357854     -0.113133  KCAL/ANGSTROM
     41         14  H    CARTESIAN Y     0.354710      0.047641  KCAL/ANGSTROM
     42         14  H    CARTESIAN Z    -2.016339      0.012536  KCAL/ANGSTROM
     43         15  H    CARTESIAN X     2.476969      0.265952  KCAL/ANGSTROM
     44         15  H    CARTESIAN Y     1.620806     -0.127356  KCAL/ANGSTROM
     45         15  H    CARTESIAN Z     0.373330     -0.310006  KCAL/ANGSTROM
     46         16  H    CARTESIAN X     0.776997     -0.131077  KCAL/ANGSTROM
     47         16  H    CARTESIAN Y     2.075609      0.016107  KCAL/ANGSTROM
     48         16  H    CARTESIAN Z     0.051348      0.036669  KCAL/ANGSTROM
     49         17  H    CARTESIAN X     1.913693     -0.365799  KCAL/ANGSTROM
     50         17  H    CARTESIAN Y    -1.624594      0.103562  KCAL/ANGSTROM
     51         17  H    CARTESIAN Z     1.893493     -0.100501  KCAL/ANGSTROM
     52         18  H    CARTESIAN X     3.092207      0.158536  KCAL/ANGSTROM
     53         18  H    CARTESIAN Y    -0.383689     -0.057122  KCAL/ANGSTROM
     54         18  H    CARTESIAN Z     1.377869      0.126826  KCAL/ANGSTROM
     55         19  H    CARTESIAN X     2.106394      0.263154  KCAL/ANGSTROM
     56         19  H    CARTESIAN Y    -2.046112      0.119686  KCAL/ANGSTROM
     57         19  H    CARTESIAN Z    -0.818626      0.019957  KCAL/ANGSTROM




   ATOM   CHEMICAL          X               Y               Z
  NUMBER   SYMBOL      (ANGSTROMS)     (ANGSTROMS)     (ANGSTROMS)

     1       C         -2.18910975  *  -0.11729433  *   0.38033153  *
     2       N         -1.68400801  *  -1.19302883  *   1.14565207  *
     3       C         -1.01942517  *  -1.02842788  *  -0.12853894  *
     4       C          0.35661592  *  -0.60002728  *  -0.06853785  *
     5       C          1.36128266  *   0.15670478  *  -0.96341745  *
     6       C          1.47392448  *   1.23161286  *   0.15136258  *
     7       N          0.93876450  *   0.19093277  *   1.15384159  *
     8       C          2.10417770  *  -0.81747326  *   1.17265592  *
     9       C          1.76808621  *  -1.17116519  *  -0.30126262  *
    10       H         -3.17458747  *  -0.19734423  *  -0.12414443  *
    11       H         -2.05012992  *   0.92098446  *   0.75004470  *
    12       H         -1.46505526  *  -1.40481357  *   2.09333418  *
    13       H         -1.26326115  *  -1.74971420  *  -0.94800585  *
    14       H          1.35785431  *   0.35470998  *  -2.01633929  *
    15       H          2.47696946  *   1.62080606  *   0.37333032  *
    16       H          0.77699675  *   2.07560923  *   0.05134806  *
    17       H          1.91369324  *  -1.62459392  *   1.89349339  *
    18       H          3.09220657  *  -0.38368887  *   1.37786940  *
    19       H          2.10639408  *  -2.04611178  *  -0.81862570  *

                             CARTESIAN COORDINATES

   1    C       -2.189109751    -0.117294326     0.380331533
   2    N       -1.684008011    -1.193028833     1.145652075
   3    C       -1.019425172    -1.028427877    -0.128538945
   4    C        0.356615925    -0.600027282    -0.068537851
   5    C        1.361282655     0.156704777    -0.963417449
   6    C        1.473924477     1.231612864     0.151362579
   7    N        0.938764499     0.190932772     1.153841586
   8    C        2.104177705    -0.817473262     1.172655923
   9    C        1.768086205    -1.171165188    -0.301262617
  10    H       -3.174587468    -0.197344231    -0.124144431
  11    H       -2.050129919     0.920984455     0.750044704
  12    H       -1.465055256    -1.404813574     2.093334184
  13    H       -1.263261148    -1.749714198    -0.948005854
  14    H        1.357854311     0.354709980    -2.016339293
  15    H        2.476969459     1.620806064     0.373330316
  16    H        0.776996747     2.075609230     0.051348061
  17    H        1.913693241    -1.624593920     1.893493386
  18    H        3.092206566    -0.383688866     1.377869400
  19    H        2.106394081    -2.046111782    -0.818625702


           Empirical Formula: C7 H10 N2  =    19 atoms



      MOLECULAR POINT GROUP   :   C1  


          ALPHA EIGENVALUES  
 -44.26446 -41.07070 -31.79105 -31.00087 -29.14410 -28.57075 -26.29215 -24.54924
 -23.43803 -22.92268 -21.77725 -20.96046 -20.54256 -19.90480 -19.29761 -18.84931
 -18.40659 -17.45266 -17.11866 -16.63337 -16.25405 -15.69245 -14.81463 -14.21447
  -4.53789  -4.06776  -2.78137  -2.33964  -2.10015  -1.40064  -1.33259  -0.87579
  -0.85288  -0.56782  -0.43722  -0.16562   0.10117   0.14572   0.23832   0.35993
   1.68505   1.90193   1.92654   1.94667   2.22109   2.34564


           BETA EIGENVALUES 
 -42.75870 -41.03739 -31.59645 -30.47217 -29.12716 -28.42010 -26.18090 -24.23243
 -22.93657 -22.85357 -21.57808 -20.51927 -20.27633 -19.87320 -19.05799 -18.69804
 -18.19184 -17.12064 -16.62326 -16.25433 -15.69929 -14.83583 -14.21273  -7.30351
  -3.94206  -3.77015  -2.54510  -2.30891  -2.04952  -1.38905  -1.27909  -0.87002
  -0.83524  -0.56718  -0.29752  -0.10805   0.17195   0.24065   0.35375   0.60447
   1.68551   1.90360   1.92725   1.94751   2.22125   2.34599


              NET ATOMIC CHARGES AND DIPOLE CONTRIBUTIONS

  ATOM NO.   TYPE          CHARGE      No. of ELECS.   s-Pop       p-Pop       
    1          C          -0.183504        4.1835     1.10263     3.08087
    2          N          -0.035118        5.0351     1.55925     3.47587
    3          C           0.054549        3.9455     1.08113     2.86432
    4          C          -0.163763        4.1638     1.05549     3.10828
    5          C          -0.109772        4.1098     1.09948     3.01029
    6          C          -0.127577        4.1276     1.09433     3.03325
    7          N          -0.348599        5.3486     1.80056     3.54804
    8          C          -0.129513        4.1295     1.09412     3.03540
    9          C          -0.126043        4.1260     1.09757     3.02847
   10          H           0.246873        0.7531     0.75313
   11          H           0.240710        0.7593     0.75929
   12          H           0.363852        0.6361     0.63615
   13          H           0.236875        0.7631     0.76312
   14          H           0.193589        0.8064     0.80641
   15          H           0.177624        0.8224     0.82238
   16          H           0.169164        0.8308     0.83084
   17          H           0.167596        0.8324     0.83240
   18          H           0.178523        0.8215     0.82148
   19          H           0.194535        0.8055     0.80547
 DIPOLE           X         Y         Z       TOTAL
 POINT-CHG.    -5.431    -1.441    -0.331     5.629
 HYBRID        -0.167    -0.533     0.300     0.634
 SUM           -5.598    -1.974    -0.031     5.936


          ATOMIC ORBITAL ELECTRON POPULATIONS

     Atom    s        px        py        pz   
    1  C   1.10263   1.08146   1.00665   0.99275
    2  N   1.55925   1.17471   1.13124   1.16992
    3  C   1.08113   0.96322   1.01382   0.88728
    4  C   1.05549   0.92992   1.15783   1.02053
    5  C   1.09948   0.97256   0.95953   1.07820
    6  C   1.09433   1.15537   0.99127   0.88661
    7  N   1.80056   1.21074   1.10974   1.22756
    8  C   1.09412   1.02669   1.01941   0.98930
    9  C   1.09757   0.92531   1.06679   1.03636
   10  H   0.75313
   11  H   0.75929
   12  H   0.63615
   13  H   0.76312
   14  H   0.80641
   15  H   0.82238
   16  H   0.83084
   17  H   0.83240
   18  H   0.82148
   19  H   0.80547


                    (SZ)    =    0.500000
                    (S**2)  =    0.759713


          ATOMIC ORBITAL SPIN POPULATIONS

    Atom   Total    s     px     py     pz   
         Atomic
    1  C -0.0121 -0.006  0.030 -0.002 -0.034
    2  N  0.9510  0.052  0.400  0.433  0.067
    3  C -0.0295 -0.005 -0.005  0.025 -0.045
    4  C  0.0213  0.004  0.008  0.008  0.001
    5  C  0.0147  0.000  0.013  0.001  0.000
    6  C  0.0002 -0.000  0.000  0.000 -0.000
    7  N -0.0040  0.000 -0.001 -0.001 -0.003
    8  C  0.0004  0.000  0.000  0.000  0.000
    9  C -0.0019  0.000 -0.001 -0.001 -0.000
   10  H  0.0352  0.035
   11  H  0.0293  0.029
   12  H -0.0262 -0.026
   13  H  0.0216  0.022
   14  H -0.0004 -0.000
   15  H  0.0004  0.000
   16  H  0.0001  0.000
   17  H -0.0001 -0.000
   18  H -0.0001 -0.000
   19  H  0.0001  0.000

 **********************
 *                    *
 * JOB ENDED NORMALLY *
 *                    *
 **********************



 TOTAL JOB TIME:             1.36 SECONDS

 == MOPAC DONE ==
