 *******************************************************************************
 **                                                                           **
 **                              MOPAC v23.2                                  **
 **                                                                           **
 *******************************************************************************
 **          Digital Object Identifier (DOI): 10.5281/zenodo.6511958          **
 **    Visit the DOI location for information on how to cite this program.    **
 *******************************************************************************

                              PM7 CALCULATION RESULTS

 *******************************************************************************
 *  CALCULATION DONE: (MAX THREADS = 40)             Fri Sep 19 21:30:42 2025  *
 *  PM7        - The PM7 Hamiltonian to be used
 *
 *
 *
 *                 CHARGE ON SYSTEM = +1
 *
 *
 *
 *  1SCF       - DO 1 SCF AND THEN STOP 
 *  T=         - A TIME OF 172800.0 SECONDS REQUESTED
 *  DUMP=N     - RESTART FILE WRITTEN EVERY 7200.0 SECONDS REQUESTED
 *  RELSCF     - DEFAULT SCF CRITERION MULTIPLIED BY 0.0001
 *              (DEFAULT SCF CRITERION = 0.00010)
 *  GRADIENTS  - ALL GRADIENTS TO BE PRINTED
 *  DISP       - PRINT DISPERSION AND HYDROGEN BOND ENERGIES
 *******************************************************************************
PM7 1SCF GRADIENTS DISP RELSCF=0.0001 CHARGE=1
 Title: ASE calculation

   ATOM   CHEMICAL          X               Y               Z
  NUMBER   SYMBOL      (ANGSTROMS)     (ANGSTROMS)     (ANGSTROMS)

     1       N          2.14753580  *   1.51902772  *   0.71077998  *
     2       C          1.29932428  *   0.39805076  *   0.51590322  *
     3       C          1.76123573  *  -0.75515335  *  -0.43693574  *
     4       O          2.56861254  *  -1.59637568  *  -0.55756772  *
     5       O          0.70510333  *  -0.48339381  *  -1.36278342  *
     6       C          0.20527913  *   0.63399017  *  -0.61543212  *
     7       C         -1.21871271  *   0.34614226  *  -0.20677563  *
     8       C         -1.79719199  *  -1.08987205  *  -0.30837618  *
     9       N         -2.11446255  *  -0.07710665  *  -1.24382189  *
    10       H          2.74190979  *   1.76892035  *  -0.06444694  *
    11       H          2.64765313  *   1.54162862  *   1.58792940  *
    12       H          0.88708527  *   0.01365171  *   1.47447170  *
    13       H          0.31787013  *   1.57421855  *  -1.18865358  *
    14       H         -1.60447356  *   1.03760047  *   0.57978535  *
    15       H         -1.17842804  *  -1.95626137  *  -0.64364388  *
    16       H         -2.55613435  *  -1.44710713  *   0.41678294  *
    17       H         -2.39160117  *   0.07924877  *  -2.18289875  *



          CARTESIAN COORDINATES 

    NO.       ATOM           X           Y           Z

     1         N          2.1475      1.5190      0.7108
     2         C          1.2993      0.3981      0.5159
     3         C          1.7612     -0.7552     -0.4369
     4         O          2.5686     -1.5964     -0.5576
     5         O          0.7051     -0.4834     -1.3628
     6         C          0.2053      0.6340     -0.6154
     7         C         -1.2187      0.3461     -0.2068
     8         C         -1.7972     -1.0899     -0.3084
     9         N         -2.1145     -0.0771     -1.2438
    10         H          2.7419      1.7689     -0.0644
    11         H          2.6477      1.5416      1.5879
    12         H          0.8871      0.0137      1.4745
    13         H          0.3179      1.5742     -1.1887
    14         H         -1.6045      1.0376      0.5798
    15         H         -1.1784     -1.9563     -0.6436
    16         H         -2.5561     -1.4471      0.4168
    17         H         -2.3916      0.0792     -2.1829

 General Reference for PM7:
 "Optimization of Parameters for Semiempirical Methods VI: More Modifications to the 
 NDDO Approximations and Re-optimization of Parameters", J. J. P. Stewart, J. Mol. Mod., 1:32, 19 (2013)
 https://link.springer.com/article/10.1007/s00894-012-1667-x

           Empirical Formula: C5 H8 N2 O2  =    17 atoms



      MOLECULAR POINT GROUP   :   C1  


          UHF CALCULATION, NO. OF ALPHA ELECTRONS =   25
                           NO. OF BETA  ELECTRONS =   24
  SCF CRITERION =    0.1000E-07

 -------------------------------------------------------------------------------
 PM7 1SCF GRADIENTS DISP RELSCF=0.0001 CHARGE=1
 Title: ASE calculation



     1SCF WAS SPECIFIED, SO BFGS WAS NOT USED                 
     SCF FIELD WAS ACHIEVED                                   


                              PM7 CALCULATION
                                                       MOPAC v23.2 Linux
                                                       Fri Sep 19 21:30:43 2025




          FINAL HEAT OF FORMATION =        187.62814 KCAL/MOL =     785.03614 KJ/MOL

          TOTAL ENERGY            =     -38606.14789 KCAL/MOL = ELECTRONIC ENERGY + CORE-CORE REPULSION
          ENERGY OF ATOMS         =      38795.45340 KCAL/MOL
                              SUM =        189.30551 KCAL/MOL
          DISPERSION ENERGY       =         -1.67737 KCAL/MOL
                              SUM =        187.62814 KCAL/MOL = FINAL HEAT OF FORMATION



          TOTAL ENERGY            =      -1674.12102 EV
          ELECTRONIC ENERGY       =      -7615.03589 EV 
          CORE-CORE REPULSION     =       5940.91487 EV
          COSMO AREA              =        155.66 SQUARE ANGSTROMS
          COSMO VOLUME            =        149.84 CUBIC ANGSTROMS

          GRADIENT NORM           =          1.05215          =       0.25518 PER ATOM
          IONIZATION POTENTIAL    =         13.510672 EV
          ALPHA SOMO LUMO (EV)    =        -13.518 -4.966
          BETA  SOMO LUMO (EV)    =        -13.511 -7.465
          NO. OF ALPHA ELECTRONS  =         25
          NO. OF BETA  ELECTRONS  =         24
          MOLECULAR WEIGHT        =        128.1304         POINT GROUP:  C1  

          MOLECULAR DIMENSIONS (Angstroms)

            Atom       Atom       Distance
            H    17    H    11     6.46156
            H    14    O     4     4.65482
            H    16    H    10     4.06197


          SCF CALCULATIONS        =          1

          WALL-CLOCK TIME         =      0.836 SECONDS
          COMPUTATION TIME        =      0.820 SECONDS

          LARGEST ATOMIC GRADIENTS

          Atom     Label                     Cartesian Gradients           Cartesian Coordinates       |Gradient|
                                           X          Y          Z        X          Y          Z

             3       C                  -0.140      0.363      0.236    1.76124   -0.75515   -0.43694      0.455
            11       H                   0.230     -0.304     -0.008    2.64765    1.54163    1.58793      0.381
            12       H                  -0.042      0.305     -0.106    0.88709    0.01365    1.47447      0.325
            13       H                  -0.273      0.066     -0.040    0.31787    1.57422   -1.18865      0.283
            16       H                   0.271     -0.007      0.031   -2.55613   -1.44711    0.41678      0.273
            15       H                  -0.264     -0.055     -0.026   -1.17843   -1.95626   -0.64364      0.271
             6       C                  -0.077      0.023     -0.258    0.20528    0.63399   -0.61543      0.270
             9       N                   0.207      0.113      0.119   -2.11446   -0.07711   -1.24382      0.264
            14       H                   0.147     -0.205      0.040   -1.60447    1.03760    0.57979      0.256
             4       O                  -0.080      0.053      0.217    2.56861   -1.59638   -0.55757      0.237



       FINAL  POINT  AND  DERIVATIVES

   PARAMETER     ATOM    TYPE            VALUE        GRADIENT
      1          1  N    CARTESIAN X     2.147536     -0.094705  KCAL/ANGSTROM
      2          1  N    CARTESIAN Y     1.519028     -0.048661  KCAL/ANGSTROM
      3          1  N    CARTESIAN Z     0.710780      0.053288  KCAL/ANGSTROM
      4          2  C    CARTESIAN X     1.299324     -0.018896  KCAL/ANGSTROM
      5          2  C    CARTESIAN Y     0.398051     -0.055924  KCAL/ANGSTROM
      6          2  C    CARTESIAN Z     0.515903     -0.094548  KCAL/ANGSTROM
      7          3  C    CARTESIAN X     1.761236     -0.139575  KCAL/ANGSTROM
      8          3  C    CARTESIAN Y    -0.755153      0.363300  KCAL/ANGSTROM
      9          3  C    CARTESIAN Z    -0.436936      0.235832  KCAL/ANGSTROM
     10          4  O    CARTESIAN X     2.568613     -0.079976  KCAL/ANGSTROM
     11          4  O    CARTESIAN Y    -1.596376      0.052520  KCAL/ANGSTROM
     12          4  O    CARTESIAN Z    -0.557568      0.217262  KCAL/ANGSTROM
     13          5  O    CARTESIAN X     0.705103      0.137477  KCAL/ANGSTROM
     14          5  O    CARTESIAN Y    -0.483394      0.100013  KCAL/ANGSTROM
     15          5  O    CARTESIAN Z    -1.362783     -0.043798  KCAL/ANGSTROM
     16          6  C    CARTESIAN X     0.205279     -0.077450  KCAL/ANGSTROM
     17          6  C    CARTESIAN Y     0.633990      0.023185  KCAL/ANGSTROM
     18          6  C    CARTESIAN Z    -0.615432     -0.257842  KCAL/ANGSTROM
     19          7  C    CARTESIAN X    -1.218713      0.126449  KCAL/ANGSTROM
     20          7  C    CARTESIAN Y     0.346142     -0.096307  KCAL/ANGSTROM
     21          7  C    CARTESIAN Z    -0.206776      0.082001  KCAL/ANGSTROM
     22          8  C    CARTESIAN X    -1.797192     -0.012426  KCAL/ANGSTROM
     23          8  C    CARTESIAN Y    -1.089872     -0.012137  KCAL/ANGSTROM
     24          8  C    CARTESIAN Z    -0.308376     -0.118957  KCAL/ANGSTROM
     25          9  N    CARTESIAN X    -2.114463      0.206671  KCAL/ANGSTROM
     26          9  N    CARTESIAN Y    -0.077107      0.113153  KCAL/ANGSTROM
     27          9  N    CARTESIAN Z    -1.243822      0.119228  KCAL/ANGSTROM
     28         10  H    CARTESIAN X     2.741910     -0.018490  KCAL/ANGSTROM
     29         10  H    CARTESIAN Y     1.768920     -0.162004  KCAL/ANGSTROM
     30         10  H    CARTESIAN Z    -0.064447      0.017641  KCAL/ANGSTROM
     31         11  H    CARTESIAN X     2.647653      0.229872  KCAL/ANGSTROM
     32         11  H    CARTESIAN Y     1.541629     -0.303699  KCAL/ANGSTROM
     33         11  H    CARTESIAN Z     1.587929     -0.008435  KCAL/ANGSTROM
     34         12  H    CARTESIAN X     0.887085     -0.041975  KCAL/ANGSTROM
     35         12  H    CARTESIAN Y     0.013652      0.304558  KCAL/ANGSTROM
     36         12  H    CARTESIAN Z     1.474472     -0.105845  KCAL/ANGSTROM
     37         13  H    CARTESIAN X     0.317870     -0.272501  KCAL/ANGSTROM
     38         13  H    CARTESIAN Y     1.574219      0.065915  KCAL/ANGSTROM
     39         13  H    CARTESIAN Z    -1.188654     -0.039803  KCAL/ANGSTROM
     40         14  H    CARTESIAN X    -1.604474      0.147085  KCAL/ANGSTROM
     41         14  H    CARTESIAN Y     1.037600     -0.205191  KCAL/ANGSTROM
     42         14  H    CARTESIAN Z     0.579785      0.039835  KCAL/ANGSTROM
     43         15  H    CARTESIAN X    -1.178428     -0.263851  KCAL/ANGSTROM
     44         15  H    CARTESIAN Y    -1.956261     -0.054504  KCAL/ANGSTROM
     45         15  H    CARTESIAN Z    -0.643644     -0.026346  KCAL/ANGSTROM
     46         16  H    CARTESIAN X    -2.556134      0.271072  KCAL/ANGSTROM
     47         16  H    CARTESIAN Y    -1.447107     -0.006867  KCAL/ANGSTROM
     48         16  H    CARTESIAN Z     0.416783      0.031266  KCAL/ANGSTROM
     49         17  H    CARTESIAN X    -2.391601     -0.098781  KCAL/ANGSTROM
     50         17  H    CARTESIAN Y     0.079249     -0.077355  KCAL/ANGSTROM
     51         17  H    CARTESIAN Z    -2.182899     -0.100783  KCAL/ANGSTROM




   ATOM   CHEMICAL          X               Y               Z
  NUMBER   SYMBOL      (ANGSTROMS)     (ANGSTROMS)     (ANGSTROMS)

     1       N          2.14753580  *   1.51902772  *   0.71077998  *
     2       C          1.29932428  *   0.39805076  *   0.51590322  *
     3       C          1.76123573  *  -0.75515335  *  -0.43693574  *
     4       O          2.56861254  *  -1.59637568  *  -0.55756772  *
     5       O          0.70510333  *  -0.48339381  *  -1.36278342  *
     6       C          0.20527913  *   0.63399017  *  -0.61543212  *
     7       C         -1.21871271  *   0.34614226  *  -0.20677563  *
     8       C         -1.79719199  *  -1.08987205  *  -0.30837618  *
     9       N         -2.11446255  *  -0.07710665  *  -1.24382189  *
    10       H          2.74190979  *   1.76892035  *  -0.06444694  *
    11       H          2.64765313  *   1.54162862  *   1.58792940  *
    12       H          0.88708527  *   0.01365171  *   1.47447170  *
    13       H          0.31787013  *   1.57421855  *  -1.18865358  *
    14       H         -1.60447356  *   1.03760047  *   0.57978535  *
    15       H         -1.17842804  *  -1.95626137  *  -0.64364388  *
    16       H         -2.55613435  *  -1.44710713  *   0.41678294  *
    17       H         -2.39160117  *   0.07924877  *  -2.18289875  *

                             CARTESIAN COORDINATES

   1    N        2.147535801     1.519027719     0.710779985
   2    C        1.299324279     0.398050764     0.515903221
   3    C        1.761235726    -0.755153346    -0.436935739
   4    O        2.568612542    -1.596375677    -0.557567722
   5    O        0.705103328    -0.483393812    -1.362783424
   6    C        0.205279134     0.633990167    -0.615432121
   7    C       -1.218712711     0.346142261    -0.206775633
   8    C       -1.797191994    -1.089872047    -0.308376180
   9    N       -2.114462550    -0.077106648    -1.243821892
  10    H        2.741909787     1.768920353    -0.064446941
  11    H        2.647653131     1.541628620     1.587929400
  12    H        0.887085266     0.013651711     1.474471700
  13    H        0.317870129     1.574218547    -1.188653583
  14    H       -1.604473556     1.037600468     0.579785347
  15    H       -1.178428036    -1.956261370    -0.643643880
  16    H       -2.556134355    -1.447107129     0.416782944
  17    H       -2.391601168     0.079248769    -2.182898749


           Empirical Formula: C5 H8 N2 O2  =    17 atoms



      MOLECULAR POINT GROUP   :   C1  


          ALPHA EIGENVALUES  
 -44.72552 -40.17861 -35.90719 -35.59165 -31.82468 -29.99904 -28.50405 -26.18263
 -24.07465 -23.85761 -23.50167 -21.63430 -21.42794 -20.99185 -20.37374 -19.43220
 -19.10885 -18.44995 -18.22845 -18.02317 -17.40606 -17.02018 -15.56605 -15.15599
 -13.51780  -4.96623  -4.19807  -3.14507  -3.06125  -2.58760  -2.31336  -1.94842
  -1.43302  -0.80972  -0.69543  -0.47073  -0.34153  -0.19069  -0.13124   0.60515
   0.87621   1.14791   2.21091   3.08432


           BETA EIGENVALUES 
 -43.10231 -40.17609 -35.90750 -35.52906 -31.24464 -29.79193 -28.42297 -25.94619
 -23.85520 -23.79553 -22.86819 -21.43444 -21.08921 -20.87157 -20.12458 -19.28963
 -18.99602 -18.33175 -18.15415 -17.59383 -17.02872 -15.58336 -15.15149 -13.51067
  -7.46453  -4.25462  -4.02580  -3.13909  -2.92238  -2.47386  -2.28349  -1.89210
  -1.42587  -0.80230  -0.55876  -0.42948  -0.31041  -0.06104   0.27480   0.60626
   0.87839   1.14831   2.21248   3.08597


              NET ATOMIC CHARGES AND DIPOLE CONTRIBUTIONS

  ATOM NO.   TYPE          CHARGE      No. of ELECS.   s-Pop       p-Pop       
    1          N          -0.614433        5.6144     1.58677     4.02766
    2          C           0.003284        3.9967     1.10330     2.89342
    3          C           0.497679        3.5023     1.17680     2.32552
    4          O          -0.272724        6.2727     1.86990     4.40283
    5          O          -0.460544        6.4605     1.90099     4.55955
    6          C           0.032852        3.9671     1.11682     2.85032
    7          C          -0.054710        4.0547     1.10786     2.94685
    8          C          -0.174143        4.1741     1.09981     3.07433
    9          N          -0.031555        5.0316     1.54462     3.48693
   10          H           0.293984        0.7060     0.70602
   11          H           0.303443        0.6966     0.69656
   12          H           0.179146        0.8209     0.82085
   13          H           0.194842        0.8052     0.80516
   14          H           0.238959        0.7610     0.76104
   15          H           0.251615        0.7484     0.74838
   16          H           0.241666        0.7583     0.75833
   17          H           0.370639        0.6294     0.62936
 DIPOLE           X         Y         Z       TOTAL
 POINT-CHG.    -8.605     1.930     1.786     8.998
 HYBRID         0.138    -0.633    -1.319     1.469
 SUM           -8.467     1.298     0.467     8.578


          ATOMIC ORBITAL ELECTRON POPULATIONS

     Atom    s        px        py        pz   
    1  N   1.58677   1.41609   1.38650   1.22507
    2  C   1.10330   0.94149   0.89216   1.05977
    3  C   1.17680   0.74664   0.79666   0.78222
    4  O   1.86990   1.37333   1.34612   1.68338
    5  O   1.90099   1.54847   1.47913   1.53195
    6  C   1.11682   0.88546   0.96824   0.99662
    7  C   1.10786   0.97670   1.02582   0.94433
    8  C   1.09981   1.09803   0.99054   0.98577
    9  N   1.54462   1.10639   1.23325   1.14729
   10  H   0.70602
   11  H   0.69656
   12  H   0.82085
   13  H   0.80516
   14  H   0.76104
   15  H   0.74838
   16  H   0.75833
   17  H   0.62936


                    (SZ)    =    0.500000
                    (S**2)  =    0.761872


          ATOMIC ORBITAL SPIN POPULATIONS

    Atom   Total    s     px     py     pz   
         Atomic
    1  N  0.0009  0.000  0.001 -0.000  0.000
    2  C -0.0001 -0.000  0.000 -0.000 -0.000
    3  C  0.0007  0.001 -0.000  0.001 -0.000
    4  O -0.0001 -0.000 -0.000  0.001 -0.000
    5  O  0.0073  0.000  0.003  0.000  0.004
    6  C  0.0311  0.003  0.027  0.002  0.001
    7  C -0.0556 -0.006 -0.006  0.006 -0.050
    8  C -0.0422 -0.006  0.018 -0.007 -0.048
    9  N  0.9957  0.050  0.624  0.136  0.186
   10  H  0.0000  0.000
   11  H  0.0003  0.000
   12  H  0.0000  0.000
   13  H -0.0015 -0.002
   14  H  0.0250  0.025
   15  H  0.0339  0.034
   16  H  0.0345  0.035
   17  H -0.0300 -0.030

 **********************
 *                    *
 * JOB ENDED NORMALLY *
 *                    *
 **********************



 TOTAL JOB TIME:             1.31 SECONDS

 == MOPAC DONE ==
