 *******************************************************************************
 **                                                                           **
 **                              MOPAC v23.2                                  **
 **                                                                           **
 *******************************************************************************
 **          Digital Object Identifier (DOI): 10.5281/zenodo.6511958          **
 **    Visit the DOI location for information on how to cite this program.    **
 *******************************************************************************

                              PM7 CALCULATION RESULTS

 *******************************************************************************
 *  CALCULATION DONE: (MAX THREADS = 40)             Fri Sep 19 21:29:36 2025  *
 *  PM7        - The PM7 Hamiltonian to be used
 *  EPS=37.5   - USE ANDREAS KLAMT'S COSMO IMPLICIT SOLVATION MODEL
 *  1SCF       - DO 1 SCF AND THEN STOP 
 *  T=         - A TIME OF 172800.0 SECONDS REQUESTED
 *  DUMP=N     - RESTART FILE WRITTEN EVERY 7200.0 SECONDS REQUESTED
 *  RELSCF     - DEFAULT SCF CRITERION MULTIPLIED BY 0.0001
 *              (DEFAULT SCF CRITERION = 0.00010)
 *  GRADIENTS  - ALL GRADIENTS TO BE PRINTED
 *  DISP       - PRINT DISPERSION AND HYDROGEN BOND ENERGIES
 *******************************************************************************
PM7 1SCF GRADIENTS EPS=37.5 DISP RELSCF=0.0001
 Title: ASE calculation

   ATOM   CHEMICAL          X               Y               Z
  NUMBER   SYMBOL      (ANGSTROMS)     (ANGSTROMS)     (ANGSTROMS)

     1       C          3.69323068  *  -0.60274601  *  -0.05812210  *
     2       O          2.35384257  *  -0.81249872  *  -0.49811696  *
     3       C          1.41366859  *  -0.14260966  *   0.24821141  *
     4       O          1.67871445  *   0.58720780  *   1.17810517  *
     5       N          0.16475925  *  -0.42502214  *  -0.23793414  *
     6       C         -1.00701261  *   0.09389717  *   0.48253424  *
     7       C         -2.24483530  *   0.10095798  *  -0.44113767  *
     8       C         -2.69481589  *  -1.32549244  *  -0.77001848  *
     9       C         -3.36896724  *   0.86432816  *   0.26573378  *
    10       H          4.27357343  *  -1.22563895  *  -0.74866060  *
    11       H          3.96065222  *   0.45601250  *  -0.14850787  *
    12       H          3.80768450  *  -0.93930474  *   0.97851117  *
    13       H          0.02278294  *  -1.08729889  *  -0.98095626  *
    14       H         -0.78312054  *   1.12737580  *   0.84361822  *
    15       H         -1.19684895  *  -0.52233976  *   1.39037302  *
    16       H         -1.98639453  *   0.63097870  *  -1.39037302  *
    17       H         -3.60964967  *  -1.32101465  *  -1.37420488  *
    18       H         -1.93910309  *  -1.87472248  *  -1.34098733  *
    19       H         -2.90649866  *  -1.90138530  *   0.13839053  *
    20       H         -3.08265802  *   1.90138530  *   0.47666787  *
    21       H         -3.64272169  *   0.39360876  *   1.21673783  *
    22       H         -4.27357343  *   0.89867554  *  -0.35141146  *



          CARTESIAN COORDINATES 

    NO.       ATOM           X           Y           Z

     1         C          3.6932     -0.6027     -0.0581
     2         O          2.3538     -0.8125     -0.4981
     3         C          1.4137     -0.1426      0.2482
     4         O          1.6787      0.5872      1.1781
     5         N          0.1648     -0.4250     -0.2379
     6         C         -1.0070      0.0939      0.4825
     7         C         -2.2448      0.1010     -0.4411
     8         C         -2.6948     -1.3255     -0.7700
     9         C         -3.3690      0.8643      0.2657
    10         H          4.2736     -1.2256     -0.7487
    11         H          3.9607      0.4560     -0.1485
    12         H          3.8077     -0.9393      0.9785
    13         H          0.0228     -1.0873     -0.9810
    14         H         -0.7831      1.1274      0.8436
    15         H         -1.1968     -0.5223      1.3904
    16         H         -1.9864      0.6310     -1.3904
    17         H         -3.6096     -1.3210     -1.3742
    18         H         -1.9391     -1.8747     -1.3410
    19         H         -2.9065     -1.9014      0.1384
    20         H         -3.0827      1.9014      0.4767
    21         H         -3.6427      0.3936      1.2167
    22         H         -4.2736      0.8987     -0.3514

 General Reference for PM7:
 "Optimization of Parameters for Semiempirical Methods VI: More Modifications to the 
 NDDO Approximations and Re-optimization of Parameters", J. J. P. Stewart, J. Mol. Mod., 1:32, 19 (2013)
 https://link.springer.com/article/10.1007/s00894-012-1667-x

           Empirical Formula: C6 H13 N O2  =    22 atoms



      MOLECULAR POINT GROUP   :   C1  


      RHF CALCULATION, NO. OF DOUBLY OCCUPIED LEVELS = 27

  SCF CRITERION =    0.1000E-07

 -------------------------------------------------------------------------------
 PM7 1SCF GRADIENTS EPS=37.5 DISP RELSCF=0.0001
 Title: ASE calculation



     1SCF WAS SPECIFIED, SO BFGS WAS NOT USED                 
     SCF FIELD WAS ACHIEVED                                   


                              PM7 CALCULATION
                                                       MOPAC v23.2 Linux
                                                       Fri Sep 19 21:29:37 2025




          FINAL HEAT OF FORMATION =       -118.67466 KCAL/MOL =    -496.53476 KJ/MOL

          TOTAL ENERGY            =     -38985.23085 KCAL/MOL = ELECTRONIC ENERGY + CORE-CORE REPULSION + SOLVATION ENERGY
          ENERGY OF ATOMS         =      38868.51771 KCAL/MOL
                              SUM =       -116.71314 KCAL/MOL
          DISPERSION ENERGY       =         -2.00811 KCAL/MOL
          MM CORR. FOR -CO-NH-    =          0.04659 KCAL/MOL
                              SUM =       -118.67466 KCAL/MOL = FINAL HEAT OF FORMATION

          VAN DER WAALS AREA      =        182.87 SQUARE ANGSTROMS


          TOTAL ENERGY            =      -1690.55961 EV
          ELECTRONIC ENERGY       =      -2332.12397 EV 
          CORE-CORE REPULSION     =        641.56436 EV

          DIELECTRIC ENERGY       =         -0.46727 EV
          COSMO AREA              =        182.87 SQUARE ANGSTROMS
          COSMO VOLUME            =        176.41 CUBIC ANGSTROMS

          GRADIENT NORM           =         37.79149          =       8.05717 PER ATOM
          IONIZATION POTENTIAL    =         10.050305 EV
          HOMO LUMO ENERGIES (EV) =        -10.050  0.790
          NO. OF FILLED LEVELS    =         27
          MOLECULAR WEIGHT        =        131.1742         POINT GROUP:  C1  

          MOLECULAR DIMENSIONS (Angstroms)

            Atom       Atom       Distance
            H    22    H    10     8.81614
            H    18    O     4     4.20138
            H    16    H    19     2.86464


          SCF CALCULATIONS        =          2

          WALL-CLOCK TIME         =      0.437 SECONDS
          COMPUTATION TIME        =      1.869 SECONDS

          LARGEST ATOMIC GRADIENTS

          Atom     Label                     Cartesian Gradients           Cartesian Coordinates       |Gradient|
                                           X          Y          Z        X          Y          Z

             3       C                  12.991     16.694     19.799    1.41367   -0.14261    0.24821     28.973
             5       N                 -12.096     -6.933     -8.483    0.16476   -0.42502   -0.23793     16.320
             4       O                  -3.542     -9.071    -10.910    1.67871    0.58721    1.17811     14.624
             2       O                   3.560     -4.105     -4.235    2.35384   -0.81250   -0.49812      6.889
            13       H                   0.974      4.202      4.582    0.02278   -1.08730   -0.98096      6.293
             6       C                   0.681     -1.855     -1.058   -1.00701    0.09390    0.48253      2.241
             1       C                  -1.571     -0.948     -0.962    3.69323   -0.60275   -0.05812      2.072
             8       C                  -0.198     -1.385     -0.705   -2.69482   -1.32549   -0.77002      1.567
            14       H                   1.268      0.202      0.056   -0.78312    1.12738    0.84362      1.285
            10       H                  -1.031      0.468      0.574    4.27357   -1.22564   -0.74866      1.269



       FINAL  POINT  AND  DERIVATIVES

   PARAMETER     ATOM    TYPE            VALUE        GRADIENT
      1          1  C    CARTESIAN X     3.693231     -1.570767  KCAL/ANGSTROM
      2          1  C    CARTESIAN Y    -0.602746     -0.948144  KCAL/ANGSTROM
      3          1  C    CARTESIAN Z    -0.058122     -0.961842  KCAL/ANGSTROM
      4          2  O    CARTESIAN X     2.353843      3.559859  KCAL/ANGSTROM
      5          2  O    CARTESIAN Y    -0.812499     -4.105286  KCAL/ANGSTROM
      6          2  O    CARTESIAN Z    -0.498117     -4.234975  KCAL/ANGSTROM
      7          3  C    CARTESIAN X     1.413669     12.991272  KCAL/ANGSTROM
      8          3  C    CARTESIAN Y    -0.142610     16.693967  KCAL/ANGSTROM
      9          3  C    CARTESIAN Z     0.248211     19.798664  KCAL/ANGSTROM
     10          4  O    CARTESIAN X     1.678714     -3.542376  KCAL/ANGSTROM
     11          4  O    CARTESIAN Y     0.587208     -9.070899  KCAL/ANGSTROM
     12          4  O    CARTESIAN Z     1.178105    -10.910132  KCAL/ANGSTROM
     13          5  N    CARTESIAN X     0.164759    -12.096413  KCAL/ANGSTROM
     14          5  N    CARTESIAN Y    -0.425022     -6.933044  KCAL/ANGSTROM
     15          5  N    CARTESIAN Z    -0.237934     -8.482907  KCAL/ANGSTROM
     16          6  C    CARTESIAN X    -1.007013      0.681248  KCAL/ANGSTROM
     17          6  C    CARTESIAN Y     0.093897     -1.855068  KCAL/ANGSTROM
     18          6  C    CARTESIAN Z     0.482534     -1.057629  KCAL/ANGSTROM
     19          7  C    CARTESIAN X    -2.244835      0.124707  KCAL/ANGSTROM
     20          7  C    CARTESIAN Y     0.100958      0.417482  KCAL/ANGSTROM
     21          7  C    CARTESIAN Z    -0.441138      0.167961  KCAL/ANGSTROM
     22          8  C    CARTESIAN X    -2.694816     -0.197506  KCAL/ANGSTROM
     23          8  C    CARTESIAN Y    -1.325492     -1.385000  KCAL/ANGSTROM
     24          8  C    CARTESIAN Z    -0.770018     -0.705009  KCAL/ANGSTROM
     25          9  C    CARTESIAN X    -3.368967     -1.065896  KCAL/ANGSTROM
     26          9  C    CARTESIAN Y     0.864328     -0.038329  KCAL/ANGSTROM
     27          9  C    CARTESIAN Z     0.265734      0.296501  KCAL/ANGSTROM
     28         10  H    CARTESIAN X     4.273573     -1.030560  KCAL/ANGSTROM
     29         10  H    CARTESIAN Y    -1.225639      0.467822  KCAL/ANGSTROM
     30         10  H    CARTESIAN Z    -0.748661      0.573987  KCAL/ANGSTROM
     31         11  H    CARTESIAN X     3.960652     -0.797089  KCAL/ANGSTROM
     32         11  H    CARTESIAN Y     0.456013      0.231781  KCAL/ANGSTROM
     33         11  H    CARTESIAN Z    -0.148508      0.549413  KCAL/ANGSTROM
     34         12  H    CARTESIAN X     3.807685     -1.034359  KCAL/ANGSTROM
     35         12  H    CARTESIAN Y    -0.939305      0.540906  KCAL/ANGSTROM
     36         12  H    CARTESIAN Z     0.978511      0.144915  KCAL/ANGSTROM
     37         13  H    CARTESIAN X     0.022783      0.973980  KCAL/ANGSTROM
     38         13  H    CARTESIAN Y    -1.087299      4.201891  KCAL/ANGSTROM
     39         13  H    CARTESIAN Z    -0.980956      4.581951  KCAL/ANGSTROM
     40         14  H    CARTESIAN X    -0.783121      1.268094  KCAL/ANGSTROM
     41         14  H    CARTESIAN Y     1.127376      0.201848  KCAL/ANGSTROM
     42         14  H    CARTESIAN Z     0.843618      0.056315  KCAL/ANGSTROM
     43         15  H    CARTESIAN X    -1.196849      0.590961  KCAL/ANGSTROM
     44         15  H    CARTESIAN Y    -0.522340      0.786360  KCAL/ANGSTROM
     45         15  H    CARTESIAN Z     1.390373     -0.327911  KCAL/ANGSTROM
     46         16  H    CARTESIAN X    -1.986395     -0.091514  KCAL/ANGSTROM
     47         16  H    CARTESIAN Y     0.630979     -0.032510  KCAL/ANGSTROM
     48         16  H    CARTESIAN Z    -1.390373      0.533103  KCAL/ANGSTROM
     49         17  H    CARTESIAN X    -3.609650      0.321969  KCAL/ANGSTROM
     50         17  H    CARTESIAN Y    -1.321015      0.132407  KCAL/ANGSTROM
     51         17  H    CARTESIAN Z    -1.374205      0.068601  KCAL/ANGSTROM
     52         18  H    CARTESIAN X    -1.939103     -0.191248  KCAL/ANGSTROM
     53         18  H    CARTESIAN Y    -1.874722      0.516658  KCAL/ANGSTROM
     54         18  H    CARTESIAN Z    -1.340987      0.236184  KCAL/ANGSTROM
     55         19  H    CARTESIAN X    -2.906499      0.213964  KCAL/ANGSTROM
     56         19  H    CARTESIAN Y    -1.901385      0.253455  KCAL/ANGSTROM
     57         19  H    CARTESIAN Z     0.138391      0.002555  KCAL/ANGSTROM
     58         20  H    CARTESIAN X    -3.082658      0.152993  KCAL/ANGSTROM
     59         20  H    CARTESIAN Y     1.901385     -0.250254  KCAL/ANGSTROM
     60         20  H    CARTESIAN Z     0.476668     -0.319011  KCAL/ANGSTROM
     61         21  H    CARTESIAN X    -3.642722      0.256311  KCAL/ANGSTROM
     62         21  H    CARTESIAN Y     0.393609      0.033236  KCAL/ANGSTROM
     63         21  H    CARTESIAN Z     1.216738     -0.285242  KCAL/ANGSTROM
     64         22  H    CARTESIAN X    -4.273573      0.482370  KCAL/ANGSTROM
     65         22  H    CARTESIAN Y     0.898676      0.140719  KCAL/ANGSTROM
     66         22  H    CARTESIAN Z    -0.351411      0.274507  KCAL/ANGSTROM




   ATOM   CHEMICAL          X               Y               Z
  NUMBER   SYMBOL      (ANGSTROMS)     (ANGSTROMS)     (ANGSTROMS)

     1       C          3.69323068  *  -0.60274601  *  -0.05812210  *
     2       O          2.35384257  *  -0.81249872  *  -0.49811696  *
     3       C          1.41366859  *  -0.14260966  *   0.24821141  *
     4       O          1.67871445  *   0.58720780  *   1.17810517  *
     5       N          0.16475925  *  -0.42502214  *  -0.23793414  *
     6       C         -1.00701261  *   0.09389717  *   0.48253424  *
     7       C         -2.24483530  *   0.10095798  *  -0.44113767  *
     8       C         -2.69481589  *  -1.32549244  *  -0.77001848  *
     9       C         -3.36896724  *   0.86432816  *   0.26573378  *
    10       H          4.27357343  *  -1.22563895  *  -0.74866060  *
    11       H          3.96065222  *   0.45601250  *  -0.14850787  *
    12       H          3.80768450  *  -0.93930474  *   0.97851117  *
    13       H          0.02278294  *  -1.08729889  *  -0.98095626  *
    14       H         -0.78312054  *   1.12737580  *   0.84361822  *
    15       H         -1.19684895  *  -0.52233976  *   1.39037302  *
    16       H         -1.98639453  *   0.63097870  *  -1.39037302  *
    17       H         -3.60964967  *  -1.32101465  *  -1.37420488  *
    18       H         -1.93910309  *  -1.87472248  *  -1.34098733  *
    19       H         -2.90649866  *  -1.90138530  *   0.13839053  *
    20       H         -3.08265802  *   1.90138530  *   0.47666787  *
    21       H         -3.64272169  *   0.39360876  *   1.21673783  *
    22       H         -4.27357343  *   0.89867554  *  -0.35141146  *

                             CARTESIAN COORDINATES

   1    C        3.693230683    -0.602746006    -0.058122097
   2    O        2.353842568    -0.812498716    -0.498116963
   3    C        1.413668585    -0.142609663     0.248211411
   4    O        1.678714452     0.587207798     1.178105167
   5    N        0.164759250    -0.425022135    -0.237934143
   6    C       -1.007012613     0.093897174     0.482534238
   7    C       -2.244835296     0.100957980    -0.441137666
   8    C       -2.694815889    -1.325492439    -0.770018480
   9    C       -3.368967244     0.864328158     0.265733783
  10    H        4.273573429    -1.225638946    -0.748660601
  11    H        3.960652223     0.456012501    -0.148507875
  12    H        3.807684500    -0.939304736     0.978511174
  13    H        0.022782943    -1.087298887    -0.980956258
  14    H       -0.783120537     1.127375798     0.843618219
  15    H       -1.196848949    -0.522339761     1.390373021
  16    H       -1.986394533     0.630978702    -1.390373021
  17    H       -3.609649672    -1.321014654    -1.374204884
  18    H       -1.939103095    -1.874722483    -1.340987329
  19    H       -2.906498659    -1.901385304     0.138390530
  20    H       -3.082658018     1.901385304     0.476667870
  21    H       -3.642721686     0.393608765     1.216737830
  22    H       -4.273573429     0.898675535    -0.351411462


           Empirical Formula: C6 H13 N O2  =    22 atoms



      MOLECULAR POINT GROUP   :   C1  


                  EIGENVALUES  
 -37.11178 -31.10941 -30.16610 -28.97389 -25.16722 -24.13210 -23.49781 -21.25113
 -19.88055 -18.56716 -16.99502 -16.70957 -16.13645 -15.54321 -14.91365 -14.71893
 -14.33696 -13.98007 -13.46659 -13.17135 -13.11277 -12.17313 -11.96693 -11.71409
 -11.61960 -11.59238 -10.05030   0.79048   1.13377   2.66132   3.49620   3.61733
   3.91648   4.17324   4.45668   5.19867   5.35931   5.47411   5.56949   5.69356
   5.74854   5.81452   5.83938   5.88085   6.07816   6.12824   6.57698   6.97579
   7.06241


              NET ATOMIC CHARGES AND DIPOLE CONTRIBUTIONS

  ATOM NO.   TYPE          CHARGE      No. of ELECS.   s-Pop       p-Pop       
    1          C          -0.162811        4.1628     1.09056     3.07225
    2          O          -0.439866        6.4399     1.87086     4.56900
    3          C           0.746289        3.2537     1.05034     2.20337
    4          O          -0.661573        6.6616     1.87449     4.78708
    5          N          -0.578730        5.5787     1.55149     4.02723
    6          C          -0.083841        4.0838     1.07681     3.00703
    7          C          -0.080370        4.0804     1.06052     3.01985
    8          C          -0.463292        4.4633     1.05614     3.40715
    9          C          -0.462184        4.4622     1.05610     3.40608
   10          H           0.162335        0.8377     0.83766
   11          H           0.148821        0.8512     0.85118
   12          H           0.149635        0.8504     0.85037
   13          H           0.351231        0.6488     0.64877
   14          H           0.161379        0.8386     0.83862
   15          H           0.153398        0.8466     0.84660
   16          H           0.146632        0.8534     0.85337
   17          H           0.152545        0.8475     0.84745
   18          H           0.148000        0.8520     0.85200
   19          H           0.153814        0.8462     0.84619
   20          H           0.152542        0.8475     0.84746
   21          H           0.153390        0.8466     0.84661
   22          H           0.152654        0.8473     0.84735
 DIPOLE           X         Y         Z       TOTAL
 POINT-CHG.    -2.034    -1.623    -1.807     3.168
 HYBRID        -0.073    -0.383    -0.199     0.438
 SUM           -2.108    -2.005    -2.006     3.534


          ATOMIC ORBITAL ELECTRON POPULATIONS

     Atom    s        px        py        pz   
    1  C   1.09056   0.77091   1.16137   1.13997
    2  O   1.87086   1.27482   1.69984   1.59434
    3  C   1.05034   0.74850   0.72628   0.72858
    4  O   1.87449   1.83253   1.52621   1.42835
    5  N   1.55149   1.10571   1.52320   1.39833
    6  C   1.07681   0.85915   1.12659   1.02129
    7  C   1.06052   0.95991   1.00194   1.05800
    8  C   1.05614   1.17076   1.05876   1.17763
    9  C   1.05610   1.10572   1.14344   1.15692
   10  H   0.83766
   11  H   0.85118
   12  H   0.85037
   13  H   0.64877
   14  H   0.83862
   15  H   0.84660
   16  H   0.85337
   17  H   0.84745
   18  H   0.85200
   19  H   0.84619
   20  H   0.84746
   21  H   0.84661
   22  H   0.84735

 **********************
 *                    *
 * JOB ENDED NORMALLY *
 *                    *
 **********************



 TOTAL JOB TIME:             0.77 SECONDS

 == MOPAC DONE ==
