 *******************************************************************************
 **                                                                           **
 **                              MOPAC v23.2                                  **
 **                                                                           **
 *******************************************************************************
 **          Digital Object Identifier (DOI): 10.5281/zenodo.6511958          **
 **    Visit the DOI location for information on how to cite this program.    **
 *******************************************************************************

                              PM7 CALCULATION RESULTS

 *******************************************************************************
 *  CALCULATION DONE: (MAX THREADS = 40)             Fri Sep 19 21:30:52 2025  *
 *  PM7        - The PM7 Hamiltonian to be used
 *  1SCF       - DO 1 SCF AND THEN STOP 
 *  T=         - A TIME OF 172800.0 SECONDS REQUESTED
 *  DUMP=N     - RESTART FILE WRITTEN EVERY 7200.0 SECONDS REQUESTED
 *  RELSCF     - DEFAULT SCF CRITERION MULTIPLIED BY 0.0001
 *              (DEFAULT SCF CRITERION = 0.00010)
 *  GRADIENTS  - ALL GRADIENTS TO BE PRINTED
 *  DISP       - PRINT DISPERSION AND HYDROGEN BOND ENERGIES
 *******************************************************************************
PM7 1SCF GRADIENTS DISP RELSCF=0.0001
 Title: ASE calculation

   ATOM   CHEMICAL          X               Y               Z
  NUMBER   SYMBOL      (ANGSTROMS)     (ANGSTROMS)     (ANGSTROMS)

     1       C         -2.35087897  *  -0.20794151  *   1.21705209  *
     2       C         -1.59072714  *   0.31289412  *  -0.00098613  *
     3       C         -2.51484248  *   0.97809039  *  -1.01487623  *
     4       C         -0.69182419  *  -0.78267620  *  -0.63084934  *
     5       C          0.68591237  *  -0.43079394  *  -0.15352541  *
     6       N          1.69697865  *  -1.19890005  *  -0.36260871  *
     7       O          2.86874847  *  -0.68330314  *   0.17360365  *
     8       C          0.61450403  *   0.88800304  *   0.56687240  *
     9       O         -0.71894588  *   1.35831140  *   0.45092903  *
    10       H         -1.67843045  *  -0.71236403  *   1.92043572  *
    11       H         -3.13984725  *  -0.90963785  *   0.93224847  *
    12       H         -2.81685468  *   0.62226282  *   1.76504746  *
    13       H         -3.22130393  *   0.26492106  *  -1.44913987  *
    14       H         -1.94154750  *   1.43933650  *  -1.82916909  *
    15       H         -3.09305111  *   1.78470228  *  -0.54443339  *
    16       H         -0.99302746  *  -1.80051526  *  -0.32360665  *
    17       H         -0.74603493  *  -0.77522775  *  -1.73616032  *
    18       H          3.54764477  *  -1.37293136  *  -0.09456798  *
    19       H          0.84899505  *   0.79629401  *   1.64347031  *
    20       H          1.24609360  *   1.67358168  *   0.11224758  *



          CARTESIAN COORDINATES 

    NO.       ATOM           X           Y           Z

     1         C         -2.3509     -0.2079      1.2171
     2         C         -1.5907      0.3129     -0.0010
     3         C         -2.5148      0.9781     -1.0149
     4         C         -0.6918     -0.7827     -0.6308
     5         C          0.6859     -0.4308     -0.1535
     6         N          1.6970     -1.1989     -0.3626
     7         O          2.8687     -0.6833      0.1736
     8         C          0.6145      0.8880      0.5669
     9         O         -0.7189      1.3583      0.4509
    10         H         -1.6784     -0.7124      1.9204
    11         H         -3.1398     -0.9096      0.9322
    12         H         -2.8169      0.6223      1.7650
    13         H         -3.2213      0.2649     -1.4491
    14         H         -1.9415      1.4393     -1.8292
    15         H         -3.0931      1.7847     -0.5444
    16         H         -0.9930     -1.8005     -0.3236
    17         H         -0.7460     -0.7752     -1.7362
    18         H          3.5476     -1.3729     -0.0946
    19         H          0.8490      0.7963      1.6435
    20         H          1.2461      1.6736      0.1122

 General Reference for PM7:
 "Optimization of Parameters for Semiempirical Methods VI: More Modifications to the 
 NDDO Approximations and Re-optimization of Parameters", J. J. P. Stewart, J. Mol. Mod., 1:32, 19 (2013)
 https://link.springer.com/article/10.1007/s00894-012-1667-x

           Empirical Formula: C6 H11 N O2  =    20 atoms



      MOLECULAR POINT GROUP   :   C1  


      RHF CALCULATION, NO. OF DOUBLY OCCUPIED LEVELS = 26

  SCF CRITERION =    0.1000E-07

 -------------------------------------------------------------------------------
 PM7 1SCF GRADIENTS DISP RELSCF=0.0001
 Title: ASE calculation



     1SCF WAS SPECIFIED, SO BFGS WAS NOT USED                 
     SCF FIELD WAS ACHIEVED                                   


                              PM7 CALCULATION
                                                       MOPAC v23.2 Linux
                                                       Fri Sep 19 21:30:53 2025




          FINAL HEAT OF FORMATION =        -63.36701 KCAL/MOL =    -265.12758 KJ/MOL

          TOTAL ENERGY            =     -38315.12591 KCAL/MOL = ELECTRONIC ENERGY + CORE-CORE REPULSION
          ENERGY OF ATOMS         =      38253.74801 KCAL/MOL
                              SUM =        -61.37789 KCAL/MOL
          DISPERSION ENERGY       =         -1.98912 KCAL/MOL
                              SUM =        -63.36701 KCAL/MOL = FINAL HEAT OF FORMATION



          TOTAL ENERGY            =      -1661.50111 EV
          ELECTRONIC ENERGY       =      -8018.58615 EV 
          CORE-CORE REPULSION     =       6357.08503 EV
          COSMO AREA              =        166.18 SQUARE ANGSTROMS
          COSMO VOLUME            =        165.09 CUBIC ANGSTROMS

          GRADIENT NORM           =          0.88204          =       0.19723 PER ATOM
          IONIZATION POTENTIAL    =          9.904875 EV
          HOMO LUMO ENERGIES (EV) =         -9.905  0.678
          NO. OF FILLED LEVELS    =         26
          MOLECULAR WEIGHT        =        129.1584         POINT GROUP:  C1  

          MOLECULAR DIMENSIONS (Angstroms)

            Atom       Atom       Distance
            H    18    H    15     7.36694
            H    20    H    11     4.33160
            H    17    H    19     3.72024


          SCF CALCULATIONS        =          1

          WALL-CLOCK TIME         =      0.727 SECONDS
          COMPUTATION TIME        =      0.565 SECONDS

          LARGEST ATOMIC GRADIENTS

          Atom     Label                     Cartesian Gradients           Cartesian Coordinates       |Gradient|
                                           X          Y          Z        X          Y          Z

             7       O                  -0.048     -0.126      0.344    2.86875   -0.68330    0.17360      0.370
            11       H                   0.111      0.018     -0.232   -3.13985   -0.90964    0.93225      0.258
            20       H                  -0.139      0.195      0.075    1.24609    1.67358    0.11225      0.251
             8       C                   0.241      0.031     -0.053    0.61450    0.88800    0.56687      0.248
            10       H                   0.101     -0.024     -0.205   -1.67843   -0.71236    1.92044      0.230
             4       C                  -0.187     -0.072     -0.047   -0.69182   -0.78268   -0.63085      0.206
             9       O                   0.191     -0.032      0.068   -0.71895    1.35831    0.45093      0.205
            17       H                  -0.195     -0.040      0.045   -0.74603   -0.77523   -1.73616      0.204
            18       H                  -0.050      0.162     -0.088    3.54764   -1.37293   -0.09457      0.191
             2       C                   0.184      0.022     -0.003   -1.59073    0.31289   -0.00099      0.185



       FINAL  POINT  AND  DERIVATIVES

   PARAMETER     ATOM    TYPE            VALUE        GRADIENT
      1          1  C    CARTESIAN X    -2.350879     -0.007214  KCAL/ANGSTROM
      2          1  C    CARTESIAN Y    -0.207942      0.107229  KCAL/ANGSTROM
      3          1  C    CARTESIAN Z     1.217052     -0.019136  KCAL/ANGSTROM
      4          2  C    CARTESIAN X    -1.590727      0.183994  KCAL/ANGSTROM
      5          2  C    CARTESIAN Y     0.312894      0.021704  KCAL/ANGSTROM
      6          2  C    CARTESIAN Z    -0.000986     -0.002578  KCAL/ANGSTROM
      7          3  C    CARTESIAN X    -2.514842     -0.016676  KCAL/ANGSTROM
      8          3  C    CARTESIAN Y     0.978090     -0.109706  KCAL/ANGSTROM
      9          3  C    CARTESIAN Z    -1.014876      0.045893  KCAL/ANGSTROM
     10          4  C    CARTESIAN X    -0.691824     -0.186784  KCAL/ANGSTROM
     11          4  C    CARTESIAN Y    -0.782676     -0.071757  KCAL/ANGSTROM
     12          4  C    CARTESIAN Z    -0.630849     -0.047324  KCAL/ANGSTROM
     13          5  C    CARTESIAN X     0.685912     -0.100495  KCAL/ANGSTROM
     14          5  C    CARTESIAN Y    -0.430794     -0.083479  KCAL/ANGSTROM
     15          5  C    CARTESIAN Z    -0.153525     -0.103615  KCAL/ANGSTROM
     16          6  N    CARTESIAN X     1.696979     -0.136522  KCAL/ANGSTROM
     17          6  N    CARTESIAN Y    -1.198900      0.055360  KCAL/ANGSTROM
     18          6  N    CARTESIAN Z    -0.362609      0.039139  KCAL/ANGSTROM
     19          7  O    CARTESIAN X     2.868748     -0.047515  KCAL/ANGSTROM
     20          7  O    CARTESIAN Y    -0.683303     -0.125664  KCAL/ANGSTROM
     21          7  O    CARTESIAN Z     0.173604      0.344215  KCAL/ANGSTROM
     22          8  C    CARTESIAN X     0.614504      0.240731  KCAL/ANGSTROM
     23          8  C    CARTESIAN Y     0.888003      0.031026  KCAL/ANGSTROM
     24          8  C    CARTESIAN Z     0.566872     -0.053185  KCAL/ANGSTROM
     25          9  O    CARTESIAN X    -0.718946      0.190570  KCAL/ANGSTROM
     26          9  O    CARTESIAN Y     1.358311     -0.031920  KCAL/ANGSTROM
     27          9  O    CARTESIAN Z     0.450929      0.067782  KCAL/ANGSTROM
     28         10  H    CARTESIAN X    -1.678430      0.101312  KCAL/ANGSTROM
     29         10  H    CARTESIAN Y    -0.712364     -0.024273  KCAL/ANGSTROM
     30         10  H    CARTESIAN Z     1.920436     -0.204568  KCAL/ANGSTROM
     31         11  H    CARTESIAN X    -3.139847      0.110972  KCAL/ANGSTROM
     32         11  H    CARTESIAN Y    -0.909638      0.018366  KCAL/ANGSTROM
     33         11  H    CARTESIAN Z     0.932248     -0.232115  KCAL/ANGSTROM
     34         12  H    CARTESIAN X    -2.816855      0.030025  KCAL/ANGSTROM
     35         12  H    CARTESIAN Y     0.622263      0.067367  KCAL/ANGSTROM
     36         12  H    CARTESIAN Z     1.765047      0.143146  KCAL/ANGSTROM
     37         13  H    CARTESIAN X    -3.221304     -0.069564  KCAL/ANGSTROM
     38         13  H    CARTESIAN Y     0.264921      0.054006  KCAL/ANGSTROM
     39         13  H    CARTESIAN Z    -1.449140     -0.110234  KCAL/ANGSTROM
     40         14  H    CARTESIAN X    -1.941548      0.004433  KCAL/ANGSTROM
     41         14  H    CARTESIAN Y     1.439337     -0.029189  KCAL/ANGSTROM
     42         14  H    CARTESIAN Z    -1.829169      0.125098  KCAL/ANGSTROM
     43         15  H    CARTESIAN X    -3.093051      0.018872  KCAL/ANGSTROM
     44         15  H    CARTESIAN Y     1.784702     -0.097028  KCAL/ANGSTROM
     45         15  H    CARTESIAN Z    -0.544433      0.014080  KCAL/ANGSTROM
     46         16  H    CARTESIAN X    -0.993027      0.102238  KCAL/ANGSTROM
     47         16  H    CARTESIAN Y    -1.800515     -0.047479  KCAL/ANGSTROM
     48         16  H    CARTESIAN Z    -0.323607      0.110870  KCAL/ANGSTROM
     49         17  H    CARTESIAN X    -0.746035     -0.194789  KCAL/ANGSTROM
     50         17  H    CARTESIAN Y    -0.775228     -0.040462  KCAL/ANGSTROM
     51         17  H    CARTESIAN Z    -1.736160      0.045381  KCAL/ANGSTROM
     52         18  H    CARTESIAN X     3.547645     -0.049977  KCAL/ANGSTROM
     53         18  H    CARTESIAN Y    -1.372931      0.161588  KCAL/ANGSTROM
     54         18  H    CARTESIAN Z    -0.094568     -0.088122  KCAL/ANGSTROM
     55         19  H    CARTESIAN X     0.848995     -0.034273  KCAL/ANGSTROM
     56         19  H    CARTESIAN Y     0.796294     -0.051088  KCAL/ANGSTROM
     57         19  H    CARTESIAN Z     1.643470     -0.149309  KCAL/ANGSTROM
     58         20  H    CARTESIAN X     1.246094     -0.139339  KCAL/ANGSTROM
     59         20  H    CARTESIAN Y     1.673582      0.195395  KCAL/ANGSTROM
     60         20  H    CARTESIAN Z     0.112248      0.074578  KCAL/ANGSTROM




   ATOM   CHEMICAL          X               Y               Z
  NUMBER   SYMBOL      (ANGSTROMS)     (ANGSTROMS)     (ANGSTROMS)

     1       C         -2.35087897  *  -0.20794151  *   1.21705209  *
     2       C         -1.59072714  *   0.31289412  *  -0.00098613  *
     3       C         -2.51484248  *   0.97809039  *  -1.01487623  *
     4       C         -0.69182419  *  -0.78267620  *  -0.63084934  *
     5       C          0.68591237  *  -0.43079394  *  -0.15352541  *
     6       N          1.69697865  *  -1.19890005  *  -0.36260871  *
     7       O          2.86874847  *  -0.68330314  *   0.17360365  *
     8       C          0.61450403  *   0.88800304  *   0.56687240  *
     9       O         -0.71894588  *   1.35831140  *   0.45092903  *
    10       H         -1.67843045  *  -0.71236403  *   1.92043572  *
    11       H         -3.13984725  *  -0.90963785  *   0.93224847  *
    12       H         -2.81685468  *   0.62226282  *   1.76504746  *
    13       H         -3.22130393  *   0.26492106  *  -1.44913987  *
    14       H         -1.94154750  *   1.43933650  *  -1.82916909  *
    15       H         -3.09305111  *   1.78470228  *  -0.54443339  *
    16       H         -0.99302746  *  -1.80051526  *  -0.32360665  *
    17       H         -0.74603493  *  -0.77522775  *  -1.73616032  *
    18       H          3.54764477  *  -1.37293136  *  -0.09456798  *
    19       H          0.84899505  *   0.79629401  *   1.64347031  *
    20       H          1.24609360  *   1.67358168  *   0.11224758  *

                             CARTESIAN COORDINATES

   1    C       -2.350878972    -0.207941513     1.217052088
   2    C       -1.590727142     0.312894122    -0.000986127
   3    C       -2.514842479     0.978090394    -1.014876228
   4    C       -0.691824193    -0.782676197    -0.630849337
   5    C        0.685912372    -0.430793940    -0.153525412
   6    N        1.696978654    -1.198900048    -0.362608710
   7    O        2.868748468    -0.683303141     0.173603651
   8    C        0.614504032     0.888003041     0.566872400
   9    O       -0.718945881     1.358311403     0.450929029
  10    H       -1.678430453    -0.712364030     1.920435719
  11    H       -3.139847249    -0.909637849     0.932248467
  12    H       -2.816854679     0.622262817     1.765047464
  13    H       -3.221303926     0.264921061    -1.449139872
  14    H       -1.941547504     1.439336503    -1.829169085
  15    H       -3.093051110     1.784702285    -0.544433386
  16    H       -0.993027464    -1.800515261    -0.323606646
  17    H       -0.746034928    -0.775227748    -1.736160321
  18    H        3.547644770    -1.372931362    -0.094567978
  19    H        0.848995047     0.796294005     1.643470312
  20    H        1.246093598     1.673581677     0.112247577


           Empirical Formula: C6 H11 N O2  =    20 atoms



      MOLECULAR POINT GROUP   :   C1  


                  EIGENVALUES  
 -34.56247 -30.97955 -28.68182 -27.83353 -25.57157 -24.35483 -23.71197 -19.86040
 -19.43576 -17.05780 -16.86099 -16.60262 -15.92144 -14.96404 -14.50605 -14.48509
 -14.05356 -13.49091 -13.17516 -12.99149 -12.67147 -12.49291 -11.89543 -10.88514
 -10.25697  -9.90487   0.67826   1.50686   2.16400   3.23348   3.71053   3.83447
   3.93663   4.18644   4.65470   5.01669   5.25615   5.42126   5.44156   5.63683
   5.65460   5.68444   5.71123   5.85500   6.07471   6.79417   6.89773


              NET ATOMIC CHARGES AND DIPOLE CONTRIBUTIONS

  ATOM NO.   TYPE          CHARGE      No. of ELECS.   s-Pop       p-Pop       
    1          C          -0.496946        4.4969     1.06228     3.43467
    2          C           0.319177        3.6808     1.08069     2.60013
    3          C          -0.484096        4.4841     1.06006     3.42404
    4          C          -0.340890        4.3409     1.07342     3.26747
    5          C           0.095412        3.9046     1.09518     2.80940
    6          N          -0.207350        5.2074     1.79681     3.41055
    7          O          -0.335049        6.3350     1.90348     4.43157
    8          C          -0.061415        4.0614     1.08889     2.97252
    9          O          -0.416045        6.4160     1.88409     4.53196
   10          H           0.156506        0.8435     0.84349
   11          H           0.151858        0.8481     0.84814
   12          H           0.165841        0.8342     0.83416
   13          H           0.152137        0.8479     0.84786
   14          H           0.161630        0.8384     0.83837
   15          H           0.164572        0.8354     0.83543
   16          H           0.174384        0.8256     0.82562
   17          H           0.174821        0.8252     0.82518
   18          H           0.314595        0.6854     0.68541
   19          H           0.150958        0.8490     0.84904
   20          H           0.159901        0.8401     0.84010
 DIPOLE           X         Y         Z       TOTAL
 POINT-CHG.    -1.211    -1.249    -0.544     1.823
 HYBRID         0.323     0.528     0.346     0.709
 SUM           -0.888    -0.721    -0.199     1.161


          ATOMIC ORBITAL ELECTRON POPULATIONS

     Atom    s        px        py        pz   
    1  C   1.06228   1.15241   1.17349   1.10878
    2  C   1.08069   0.86443   0.82866   0.90704
    3  C   1.06006   1.13494   1.15944   1.12965
    4  C   1.07342   0.98992   1.12333   1.15422
    5  C   1.09518   0.92751   0.94220   0.93969
    6  N   1.79681   0.97196   1.25892   1.17967
    7  O   1.90348   1.21245   1.47887   1.74025
    8  C   1.08889   0.86189   1.00305   1.10758
    9  O   1.88409   1.23525   1.39739   1.89932
   10  H   0.84349
   11  H   0.84814
   12  H   0.83416
   13  H   0.84786
   14  H   0.83837
   15  H   0.83543
   16  H   0.82562
   17  H   0.82518
   18  H   0.68541
   19  H   0.84904
   20  H   0.84010

 **********************
 *                    *
 * JOB ENDED NORMALLY *
 *                    *
 **********************



 TOTAL JOB TIME:             1.12 SECONDS

 == MOPAC DONE ==
