 *******************************************************************************
 **                                                                           **
 **                              MOPAC v23.2                                  **
 **                                                                           **
 *******************************************************************************
 **          Digital Object Identifier (DOI): 10.5281/zenodo.6511958          **
 **    Visit the DOI location for information on how to cite this program.    **
 *******************************************************************************

                              PM7 CALCULATION RESULTS

 *******************************************************************************
 *  CALCULATION DONE: (MAX THREADS = 40)             Fri Sep 19 22:03:21 2025  *
 *  PM7        - The PM7 Hamiltonian to be used
 *
 *
 *
 *                 CHARGE ON SYSTEM = +1
 *
 *
 *
 *  1SCF       - DO 1 SCF AND THEN STOP 
 *  T=         - A TIME OF 172800.0 SECONDS REQUESTED
 *  DUMP=N     - RESTART FILE WRITTEN EVERY 7200.0 SECONDS REQUESTED
 *  RELSCF     - DEFAULT SCF CRITERION MULTIPLIED BY 0.0001
 *              (DEFAULT SCF CRITERION = 0.00010)
 *  GRADIENTS  - ALL GRADIENTS TO BE PRINTED
 *  DISP       - PRINT DISPERSION AND HYDROGEN BOND ENERGIES
 *******************************************************************************
PM7 1SCF GRADIENTS DISP RELSCF=0.0001 CHARGE=1
 Title: ASE calculation

   ATOM   CHEMICAL          X               Y               Z
  NUMBER   SYMBOL      (ANGSTROMS)     (ANGSTROMS)     (ANGSTROMS)

     1       C          0.28642958  *   1.75434217  *   0.58769636  *
     2       C          0.33733011  *   0.32285205  *   0.27248343  *
     3       O          0.83738825  *  -0.01368695  *  -1.02369263  *
     4       C          1.71341768  *  -1.07981295  *  -0.51504502  *
     5       C          1.21752928  *  -0.85933094  *   0.91262906  *
     6       O         -0.08591719  *  -1.60602406  *   1.10510309  *
     7       C         -0.83282646  *  -0.65566130  *   0.59711840  *
     8       C         -2.26618959  *  -0.76884403  *   0.41612765  *
     9       C         -2.48243513  *  -1.18581460  *  -0.99090674  *
    10       H          1.29048197  *   2.22753262  *   0.52054763  *
    11       H         -0.09578705  *   1.98402630  *   1.59603690  *
    12       H         -0.33439206  *   2.32243140  *  -0.13604838  *
    13       H          2.76265981  *  -0.79693056  *  -0.70948088  *
    14       H          1.47537370  *  -2.03321202  *  -1.00761177  *
    15       H          1.81288192  *  -0.89170921  *   1.81397321  *
    16       H         -2.74379948  *  -1.50284654  *   1.12672957  *
    17       H         -2.79977602  *   0.20421726  *   0.61871003  *
    18       H         -2.52065309  *  -0.46663793  *  -1.78352505  *
    19       H         -2.66043689  *  -2.21371949  *  -1.23606226  *



          CARTESIAN COORDINATES 

    NO.       ATOM           X           Y           Z

     1         C          0.2864      1.7543      0.5877
     2         C          0.3373      0.3229      0.2725
     3         O          0.8374     -0.0137     -1.0237
     4         C          1.7134     -1.0798     -0.5150
     5         C          1.2175     -0.8593      0.9126
     6         O         -0.0859     -1.6060      1.1051
     7         C         -0.8328     -0.6557      0.5971
     8         C         -2.2662     -0.7688      0.4161
     9         C         -2.4824     -1.1858     -0.9909
    10         H          1.2905      2.2275      0.5205
    11         H         -0.0958      1.9840      1.5960
    12         H         -0.3344      2.3224     -0.1360
    13         H          2.7627     -0.7969     -0.7095
    14         H          1.4754     -2.0332     -1.0076
    15         H          1.8129     -0.8917      1.8140
    16         H         -2.7438     -1.5028      1.1267
    17         H         -2.7998      0.2042      0.6187
    18         H         -2.5207     -0.4666     -1.7835
    19         H         -2.6604     -2.2137     -1.2361

 General Reference for PM7:
 "Optimization of Parameters for Semiempirical Methods VI: More Modifications to the 
 NDDO Approximations and Re-optimization of Parameters", J. J. P. Stewart, J. Mol. Mod., 1:32, 19 (2013)
 https://link.springer.com/article/10.1007/s00894-012-1667-x

           Empirical Formula: C7 H10 O2  =    19 atoms



      MOLECULAR POINT GROUP   :   C1  


          UHF CALCULATION, NO. OF ALPHA ELECTRONS =   25
                           NO. OF BETA  ELECTRONS =   24
  SCF CRITERION =    0.1000E-07

 -------------------------------------------------------------------------------
 PM7 1SCF GRADIENTS DISP RELSCF=0.0001 CHARGE=1
 Title: ASE calculation



     1SCF WAS SPECIFIED, SO BFGS WAS NOT USED                 
     SCF FIELD WAS ACHIEVED                                   


                              PM7 CALCULATION
                                                       MOPAC v23.2 Linux
                                                       Fri Sep 19 22:03:22 2025




          FINAL HEAT OF FORMATION =        179.96863 KCAL/MOL =     752.98876 KJ/MOL

          TOTAL ENERGY            =     -36300.48109 KCAL/MOL = ELECTRONIC ENERGY + CORE-CORE REPULSION
          ENERGY OF ATOMS         =      36482.50324 KCAL/MOL
                              SUM =        182.02214 KCAL/MOL
          DISPERSION ENERGY       =         -2.05351 KCAL/MOL
                              SUM =        179.96863 KCAL/MOL = FINAL HEAT OF FORMATION



          TOTAL ENERGY            =      -1574.13785 EV
          ELECTRONIC ENERGY       =      -7655.35956 EV 
          CORE-CORE REPULSION     =       6081.22172 EV
          COSMO AREA              =        163.54 SQUARE ANGSTROMS
          COSMO VOLUME            =        164.22 CUBIC ANGSTROMS

          GRADIENT NORM           =          0.88832          =       0.20380 PER ATOM
          IONIZATION POTENTIAL    =         14.130841 EV
          ALPHA SOMO LUMO (EV)    =        -14.131 -6.280
          BETA  SOMO LUMO (EV)    =        -15.349 -6.313
          NO. OF ALPHA ELECTRONS  =         25
          NO. OF BETA  ELECTRONS  =         24
          MOLECULAR WEIGHT        =        126.1548         POINT GROUP:  C1  

          MOLECULAR DIMENSIONS (Angstroms)

            Atom       Atom       Distance
            H    19    H    10     6.19840
            H    17    H    13     5.26267
            H    15    H    18     3.90644


          SCF CALCULATIONS        =          1

          WALL-CLOCK TIME         =      0.672 SECONDS
          COMPUTATION TIME        =      0.848 SECONDS

          LARGEST ATOMIC GRADIENTS

          Atom     Label                     Cartesian Gradients           Cartesian Coordinates       |Gradient|
                                           X          Y          Z        X          Y          Z

             7       C                  -0.387      0.076     -0.082   -0.83283   -0.65566    0.59712      0.403
             5       C                   0.130      0.260     -0.051    1.21753   -0.85933    0.91263      0.295
            18       H                  -0.199     -0.128      0.018   -2.52065   -0.46664   -1.78353      0.237
            13       H                  -0.220      0.020      0.073    2.76266   -0.79693   -0.70948      0.233
            12       H                   0.126      0.165     -0.075   -0.33439    2.32243   -0.13605      0.221
            16       H                  -0.154     -0.086      0.103   -2.74380   -1.50285    1.12673      0.204
            19       H                   0.189      0.007      0.061   -2.66044   -2.21372   -1.23606      0.198
            17       H                   0.166     -0.100     -0.029   -2.79978    0.20422    0.61871      0.196
             8       C                  -0.088     -0.128     -0.112   -2.26619   -0.76884    0.41613      0.191
            15       H                  -0.150     -0.078      0.074    1.81288   -0.89171    1.81397      0.185



       FINAL  POINT  AND  DERIVATIVES

   PARAMETER     ATOM    TYPE            VALUE        GRADIENT
      1          1  C    CARTESIAN X     0.286430      0.122869  KCAL/ANGSTROM
      2          1  C    CARTESIAN Y     1.754342      0.029346  KCAL/ANGSTROM
      3          1  C    CARTESIAN Z     0.587696      0.005732  KCAL/ANGSTROM
      4          2  C    CARTESIAN X     0.337330      0.129993  KCAL/ANGSTROM
      5          2  C    CARTESIAN Y     0.322852      0.028510  KCAL/ANGSTROM
      6          2  C    CARTESIAN Z     0.272483      0.121149  KCAL/ANGSTROM
      7          3  O    CARTESIAN X     0.837388      0.023761  KCAL/ANGSTROM
      8          3  O    CARTESIAN Y    -0.013687     -0.123625  KCAL/ANGSTROM
      9          3  O    CARTESIAN Z    -1.023693      0.048241  KCAL/ANGSTROM
     10          4  C    CARTESIAN X     1.713418      0.026362  KCAL/ANGSTROM
     11          4  C    CARTESIAN Y    -1.079813      0.095326  KCAL/ANGSTROM
     12          4  C    CARTESIAN Z    -0.515045     -0.088102  KCAL/ANGSTROM
     13          5  C    CARTESIAN X     1.217529      0.130417  KCAL/ANGSTROM
     14          5  C    CARTESIAN Y    -0.859331      0.259760  KCAL/ANGSTROM
     15          5  C    CARTESIAN Z     0.912629     -0.051236  KCAL/ANGSTROM
     16          6  O    CARTESIAN X    -0.085917     -0.052460  KCAL/ANGSTROM
     17          6  O    CARTESIAN Y    -1.606024     -0.010687  KCAL/ANGSTROM
     18          6  O    CARTESIAN Z     1.105103     -0.092543  KCAL/ANGSTROM
     19          7  C    CARTESIAN X    -0.832826     -0.387184  KCAL/ANGSTROM
     20          7  C    CARTESIAN Y    -0.655661      0.075556  KCAL/ANGSTROM
     21          7  C    CARTESIAN Z     0.597118     -0.081578  KCAL/ANGSTROM
     22          8  C    CARTESIAN X    -2.266190     -0.088128  KCAL/ANGSTROM
     23          8  C    CARTESIAN Y    -0.768844     -0.128001  KCAL/ANGSTROM
     24          8  C    CARTESIAN Z     0.416128     -0.111539  KCAL/ANGSTROM
     25          9  C    CARTESIAN X    -2.482435      0.053111  KCAL/ANGSTROM
     26          9  C    CARTESIAN Y    -1.185815     -0.127087  KCAL/ANGSTROM
     27          9  C    CARTESIAN Z    -0.990907      0.001704  KCAL/ANGSTROM
     28         10  H    CARTESIAN X     1.290482      0.155918  KCAL/ANGSTROM
     29         10  H    CARTESIAN Y     2.227533     -0.008969  KCAL/ANGSTROM
     30         10  H    CARTESIAN Z     0.520548      0.062805  KCAL/ANGSTROM
     31         11  H    CARTESIAN X    -0.095787      0.169886  KCAL/ANGSTROM
     32         11  H    CARTESIAN Y     1.984026      0.008614  KCAL/ANGSTROM
     33         11  H    CARTESIAN Z     1.596037      0.033642  KCAL/ANGSTROM
     34         12  H    CARTESIAN X    -0.334392      0.125850  KCAL/ANGSTROM
     35         12  H    CARTESIAN Y     2.322431      0.165384  KCAL/ANGSTROM
     36         12  H    CARTESIAN Z    -0.136048     -0.075027  KCAL/ANGSTROM
     37         13  H    CARTESIAN X     2.762660     -0.220055  KCAL/ANGSTROM
     38         13  H    CARTESIAN Y    -0.796931      0.020130  KCAL/ANGSTROM
     39         13  H    CARTESIAN Z    -0.709481      0.072991  KCAL/ANGSTROM
     40         14  H    CARTESIAN X     1.475374     -0.042247  KCAL/ANGSTROM
     41         14  H    CARTESIAN Y    -2.033212      0.100286  KCAL/ANGSTROM
     42         14  H    CARTESIAN Z    -1.007612     -0.073614  KCAL/ANGSTROM
     43         15  H    CARTESIAN X     1.812882     -0.150215  KCAL/ANGSTROM
     44         15  H    CARTESIAN Y    -0.891709     -0.077958  KCAL/ANGSTROM
     45         15  H    CARTESIAN Z     1.813973      0.073578  KCAL/ANGSTROM
     46         16  H    CARTESIAN X    -2.743799     -0.154064  KCAL/ANGSTROM
     47         16  H    CARTESIAN Y    -1.502847     -0.085599  KCAL/ANGSTROM
     48         16  H    CARTESIAN Z     1.126730      0.103483  KCAL/ANGSTROM
     49         17  H    CARTESIAN X    -2.799776      0.166307  KCAL/ANGSTROM
     50         17  H    CARTESIAN Y     0.204217     -0.099910  KCAL/ANGSTROM
     51         17  H    CARTESIAN Z     0.618710     -0.028597  KCAL/ANGSTROM
     52         18  H    CARTESIAN X    -2.520653     -0.198838  KCAL/ANGSTROM
     53         18  H    CARTESIAN Y    -0.466638     -0.128408  KCAL/ANGSTROM
     54         18  H    CARTESIAN Z    -1.783525      0.018151  KCAL/ANGSTROM
     55         19  H    CARTESIAN X    -2.660437      0.188720  KCAL/ANGSTROM
     56         19  H    CARTESIAN Y    -2.213719      0.007329  KCAL/ANGSTROM
     57         19  H    CARTESIAN Z    -1.236062      0.060756  KCAL/ANGSTROM




   ATOM   CHEMICAL          X               Y               Z
  NUMBER   SYMBOL      (ANGSTROMS)     (ANGSTROMS)     (ANGSTROMS)

     1       C          0.28642958  *   1.75434217  *   0.58769636  *
     2       C          0.33733011  *   0.32285205  *   0.27248343  *
     3       O          0.83738825  *  -0.01368695  *  -1.02369263  *
     4       C          1.71341768  *  -1.07981295  *  -0.51504502  *
     5       C          1.21752928  *  -0.85933094  *   0.91262906  *
     6       O         -0.08591719  *  -1.60602406  *   1.10510309  *
     7       C         -0.83282646  *  -0.65566130  *   0.59711840  *
     8       C         -2.26618959  *  -0.76884403  *   0.41612765  *
     9       C         -2.48243513  *  -1.18581460  *  -0.99090674  *
    10       H          1.29048197  *   2.22753262  *   0.52054763  *
    11       H         -0.09578705  *   1.98402630  *   1.59603690  *
    12       H         -0.33439206  *   2.32243140  *  -0.13604838  *
    13       H          2.76265981  *  -0.79693056  *  -0.70948088  *
    14       H          1.47537370  *  -2.03321202  *  -1.00761177  *
    15       H          1.81288192  *  -0.89170921  *   1.81397321  *
    16       H         -2.74379948  *  -1.50284654  *   1.12672957  *
    17       H         -2.79977602  *   0.20421726  *   0.61871003  *
    18       H         -2.52065309  *  -0.46663793  *  -1.78352505  *
    19       H         -2.66043689  *  -2.21371949  *  -1.23606226  *

                             CARTESIAN COORDINATES

   1    C        0.286429583     1.754342170     0.587696364
   2    C        0.337330109     0.322852046     0.272483433
   3    O        0.837388253    -0.013686950    -1.023692629
   4    C        1.713417684    -1.079812953    -0.515045019
   5    C        1.217529277    -0.859330938     0.912629064
   6    O       -0.085917193    -1.606024057     1.105103088
   7    C       -0.832826462    -0.655661303     0.597118398
   8    C       -2.266189590    -0.768844031     0.416127648
   9    C       -2.482435129    -1.185814598    -0.990906745
  10    H        1.290481965     2.227532617     0.520547634
  11    H       -0.095787049     1.984026302     1.596036901
  12    H       -0.334392057     2.322431399    -0.136048376
  13    H        2.762659813    -0.796930564    -0.709480876
  14    H        1.475373698    -2.033212019    -1.007611767
  15    H        1.812881922    -0.891709207     1.813973212
  16    H       -2.743799481    -1.502846542     1.126729572
  17    H       -2.799776018     0.204217257     0.618710035
  18    H       -2.520653089    -0.466637933    -1.783525055
  19    H       -2.660436889    -2.213719491    -1.236062255


           Empirical Formula: C7 H10 O2  =    19 atoms



      MOLECULAR POINT GROUP   :   C1  


          ALPHA EIGENVALUES  
 -39.24891 -35.67393 -33.46378 -31.68828 -30.45842 -28.29304 -27.07312 -25.40531
 -23.30324 -23.25259 -22.16361 -21.95397 -20.80815 -20.22327 -19.59715 -19.27570
 -19.05561 -18.74826 -18.32181 -17.85400 -17.34947 -16.94540 -16.51523 -15.38075
 -14.13084  -6.27970  -4.69412  -3.78520  -3.28704  -2.91183  -2.27908  -1.75029
  -1.54553  -1.39446  -0.83075  -0.76972   0.04828   0.32670   0.77341   0.96889
   1.02644   1.03843   1.15919   1.83363   1.98720   2.25433


           BETA EIGENVALUES 
 -39.23756 -35.66191 -33.35043 -31.67248 -30.44650 -28.21036 -26.94380 -25.23017
 -23.26307 -23.24229 -22.08121 -21.93374 -20.75371 -20.09750 -19.50790 -19.25294
 -19.02804 -18.65253 -18.31855 -17.80736 -17.26698 -16.87639 -16.50367 -15.34881
  -6.31348  -4.70004  -4.13368  -3.78175  -3.18919  -2.88076  -2.25854  -1.63472
  -1.51965  -1.37738  -0.82920  -0.49455   0.07050   0.32681   0.77383   1.00887
   1.02817   1.03862   1.15946   2.00027   2.23427   2.25641


              NET ATOMIC CHARGES AND DIPOLE CONTRIBUTIONS

  ATOM NO.   TYPE          CHARGE      No. of ELECS.   s-Pop       p-Pop       
    1          C          -0.489708        4.4897     1.04943     3.44028
    2          C           0.185315        3.8147     1.12413     2.69055
    3          O          -0.293634        6.2936     1.91265     4.38099
    4          C          -0.099946        4.0999     1.11287     2.98707
    5          C           0.002047        3.9980     1.17158     2.82637
    6          O          -0.156474        6.1565     1.88944     4.26703
    7          C           0.426757        3.5732     1.23855     2.33469
    8          C          -0.369522        4.3695     1.05666     3.31286
    9          C          -0.235294        4.2353     1.13076     3.10453
   10          H           0.215019        0.7850     0.78498
   11          H           0.192355        0.8076     0.80765
   12          H           0.209379        0.7906     0.79062
   13          H           0.201464        0.7985     0.79854
   14          H           0.189208        0.8108     0.81079
   15          H           0.210263        0.7897     0.78974
   16          H           0.230010        0.7700     0.76999
   17          H           0.233053        0.7669     0.76695
   18          H           0.173353        0.8266     0.82665
   19          H           0.176355        0.8236     0.82364
 DIPOLE           X         Y         Z       TOTAL
 POINT-CHG.    -0.329     0.674     2.180     2.305
 HYBRID        -0.236    -0.611     0.146     0.671
 SUM           -0.565     0.063     2.326     2.394


          ATOMIC ORBITAL ELECTRON POPULATIONS

     Atom    s        px        py        pz   
    1  C   1.04943   1.24707   0.98742   1.20579
    2  C   1.12413   0.85505   0.97620   0.85930
    3  O   1.91265   1.61546   1.54371   1.22181
    4  C   1.11287   1.06269   1.00573   0.91866
    5  C   1.17158   0.86512   0.88404   1.07722
    6  O   1.88944   1.30612   1.40227   1.55864
    7  C   1.23855   0.95919   0.83005   0.54546
    8  C   1.05666   0.96413   1.23610   1.11262
    9  C   1.13076   0.99405   1.15390   0.95659
   10  H   0.78498
   11  H   0.80765
   12  H   0.79062
   13  H   0.79854
   14  H   0.81079
   15  H   0.78974
   16  H   0.76999
   17  H   0.76695
   18  H   0.82665
   19  H   0.82364


                    (SZ)    =    0.500000
                    (S**2)  =    0.753587


          ATOMIC ORBITAL SPIN POPULATIONS

    Atom   Total    s     px     py     pz   
         Atomic
    1  C -0.0001 -0.000  0.000 -0.000  0.000
    2  C  0.0015  0.000  0.002  0.000 -0.000
    3  O  0.0019  0.000  0.001  0.001  0.000
    4  C  0.0002  0.000  0.000 -0.000  0.000
    5  C  0.0011  0.000  0.001 -0.001  0.000
    6  O  0.0051  0.000  0.001  0.002  0.002
    7  C  0.0387  0.014  0.023 -0.000  0.002
    8  C -0.0470 -0.005 -0.016 -0.006 -0.020
    9  C  1.0334  0.025  0.912  0.046  0.050
   10  H  0.0000  0.000
   11  H  0.0000  0.000
   12  H  0.0000  0.000
   13  H  0.0002  0.000
   14  H -0.0000 -0.000
   15  H -0.0001 -0.000
   16  H  0.0075  0.008
   17  H  0.0151  0.015
   18  H -0.0288 -0.029
   19  H -0.0287 -0.029

 **********************
 *                    *
 * JOB ENDED NORMALLY *
 *                    *
 **********************



 TOTAL JOB TIME:             1.07 SECONDS

 == MOPAC DONE ==
