 *******************************************************************************
 **                                                                           **
 **                              MOPAC v23.2                                  **
 **                                                                           **
 *******************************************************************************
 **          Digital Object Identifier (DOI): 10.5281/zenodo.6511958          **
 **    Visit the DOI location for information on how to cite this program.    **
 *******************************************************************************

                              PM7 CALCULATION RESULTS

 *******************************************************************************
 *  CALCULATION DONE: (MAX THREADS = 40)             Fri Sep 19 21:40:38 2025  *
 *  PM7        - The PM7 Hamiltonian to be used
 *  1SCF       - DO 1 SCF AND THEN STOP 
 *  T=         - A TIME OF 172800.0 SECONDS REQUESTED
 *  DUMP=N     - RESTART FILE WRITTEN EVERY 7200.0 SECONDS REQUESTED
 *  RELSCF     - DEFAULT SCF CRITERION MULTIPLIED BY 0.0001
 *              (DEFAULT SCF CRITERION = 0.00010)
 *  GRADIENTS  - ALL GRADIENTS TO BE PRINTED
 *  DISP       - PRINT DISPERSION AND HYDROGEN BOND ENERGIES
 *******************************************************************************
PM7 1SCF GRADIENTS DISP RELSCF=0.0001
 Title: ASE calculation

   ATOM   CHEMICAL          X               Y               Z
  NUMBER   SYMBOL      (ANGSTROMS)     (ANGSTROMS)     (ANGSTROMS)

     1       C          2.82634811  *   0.03673882  *   0.98316237  *
     2       O          1.53242639  *  -0.34341951  *   0.55803662  *
     3       C          0.89639016  *   0.66088355  *  -0.22469004  *
     4       C         -0.49717782  *   0.12816231  *  -0.49620204  *
     5       C         -0.55919167  *  -1.36026687  *  -0.66659875  *
     6       O         -1.56820311  *  -1.89847839  *  -1.05345409  *
     7       C         -1.48301354  *   0.98339320  *  -1.27685230  *
     8       N         -1.58553904  *   0.88114231  *   0.18437487  *
     9       C         -2.71774748  *   0.15526848  *   0.75414208  *
    10       H          2.78917544  *   0.94272175  *   1.59657562  *
    11       H          3.49369712  *   0.16787186  *   0.12570539  *
    12       H          3.14394497  *  -0.81868778  *   1.59379244  *
    13       H          1.46194919  *   0.80390037  *  -1.16394050  *
    14       H          0.86394520  *   1.61274328  *   0.34127622  *
    15       H          0.34267810  *  -1.94279800  *  -0.43754175  *
    16       H         -2.21155302  *   0.49839828  *  -1.93200603  *
    17       H         -1.18155936  *   1.96105130  *  -1.65832756  *
    18       H         -3.08638663  *  -0.70848633  *   0.17503293  *
    19       H         -2.43508478  *  -0.19994771  *   1.76118723  *
    20       H         -3.55341333  *   0.86935375  *   0.86842013  *



          CARTESIAN COORDINATES 

    NO.       ATOM           X           Y           Z

     1         C          2.8263      0.0367      0.9832
     2         O          1.5324     -0.3434      0.5580
     3         C          0.8964      0.6609     -0.2247
     4         C         -0.4972      0.1282     -0.4962
     5         C         -0.5592     -1.3603     -0.6666
     6         O         -1.5682     -1.8985     -1.0535
     7         C         -1.4830      0.9834     -1.2769
     8         N         -1.5855      0.8811      0.1844
     9         C         -2.7177      0.1553      0.7541
    10         H          2.7892      0.9427      1.5966
    11         H          3.4937      0.1679      0.1257
    12         H          3.1439     -0.8187      1.5938
    13         H          1.4619      0.8039     -1.1639
    14         H          0.8639      1.6127      0.3413
    15         H          0.3427     -1.9428     -0.4375
    16         H         -2.2116      0.4984     -1.9320
    17         H         -1.1816      1.9611     -1.6583
    18         H         -3.0864     -0.7085      0.1750
    19         H         -2.4351     -0.1999      1.7612
    20         H         -3.5534      0.8694      0.8684

 General Reference for PM7:
 "Optimization of Parameters for Semiempirical Methods VI: More Modifications to the 
 NDDO Approximations and Re-optimization of Parameters", J. J. P. Stewart, J. Mol. Mod., 1:32, 19 (2013)
 https://link.springer.com/article/10.1007/s00894-012-1667-x

           Empirical Formula: C6 H11 N O2  =    20 atoms



      MOLECULAR POINT GROUP   :   C1  


      RHF CALCULATION, NO. OF DOUBLY OCCUPIED LEVELS = 26

  SCF CRITERION =    0.1000E-07

 -------------------------------------------------------------------------------
 PM7 1SCF GRADIENTS DISP RELSCF=0.0001
 Title: ASE calculation



     1SCF WAS SPECIFIED, SO BFGS WAS NOT USED                 
     SCF FIELD WAS ACHIEVED                                   


                              PM7 CALCULATION
                                                       MOPAC v23.2 Linux
                                                       Fri Sep 19 21:40:38 2025




          FINAL HEAT OF FORMATION =        -38.57806 KCAL/MOL =    -161.41061 KJ/MOL

          TOTAL ENERGY            =     -38290.28886 KCAL/MOL = ELECTRONIC ENERGY + CORE-CORE REPULSION
          ENERGY OF ATOMS         =      38253.74801 KCAL/MOL
                              SUM =        -36.54085 KCAL/MOL
          DISPERSION ENERGY       =         -2.03721 KCAL/MOL
                              SUM =        -38.57806 KCAL/MOL = FINAL HEAT OF FORMATION



          TOTAL ENERGY            =      -1660.42408 EV
          ELECTRONIC ENERGY       =      -7945.87623 EV 
          CORE-CORE REPULSION     =       6285.45216 EV
          COSMO AREA              =        169.25 SQUARE ANGSTROMS
          COSMO VOLUME            =        167.01 CUBIC ANGSTROMS

          GRADIENT NORM           =          1.25771          =       0.28123 PER ATOM
          IONIZATION POTENTIAL    =          9.717027 EV
          HOMO LUMO ENERGIES (EV) =         -9.717  0.360
          NO. OF FILLED LEVELS    =         26
          MOLECULAR WEIGHT        =        129.1584         POINT GROUP:  C1  

          MOLECULAR DIMENSIONS (Angstroms)

            Atom       Atom       Distance
            H    20    H    11     7.12078
            H    10    O     6     4.46926
            H    12    H    17     4.30641


          SCF CALCULATIONS        =          1

          WALL-CLOCK TIME         =      0.430 SECONDS
          COMPUTATION TIME        =      0.566 SECONDS

          LARGEST ATOMIC GRADIENTS

          Atom     Label                     Cartesian Gradients           Cartesian Coordinates       |Gradient|
                                           X          Y          Z        X          Y          Z

            11       H                  -0.247     -0.033     -0.370    3.49370    0.16787    0.12571      0.446
             2       O                   0.164     -0.405     -0.007    1.53243   -0.34342    0.55804      0.437
             5       C                   0.056      0.426      0.037   -0.55919   -1.36027   -0.66660      0.431
             4       C                   0.116      0.305      0.252   -0.49718    0.12816   -0.49620      0.412
            20       H                   0.070     -0.279     -0.288   -3.55341    0.86935    0.86842      0.408
             3       C                   0.280     -0.126      0.128    0.89639    0.66088   -0.22469      0.333
            18       H                  -0.257     -0.052      0.188   -3.08639   -0.70849    0.17503      0.323
            12       H                  -0.220      0.139      0.148    3.14394   -0.81869    1.59379      0.300
            16       H                  -0.240     -0.059      0.012   -2.21155    0.49840   -1.93201      0.248
            14       H                   0.229     -0.061     -0.061    0.86395    1.61274    0.34128      0.245



       FINAL  POINT  AND  DERIVATIVES

   PARAMETER     ATOM    TYPE            VALUE        GRADIENT
      1          1  C    CARTESIAN X     2.826348      0.084585  KCAL/ANGSTROM
      2          1  C    CARTESIAN Y     0.036739     -0.012328  KCAL/ANGSTROM
      3          1  C    CARTESIAN Z     0.983162     -0.056279  KCAL/ANGSTROM
      4          2  O    CARTESIAN X     1.532426      0.163687  KCAL/ANGSTROM
      5          2  O    CARTESIAN Y    -0.343420     -0.405189  KCAL/ANGSTROM
      6          2  O    CARTESIAN Z     0.558037     -0.006596  KCAL/ANGSTROM
      7          3  C    CARTESIAN X     0.896390      0.280489  KCAL/ANGSTROM
      8          3  C    CARTESIAN Y     0.660884     -0.126256  KCAL/ANGSTROM
      9          3  C    CARTESIAN Z    -0.224690      0.128105  KCAL/ANGSTROM
     10          4  C    CARTESIAN X    -0.497178      0.115908  KCAL/ANGSTROM
     11          4  C    CARTESIAN Y     0.128162      0.305359  KCAL/ANGSTROM
     12          4  C    CARTESIAN Z    -0.496202      0.251757  KCAL/ANGSTROM
     13          5  C    CARTESIAN X    -0.559192      0.055582  KCAL/ANGSTROM
     14          5  C    CARTESIAN Y    -1.360267      0.425722  KCAL/ANGSTROM
     15          5  C    CARTESIAN Z    -0.666599      0.036977  KCAL/ANGSTROM
     16          6  O    CARTESIAN X    -1.568203      0.121951  KCAL/ANGSTROM
     17          6  O    CARTESIAN Y    -1.898478      0.138508  KCAL/ANGSTROM
     18          6  O    CARTESIAN Z    -1.053454     -0.021348  KCAL/ANGSTROM
     19          7  C    CARTESIAN X    -1.483014     -0.016971  KCAL/ANGSTROM
     20          7  C    CARTESIAN Y     0.983393     -0.092294  KCAL/ANGSTROM
     21          7  C    CARTESIAN Z    -1.276852     -0.013452  KCAL/ANGSTROM
     22          8  N    CARTESIAN X    -1.585539     -0.049189  KCAL/ANGSTROM
     23          8  N    CARTESIAN Y     0.881142     -0.007566  KCAL/ANGSTROM
     24          8  N    CARTESIAN Z     0.184375      0.019672  KCAL/ANGSTROM
     25          9  C    CARTESIAN X    -2.717747      0.066691  KCAL/ANGSTROM
     26          9  C    CARTESIAN Y     0.155268     -0.094710  KCAL/ANGSTROM
     27          9  C    CARTESIAN Z     0.754142     -0.035767  KCAL/ANGSTROM
     28         10  H    CARTESIAN X     2.789175     -0.161337  KCAL/ANGSTROM
     29         10  H    CARTESIAN Y     0.942722      0.006647  KCAL/ANGSTROM
     30         10  H    CARTESIAN Z     1.596576     -0.007839  KCAL/ANGSTROM
     31         11  H    CARTESIAN X     3.493697     -0.246702  KCAL/ANGSTROM
     32         11  H    CARTESIAN Y     0.167872     -0.032828  KCAL/ANGSTROM
     33         11  H    CARTESIAN Z     0.125705     -0.370379  KCAL/ANGSTROM
     34         12  H    CARTESIAN X     3.143945     -0.220326  KCAL/ANGSTROM
     35         12  H    CARTESIAN Y    -0.818688      0.139355  KCAL/ANGSTROM
     36         12  H    CARTESIAN Z     1.593792      0.147766  KCAL/ANGSTROM
     37         13  H    CARTESIAN X     1.461949      0.101097  KCAL/ANGSTROM
     38         13  H    CARTESIAN Y     0.803900      0.041403  KCAL/ANGSTROM
     39         13  H    CARTESIAN Z    -1.163940     -0.057888  KCAL/ANGSTROM
     40         14  H    CARTESIAN X     0.863945      0.228855  KCAL/ANGSTROM
     41         14  H    CARTESIAN Y     1.612743     -0.060994  KCAL/ANGSTROM
     42         14  H    CARTESIAN Z     0.341276     -0.060856  KCAL/ANGSTROM
     43         15  H    CARTESIAN X     0.342678     -0.051129  KCAL/ANGSTROM
     44         15  H    CARTESIAN Y    -1.942798      0.148091  KCAL/ANGSTROM
     45         15  H    CARTESIAN Z    -0.437542      0.088919  KCAL/ANGSTROM
     46         16  H    CARTESIAN X    -2.211553     -0.240098  KCAL/ANGSTROM
     47         16  H    CARTESIAN Y     0.498398     -0.059313  KCAL/ANGSTROM
     48         16  H    CARTESIAN Z    -1.932006      0.011745  KCAL/ANGSTROM
     49         17  H    CARTESIAN X    -1.181559      0.054353  KCAL/ANGSTROM
     50         17  H    CARTESIAN Y     1.961051     -0.105882  KCAL/ANGSTROM
     51         17  H    CARTESIAN Z    -1.658328      0.192893  KCAL/ANGSTROM
     52         18  H    CARTESIAN X    -3.086387     -0.256847  KCAL/ANGSTROM
     53         18  H    CARTESIAN Y    -0.708486     -0.052008  KCAL/ANGSTROM
     54         18  H    CARTESIAN Z     0.175033      0.188126  KCAL/ANGSTROM
     55         19  H    CARTESIAN X    -2.435085     -0.100834  KCAL/ANGSTROM
     56         19  H    CARTESIAN Y    -0.199948      0.123554  KCAL/ANGSTROM
     57         19  H    CARTESIAN Z     1.761187     -0.147216  KCAL/ANGSTROM
     58         20  H    CARTESIAN X    -3.553413      0.070236  KCAL/ANGSTROM
     59         20  H    CARTESIAN Y     0.869354     -0.279271  KCAL/ANGSTROM
     60         20  H    CARTESIAN Z     0.868420     -0.288343  KCAL/ANGSTROM




   ATOM   CHEMICAL          X               Y               Z
  NUMBER   SYMBOL      (ANGSTROMS)     (ANGSTROMS)     (ANGSTROMS)

     1       C          2.82634811  *   0.03673882  *   0.98316237  *
     2       O          1.53242639  *  -0.34341951  *   0.55803662  *
     3       C          0.89639016  *   0.66088355  *  -0.22469004  *
     4       C         -0.49717782  *   0.12816231  *  -0.49620204  *
     5       C         -0.55919167  *  -1.36026687  *  -0.66659875  *
     6       O         -1.56820311  *  -1.89847839  *  -1.05345409  *
     7       C         -1.48301354  *   0.98339320  *  -1.27685230  *
     8       N         -1.58553904  *   0.88114231  *   0.18437487  *
     9       C         -2.71774748  *   0.15526848  *   0.75414208  *
    10       H          2.78917544  *   0.94272175  *   1.59657562  *
    11       H          3.49369712  *   0.16787186  *   0.12570539  *
    12       H          3.14394497  *  -0.81868778  *   1.59379244  *
    13       H          1.46194919  *   0.80390037  *  -1.16394050  *
    14       H          0.86394520  *   1.61274328  *   0.34127622  *
    15       H          0.34267810  *  -1.94279800  *  -0.43754175  *
    16       H         -2.21155302  *   0.49839828  *  -1.93200603  *
    17       H         -1.18155936  *   1.96105130  *  -1.65832756  *
    18       H         -3.08638663  *  -0.70848633  *   0.17503293  *
    19       H         -2.43508478  *  -0.19994771  *   1.76118723  *
    20       H         -3.55341333  *   0.86935375  *   0.86842013  *

                             CARTESIAN COORDINATES

   1    C        2.826348114     0.036738821     0.983162370
   2    O        1.532426392    -0.343419510     0.558036617
   3    C        0.896390161     0.660883554    -0.224690040
   4    C       -0.497177821     0.128162311    -0.496202041
   5    C       -0.559191672    -1.360266873    -0.666598754
   6    O       -1.568203114    -1.898478386    -1.053454086
   7    C       -1.483013543     0.983393197    -1.276852296
   8    N       -1.585539036     0.881142315     0.184374875
   9    C       -2.717747481     0.155268482     0.754142084
  10    H        2.789175443     0.942721747     1.596575623
  11    H        3.493697124     0.167871855     0.125705390
  12    H        3.143944974    -0.818687784     1.593792444
  13    H        1.461949193     0.803900371    -1.163940499
  14    H        0.863945201     1.612743283     0.341276217
  15    H        0.342678102    -1.942797995    -0.437541751
  16    H       -2.211553015     0.498398279    -1.932006034
  17    H       -1.181559363     1.961051299    -1.658327564
  18    H       -3.086386627    -0.708486329     0.175032926
  19    H       -2.435084783    -0.199947705     1.761187227
  20    H       -3.553413333     0.869353754     0.868420133


           Empirical Formula: C6 H11 N O2  =    20 atoms



      MOLECULAR POINT GROUP   :   C1  


                  EIGENVALUES  
 -36.48718 -30.96166 -29.96438 -27.10693 -25.05246 -23.71298 -23.02791 -21.95848
 -19.16601 -17.51473 -16.76845 -16.59206 -16.03994 -15.29477 -15.04563 -14.55804
 -14.27880 -13.82731 -13.35714 -13.08479 -12.51493 -12.15050 -11.74881 -10.51996
 -10.26957  -9.71703   0.36026   1.80654   2.47661   2.52843   3.20872   3.37205
   3.93670   4.46634   4.67286   4.93306   5.30511   5.33616   5.39170   5.45049
   5.47972   5.58236   5.70725   5.76259   5.78999   6.07963   6.47511


              NET ATOMIC CHARGES AND DIPOLE CONTRIBUTIONS

  ATOM NO.   TYPE          CHARGE      No. of ELECS.   s-Pop       p-Pop       
    1          C          -0.190721        4.1907     1.08176     3.10896
    2          O          -0.394799        6.3948     1.88043     4.51437
    3          C          -0.036664        4.0367     1.08770     2.94897
    4          C          -0.091830        4.0918     1.07354     3.01829
    5          C           0.353250        3.6468     1.14792     2.49883
    6          O          -0.450424        6.4504     1.87759     4.57284
    7          C          -0.201298        4.2013     1.07605     3.12525
    8          N          -0.312162        5.3122     1.74331     3.56886
    9          C          -0.297658        4.2977     1.06302     3.23464
   10          H           0.124936        0.8751     0.87506
   11          H           0.121002        0.8790     0.87900
   12          H           0.147982        0.8520     0.85202
   13          H           0.124105        0.8759     0.87590
   14          H           0.147865        0.8521     0.85214
   15          H           0.145347        0.8547     0.85465
   16          H           0.169360        0.8306     0.83064
   17          H           0.166995        0.8330     0.83300
   18          H           0.156800        0.8432     0.84320
   19          H           0.159088        0.8409     0.84091
   20          H           0.158827        0.8412     0.84117
 DIPOLE           X         Y         Z       TOTAL
 POINT-CHG.     2.728     2.055    -0.027     3.415
 HYBRID        -0.633    -0.633    -0.246     0.928
 SUM            2.095     1.422    -0.273     2.547


          ATOMIC ORBITAL ELECTRON POPULATIONS

     Atom    s        px        py        pz   
    1  C   1.08176   0.86745   1.13907   1.10244
    2  O   1.88043   1.34439   1.42779   1.74219
    3  C   1.08770   0.93574   0.98045   1.03278
    4  C   1.07354   0.93891   0.99358   1.08579
    5  C   1.14792   0.90556   0.91462   0.67865
    6  O   1.87759   1.42867   1.77717   1.36699
    7  C   1.07605   1.07861   1.10741   0.93923
    8  N   1.74331   1.12907   1.31777   1.12201
    9  C   1.06302   0.99697   1.11206   1.12561
   10  H   0.87506
   11  H   0.87900
   12  H   0.85202
   13  H   0.87590
   14  H   0.85214
   15  H   0.85465
   16  H   0.83064
   17  H   0.83300
   18  H   0.84320
   19  H   0.84091
   20  H   0.84117

 **********************
 *                    *
 * JOB ENDED NORMALLY *
 *                    *
 **********************



 TOTAL JOB TIME:             0.77 SECONDS

 == MOPAC DONE ==
