 *******************************************************************************
 **                                                                           **
 **                              MOPAC v23.2                                  **
 **                                                                           **
 *******************************************************************************
 **          Digital Object Identifier (DOI): 10.5281/zenodo.6511958          **
 **    Visit the DOI location for information on how to cite this program.    **
 *******************************************************************************

                              PM7 CALCULATION RESULTS

 *******************************************************************************
 *  CALCULATION DONE: (MAX THREADS = 40)             Fri Sep 19 21:38:14 2025  *
 *  PM7        - The PM7 Hamiltonian to be used
 *  1SCF       - DO 1 SCF AND THEN STOP 
 *  T=         - A TIME OF 172800.0 SECONDS REQUESTED
 *  DUMP=N     - RESTART FILE WRITTEN EVERY 7200.0 SECONDS REQUESTED
 *  RELSCF     - DEFAULT SCF CRITERION MULTIPLIED BY 0.0001
 *              (DEFAULT SCF CRITERION = 0.00010)
 *  GRADIENTS  - ALL GRADIENTS TO BE PRINTED
 *  DISP       - PRINT DISPERSION AND HYDROGEN BOND ENERGIES
 *******************************************************************************
PM7 1SCF GRADIENTS DISP RELSCF=0.0001
 Title: ASE calculation

   ATOM   CHEMICAL          X               Y               Z
  NUMBER   SYMBOL      (ANGSTROMS)     (ANGSTROMS)     (ANGSTROMS)

     1       C         -1.87077992  *  -0.06897973  *  -0.47292598  *
     2       C         -0.49938310  *  -0.17173322  *  -1.07226194  *
     3       C          0.59097947  *   0.84940183  *  -0.80577723  *
     4       C          0.42517893  *   1.77223189  *   0.38430371  *
     5       O          0.38546426  *   0.95080843  *   1.56810425  *
     6       C          0.56567068  *  -0.38014122  *   1.27128646  *
     7       O          0.61344768  *  -1.18953613  *   2.14998191  *
     8       C          0.71261174  *  -0.56424508  *  -0.22260513  *
     9       N          1.62667620  *  -1.53964744  *  -0.73205981  *
    10       H         -2.51899786  *   0.58496345  *  -1.07318258  *
    11       H         -1.87224146  *   0.33019205  *   0.55157762  *
    12       H         -2.35554314  *  -1.05608036  *  -0.42942626  *
    13       H         -0.51925080  *  -0.60344660  *  -2.08884393  *
    14       H          1.21087157  *   1.20553675  *  -1.62375919  *
    15       H          1.28042275  *   2.45344131  *   0.53191156  *
    16       H         -0.52055800  *   2.33975373  *   0.38706618  *
    17       H          1.33029462  *  -2.48385549  *  -0.51927133  *
    18       H          2.57229417  *  -1.39725294  *  -0.40568646  *



          CARTESIAN COORDINATES 

    NO.       ATOM           X           Y           Z

     1         C         -1.8708     -0.0690     -0.4729
     2         C         -0.4994     -0.1717     -1.0723
     3         C          0.5910      0.8494     -0.8058
     4         C          0.4252      1.7722      0.3843
     5         O          0.3855      0.9508      1.5681
     6         C          0.5657     -0.3801      1.2713
     7         O          0.6134     -1.1895      2.1500
     8         C          0.7126     -0.5642     -0.2226
     9         N          1.6267     -1.5396     -0.7321
    10         H         -2.5190      0.5850     -1.0732
    11         H         -1.8722      0.3302      0.5516
    12         H         -2.3555     -1.0561     -0.4294
    13         H         -0.5193     -0.6034     -2.0888
    14         H          1.2109      1.2055     -1.6238
    15         H          1.2804      2.4534      0.5319
    16         H         -0.5206      2.3398      0.3871
    17         H          1.3303     -2.4839     -0.5193
    18         H          2.5723     -1.3973     -0.4057

 General Reference for PM7:
 "Optimization of Parameters for Semiempirical Methods VI: More Modifications to the 
 NDDO Approximations and Re-optimization of Parameters", J. J. P. Stewart, J. Mol. Mod., 1:32, 19 (2013)
 https://link.springer.com/article/10.1007/s00894-012-1667-x

           Empirical Formula: C6 H9 N O2  =    18 atoms



      MOLECULAR POINT GROUP   :   C1  


      RHF CALCULATION, NO. OF DOUBLY OCCUPIED LEVELS = 25

  SCF CRITERION =    0.1000E-07

 -------------------------------------------------------------------------------
 PM7 1SCF GRADIENTS DISP RELSCF=0.0001
 Title: ASE calculation



     1SCF WAS SPECIFIED, SO BFGS WAS NOT USED                 
     SCF FIELD WAS ACHIEVED                                   


                              PM7 CALCULATION
                                                       MOPAC v23.2 Linux
                                                       Fri Sep 19 21:38:14 2025




          FINAL HEAT OF FORMATION =        -54.31043 KCAL/MOL =    -227.23482 KJ/MOL

          TOTAL ENERGY            =     -37691.49567 KCAL/MOL = ELECTRONIC ENERGY + CORE-CORE REPULSION
          ENERGY OF ATOMS         =      37638.97832 KCAL/MOL
                              SUM =        -52.51735 KCAL/MOL
          DISPERSION ENERGY       =         -1.79308 KCAL/MOL
                              SUM =        -54.31043 KCAL/MOL = FINAL HEAT OF FORMATION



          TOTAL ENERGY            =      -1634.45795 EV
          ELECTRONIC ENERGY       =      -7789.75550 EV 
          CORE-CORE REPULSION     =       6155.29756 EV
          COSMO AREA              =        154.44 SQUARE ANGSTROMS
          COSMO VOLUME            =        152.56 CUBIC ANGSTROMS

          GRADIENT NORM           =          1.07248          =       0.25279 PER ATOM
          IONIZATION POTENTIAL    =          9.844613 EV
          HOMO LUMO ENERGIES (EV) =         -9.845  0.599
          NO. OF FILLED LEVELS    =         25
          MOLECULAR WEIGHT        =        127.1426         POINT GROUP:  C1  

          MOLECULAR DIMENSIONS (Angstroms)

            Atom       Atom       Distance
            H    18    H    10     5.50418
            H    15    H    17     4.75453
            H    14    O     7     4.22625


          SCF CALCULATIONS        =          1

          WALL-CLOCK TIME         =      0.492 SECONDS
          COMPUTATION TIME        =      0.303 SECONDS

          LARGEST ATOMIC GRADIENTS

          Atom     Label                     Cartesian Gradients           Cartesian Coordinates       |Gradient|
                                           X          Y          Z        X          Y          Z

            18       H                   0.256      0.277     -0.249    2.57229   -1.39725   -0.40569      0.452
             6       C                   0.111      0.311      0.210    0.56567   -0.38014    1.27129      0.391
             5       O                  -0.119      0.219      0.285    0.38546    0.95081    1.56810      0.379
            13       H                  -0.145     -0.183     -0.241   -0.51925   -0.60345   -2.08884      0.336
            14       H                   0.220     -0.130     -0.097    1.21087    1.20554   -1.62376      0.274
            10       H                  -0.245     -0.050      0.079   -2.51900    0.58496   -1.07318      0.262
            12       H                   0.033     -0.091     -0.205   -2.35554   -1.05608   -0.42943      0.226
             7       O                  -0.039     -0.203      0.090    0.61345   -1.18954    2.14998      0.225
            15       H                  -0.091     -0.133      0.154    1.28042    2.45344    0.53191      0.222
            17       H                  -0.096     -0.103      0.162    1.33029   -2.48386   -0.51927      0.215



       FINAL  POINT  AND  DERIVATIVES

   PARAMETER     ATOM    TYPE            VALUE        GRADIENT
      1          1  C    CARTESIAN X    -1.870780     -0.057360  KCAL/ANGSTROM
      2          1  C    CARTESIAN Y    -0.068980      0.054724  KCAL/ANGSTROM
      3          1  C    CARTESIAN Z    -0.472926      0.019333  KCAL/ANGSTROM
      4          2  C    CARTESIAN X    -0.499383     -0.035411  KCAL/ANGSTROM
      5          2  C    CARTESIAN Y    -0.171733      0.107549  KCAL/ANGSTROM
      6          2  C    CARTESIAN Z    -1.072262     -0.152903  KCAL/ANGSTROM
      7          3  C    CARTESIAN X     0.590979      0.065943  KCAL/ANGSTROM
      8          3  C    CARTESIAN Y     0.849402     -0.133835  KCAL/ANGSTROM
      9          3  C    CARTESIAN Z    -0.805777     -0.042779  KCAL/ANGSTROM
     10          4  C    CARTESIAN X     0.425179     -0.041969  KCAL/ANGSTROM
     11          4  C    CARTESIAN Y     1.772232     -0.083719  KCAL/ANGSTROM
     12          4  C    CARTESIAN Z     0.384304     -0.038561  KCAL/ANGSTROM
     13          5  O    CARTESIAN X     0.385464     -0.118559  KCAL/ANGSTROM
     14          5  O    CARTESIAN Y     0.950808      0.219188  KCAL/ANGSTROM
     15          5  O    CARTESIAN Z     1.568104      0.285493  KCAL/ANGSTROM
     16          6  C    CARTESIAN X     0.565671      0.110582  KCAL/ANGSTROM
     17          6  C    CARTESIAN Y    -0.380141      0.310694  KCAL/ANGSTROM
     18          6  C    CARTESIAN Z     1.271286      0.210430  KCAL/ANGSTROM
     19          7  O    CARTESIAN X     0.613448     -0.038796  KCAL/ANGSTROM
     20          7  O    CARTESIAN Y    -1.189536     -0.202541  KCAL/ANGSTROM
     21          7  O    CARTESIAN Z     2.149982      0.090309  KCAL/ANGSTROM
     22          8  C    CARTESIAN X     0.712612     -0.001058  KCAL/ANGSTROM
     23          8  C    CARTESIAN Y    -0.564245     -0.086377  KCAL/ANGSTROM
     24          8  C    CARTESIAN Z    -0.222605      0.103679  KCAL/ANGSTROM
     25          9  N    CARTESIAN X     1.626676      0.038084  KCAL/ANGSTROM
     26          9  N    CARTESIAN Y    -1.539647     -0.081240  KCAL/ANGSTROM
     27          9  N    CARTESIAN Z    -0.732060     -0.161874  KCAL/ANGSTROM
     28         10  H    CARTESIAN X    -2.518998     -0.245260  KCAL/ANGSTROM
     29         10  H    CARTESIAN Y     0.584963     -0.049756  KCAL/ANGSTROM
     30         10  H    CARTESIAN Z    -1.073183      0.079158  KCAL/ANGSTROM
     31         11  H    CARTESIAN X    -1.872241      0.035155  KCAL/ANGSTROM
     32         11  H    CARTESIAN Y     0.330192      0.171337  KCAL/ANGSTROM
     33         11  H    CARTESIAN Z     0.551578      0.052952  KCAL/ANGSTROM
     34         12  H    CARTESIAN X    -2.355543      0.033302  KCAL/ANGSTROM
     35         12  H    CARTESIAN Y    -1.056080     -0.091153  KCAL/ANGSTROM
     36         12  H    CARTESIAN Z    -0.429426     -0.204622  KCAL/ANGSTROM
     37         13  H    CARTESIAN X    -0.519251     -0.144836  KCAL/ANGSTROM
     38         13  H    CARTESIAN Y    -0.603447     -0.183295  KCAL/ANGSTROM
     39         13  H    CARTESIAN Z    -2.088844     -0.241169  KCAL/ANGSTROM
     40         14  H    CARTESIAN X     1.210872      0.220311  KCAL/ANGSTROM
     41         14  H    CARTESIAN Y     1.205537     -0.130418  KCAL/ANGSTROM
     42         14  H    CARTESIAN Z    -1.623759     -0.096790  KCAL/ANGSTROM
     43         15  H    CARTESIAN X     1.280423     -0.091221  KCAL/ANGSTROM
     44         15  H    CARTESIAN Y     2.453441     -0.132616  KCAL/ANGSTROM
     45         15  H    CARTESIAN Z     0.531912      0.153558  KCAL/ANGSTROM
     46         16  H    CARTESIAN X    -0.520558      0.111548  KCAL/ANGSTROM
     47         16  H    CARTESIAN Y     2.339754      0.136959  KCAL/ANGSTROM
     48         16  H    CARTESIAN Z     0.387066      0.030846  KCAL/ANGSTROM
     49         17  H    CARTESIAN X     1.330295     -0.096362  KCAL/ANGSTROM
     50         17  H    CARTESIAN Y    -2.483855     -0.102669  KCAL/ANGSTROM
     51         17  H    CARTESIAN Z    -0.519271      0.161912  KCAL/ANGSTROM
     52         18  H    CARTESIAN X     2.572294      0.255909  KCAL/ANGSTROM
     53         18  H    CARTESIAN Y    -1.397253      0.277165  KCAL/ANGSTROM
     54         18  H    CARTESIAN Z    -0.405686     -0.248978  KCAL/ANGSTROM




   ATOM   CHEMICAL          X               Y               Z
  NUMBER   SYMBOL      (ANGSTROMS)     (ANGSTROMS)     (ANGSTROMS)

     1       C         -1.87077992  *  -0.06897973  *  -0.47292598  *
     2       C         -0.49938310  *  -0.17173322  *  -1.07226194  *
     3       C          0.59097947  *   0.84940183  *  -0.80577723  *
     4       C          0.42517893  *   1.77223189  *   0.38430371  *
     5       O          0.38546426  *   0.95080843  *   1.56810425  *
     6       C          0.56567068  *  -0.38014122  *   1.27128646  *
     7       O          0.61344768  *  -1.18953613  *   2.14998191  *
     8       C          0.71261174  *  -0.56424508  *  -0.22260513  *
     9       N          1.62667620  *  -1.53964744  *  -0.73205981  *
    10       H         -2.51899786  *   0.58496345  *  -1.07318258  *
    11       H         -1.87224146  *   0.33019205  *   0.55157762  *
    12       H         -2.35554314  *  -1.05608036  *  -0.42942626  *
    13       H         -0.51925080  *  -0.60344660  *  -2.08884393  *
    14       H          1.21087157  *   1.20553675  *  -1.62375919  *
    15       H          1.28042275  *   2.45344131  *   0.53191156  *
    16       H         -0.52055800  *   2.33975373  *   0.38706618  *
    17       H          1.33029462  *  -2.48385549  *  -0.51927133  *
    18       H          2.57229417  *  -1.39725294  *  -0.40568646  *

                             CARTESIAN COORDINATES

   1    C       -1.870779923    -0.068979734    -0.472925976
   2    C       -0.499383097    -0.171733222    -1.072261940
   3    C        0.590979471     0.849401833    -0.805777225
   4    C        0.425178935     1.772231888     0.384303706
   5    O        0.385464262     0.950808433     1.568104248
   6    C        0.565670676    -0.380141223     1.271286460
   7    O        0.613447679    -1.189536126     2.149981913
   8    C        0.712611741    -0.564245084    -0.222605127
   9    N        1.626676203    -1.539647438    -0.732059812
  10    H       -2.518997860     0.584963453    -1.073182579
  11    H       -1.872241461     0.330192055     0.551577618
  12    H       -2.355543140    -1.056080355    -0.429426260
  13    H       -0.519250803    -0.603446602    -2.088843930
  14    H        1.210871575     1.205536749    -1.623759194
  15    H        1.280422752     2.453441314     0.531911557
  16    H       -0.520557999     2.339753735     0.387066179
  17    H        1.330294617    -2.483855495    -0.519271330
  18    H        2.572294174    -1.397252938    -0.405686459


           Empirical Formula: C6 H9 N O2  =    18 atoms



      MOLECULAR POINT GROUP   :   C1  


                  EIGENVALUES  
 -36.27865 -32.40361 -31.23787 -29.27869 -25.83324 -24.90776 -22.69443 -20.50914
 -18.83428 -18.01627 -17.21195 -16.60104 -16.21345 -15.41094 -15.09519 -14.70276
 -14.20136 -14.06822 -13.64733 -12.68555 -11.93667 -11.49938 -11.31183 -11.09855
  -9.84461   0.59928   1.38067   1.64384   2.44747   2.74468   3.08069   3.33271
   3.67247   4.00036   4.23398   4.93703   5.03788   5.23039   5.31986   5.38178
   5.47385   5.64681   5.79914   6.51113   6.57172


              NET ATOMIC CHARGES AND DIPOLE CONTRIBUTIONS

  ATOM NO.   TYPE          CHARGE      No. of ELECS.   s-Pop       p-Pop       
    1          C          -0.450563        4.4506     1.04919     3.40137
    2          C          -0.090682        4.0907     1.05922     3.03146
    3          C          -0.229395        4.2294     1.07201     3.15739
    4          C          -0.030766        4.0308     1.09387     2.93690
    5          O          -0.394257        6.3943     1.87760     4.51666
    6          C           0.552513        3.4475     1.13454     2.31295
    7          O          -0.427545        6.4275     1.87551     4.55204
    8          C          -0.014703        4.0147     1.05291     2.96179
    9          N          -0.597447        5.5974     1.61895     3.97849
   10          H           0.158187        0.8418     0.84181
   11          H           0.165006        0.8350     0.83499
   12          H           0.162523        0.8375     0.83748
   13          H           0.174754        0.8252     0.82525
   14          H           0.181053        0.8189     0.81895
   15          H           0.148292        0.8517     0.85171
   16          H           0.152120        0.8479     0.84788
   17          H           0.274630        0.7254     0.72537
   18          H           0.266281        0.7337     0.73372
 DIPOLE           X         Y         Z       TOTAL
 POINT-CHG.    -0.698     1.935    -3.994     4.492
 HYBRID         0.354    -0.474     1.308     1.436
 SUM           -0.343     1.461    -2.686     3.077


          ATOMIC ORBITAL ELECTRON POPULATIONS

     Atom    s        px        py        pz   
    1  C   1.04919   1.04456   1.18874   1.16808
    2  C   1.05922   0.91497   1.03547   1.08102
    3  C   1.07201   1.12184   0.95055   1.08500
    4  C   1.09387   1.15029   0.95766   0.82894
    5  O   1.87760   1.84433   1.29349   1.37884
    6  C   1.13454   0.68258   0.76303   0.86733
    7  O   1.87551   1.48749   1.53071   1.53383
    8  C   1.05291   1.04658   0.97271   0.94250
    9  N   1.61895   1.15026   1.15736   1.67087
   10  H   0.84181
   11  H   0.83499
   12  H   0.83748
   13  H   0.82525
   14  H   0.81895
   15  H   0.85171
   16  H   0.84788
   17  H   0.72537
   18  H   0.73372

 **********************
 *                    *
 * JOB ENDED NORMALLY *
 *                    *
 **********************



 TOTAL JOB TIME:             0.94 SECONDS

 == MOPAC DONE ==
