 *******************************************************************************
 **                                                                           **
 **                              MOPAC v23.2                                  **
 **                                                                           **
 *******************************************************************************
 **          Digital Object Identifier (DOI): 10.5281/zenodo.6511958          **
 **    Visit the DOI location for information on how to cite this program.    **
 *******************************************************************************

                              PM7 CALCULATION RESULTS

 *******************************************************************************
 *  CALCULATION DONE: (MAX THREADS = 40)             Fri Sep 19 21:29:37 2025  *
 *  PM7        - The PM7 Hamiltonian to be used
 *
 *
 *
 *                 CHARGE ON SYSTEM = +1
 *
 *
 *
 *  1SCF       - DO 1 SCF AND THEN STOP 
 *  T=         - A TIME OF 172800.0 SECONDS REQUESTED
 *  DUMP=N     - RESTART FILE WRITTEN EVERY 7200.0 SECONDS REQUESTED
 *  RELSCF     - DEFAULT SCF CRITERION MULTIPLIED BY 0.0001
 *              (DEFAULT SCF CRITERION = 0.00010)
 *  GRADIENTS  - ALL GRADIENTS TO BE PRINTED
 *  DISP       - PRINT DISPERSION AND HYDROGEN BOND ENERGIES
 *******************************************************************************
PM7 1SCF GRADIENTS DISP RELSCF=0.0001 CHARGE=1
 Title: ASE calculation

   ATOM   CHEMICAL          X               Y               Z
  NUMBER   SYMBOL      (ANGSTROMS)     (ANGSTROMS)     (ANGSTROMS)

     1       C         -2.21813269  *  -1.34748948  *  -1.11681521  *
     2       N         -1.49733196  *  -0.35890226  *  -0.41693908  *
     3       C         -1.82214671  *   0.41454435  *   0.78318069  *
     4       C         -0.42667210  *   1.10423244  *   0.67529501  *
     5       C         -0.16722858  *   0.25562410  *  -0.61704157  *
     6       C          1.02677769  *  -0.74132809  *  -0.63454338  *
     7       N          2.18444558  *   0.04163359  *  -1.06707115  *
     8       C          1.18360345  *  -1.38580585  *   0.66726813  *
     9       N          1.32579225  *  -1.90147411  *   1.69012957  *
    10       H         -2.69631726  *  -0.92360670  *  -2.04313136  *
    11       H         -3.04421386  *  -1.79072216  *  -0.51037330  *
    12       H         -1.56750594  *  -2.18179007  *  -1.47418979  *
    13       H         -1.98818512  *  -0.20757110  *   1.69153231  *
    14       H         -2.70910247  *   1.07588302  *   0.67238269  *
    15       H          0.25360934  *   0.91464256  *   1.51741763  *
    16       H         -0.45107728  *   2.19221541  *   0.51546357  *
    17       H         -0.12598279  *   0.87472573  *  -1.55757561  *
    18       H          0.82248134  *  -1.53761972  *  -1.41948805  *
    19       H          2.60309506  *   0.59356902  *  -0.33090219  *
    20       H          2.89542224  *  -0.51591222  *  -1.52664280  *



          CARTESIAN COORDINATES 

    NO.       ATOM           X           Y           Z

     1         C         -2.2181     -1.3475     -1.1168
     2         N         -1.4973     -0.3589     -0.4169
     3         C         -1.8221      0.4145      0.7832
     4         C         -0.4267      1.1042      0.6753
     5         C         -0.1672      0.2556     -0.6170
     6         C          1.0268     -0.7413     -0.6345
     7         N          2.1844      0.0416     -1.0671
     8         C          1.1836     -1.3858      0.6673
     9         N          1.3258     -1.9015      1.6901
    10         H         -2.6963     -0.9236     -2.0431
    11         H         -3.0442     -1.7907     -0.5104
    12         H         -1.5675     -2.1818     -1.4742
    13         H         -1.9882     -0.2076      1.6915
    14         H         -2.7091      1.0759      0.6724
    15         H          0.2536      0.9146      1.5174
    16         H         -0.4511      2.1922      0.5155
    17         H         -0.1260      0.8747     -1.5576
    18         H          0.8225     -1.5376     -1.4195
    19         H          2.6031      0.5936     -0.3309
    20         H          2.8954     -0.5159     -1.5266

 General Reference for PM7:
 "Optimization of Parameters for Semiempirical Methods VI: More Modifications to the 
 NDDO Approximations and Re-optimization of Parameters", J. J. P. Stewart, J. Mol. Mod., 1:32, 19 (2013)
 https://link.springer.com/article/10.1007/s00894-012-1667-x

           Empirical Formula: C6 H11 N3  =    20 atoms



      MOLECULAR POINT GROUP   :   C1  


          UHF CALCULATION, NO. OF ALPHA ELECTRONS =   25
                           NO. OF BETA  ELECTRONS =   24
  SCF CRITERION =    0.1000E-07

 -------------------------------------------------------------------------------
 PM7 1SCF GRADIENTS DISP RELSCF=0.0001 CHARGE=1
 Title: ASE calculation



     1SCF WAS SPECIFIED, SO BFGS WAS NOT USED                 
     SCF FIELD WAS ACHIEVED                                   


                              PM7 CALCULATION
                                                       MOPAC v23.2 Linux
                                                       Fri Sep 19 21:29:39 2025




          FINAL HEAT OF FORMATION =        229.85909 KCAL/MOL =     961.73045 KJ/MOL

          TOTAL ENERGY            =     -33089.57071 KCAL/MOL = ELECTRONIC ENERGY + CORE-CORE REPULSION
          ENERGY OF ATOMS         =      33321.83911 KCAL/MOL
                              SUM =        232.26840 KCAL/MOL
          DISPERSION ENERGY       =         -2.40931 KCAL/MOL
                              SUM =        229.85909 KCAL/MOL = FINAL HEAT OF FORMATION



          TOTAL ENERGY            =      -1434.89959 EV
          ELECTRONIC ENERGY       =      -7285.44898 EV 
          CORE-CORE REPULSION     =       5850.54938 EV
          COSMO AREA              =        170.52 SQUARE ANGSTROMS
          COSMO VOLUME            =        173.02 CUBIC ANGSTROMS

          GRADIENT NORM           =          1.28710          =       0.28780 PER ATOM
          IONIZATION POTENTIAL    =         14.135036 EV
          ALPHA SOMO LUMO (EV)    =        -14.135 -4.728
          BETA  SOMO LUMO (EV)    =        -14.140 -6.533
          NO. OF ALPHA ELECTRONS  =         25
          NO. OF BETA  ELECTRONS  =         24
          MOLECULAR WEIGHT        =        125.1730         POINT GROUP:  C1  

          MOLECULAR DIMENSIONS (Angstroms)

            Atom       Atom       Distance
            H    20    H    14     6.22738
            H    10    N     9     4.95588
            H    11    H    16     4.49107


          SCF CALCULATIONS        =          1

          WALL-CLOCK TIME         =      1.297 SECONDS
          COMPUTATION TIME        =      1.112 SECONDS

          LARGEST ATOMIC GRADIENTS

          Atom     Label                     Cartesian Gradients           Cartesian Coordinates       |Gradient|
                                           X          Y          Z        X          Y          Z

            20       H                   0.266     -0.255     -0.270    2.89542   -0.51591   -1.52664      0.457
            17       H                   0.063     -0.024      0.447   -0.12598    0.87473   -1.55758      0.452
             1       C                  -0.326      0.078     -0.296   -2.21813   -1.34749   -1.11682      0.447
            11       H                  -0.037      0.125      0.351   -3.04421   -1.79072   -0.51037      0.374
             3       C                  -0.241     -0.077     -0.243   -1.82215    0.41454    0.78318      0.351
             5       C                   0.177      0.240      0.178   -0.16723    0.25562   -0.61704      0.347
             4       C                   0.283      0.011     -0.183   -0.42667    1.10423    0.67530      0.337
             8       C                  -0.141      0.133     -0.245    1.18360   -1.38581    0.66727      0.313
            16       H                  -0.276      0.110      0.064   -0.45108    2.19222    0.51546      0.303
             9       N                   0.216     -0.036      0.161    1.32579   -1.90147    1.69013      0.272



       FINAL  POINT  AND  DERIVATIVES

   PARAMETER     ATOM    TYPE            VALUE        GRADIENT
      1          1  C    CARTESIAN X    -2.218133     -0.325743  KCAL/ANGSTROM
      2          1  C    CARTESIAN Y    -1.347489      0.077629  KCAL/ANGSTROM
      3          1  C    CARTESIAN Z    -1.116815     -0.296309  KCAL/ANGSTROM
      4          2  N    CARTESIAN X    -1.497332      0.061693  KCAL/ANGSTROM
      5          2  N    CARTESIAN Y    -0.358902     -0.219819  KCAL/ANGSTROM
      6          2  N    CARTESIAN Z    -0.416939      0.022214  KCAL/ANGSTROM
      7          3  C    CARTESIAN X    -1.822147     -0.241071  KCAL/ANGSTROM
      8          3  C    CARTESIAN Y     0.414544     -0.076913  KCAL/ANGSTROM
      9          3  C    CARTESIAN Z     0.783181     -0.242623  KCAL/ANGSTROM
     10          4  C    CARTESIAN X    -0.426672      0.282629  KCAL/ANGSTROM
     11          4  C    CARTESIAN Y     1.104232      0.010599  KCAL/ANGSTROM
     12          4  C    CARTESIAN Z     0.675295     -0.182835  KCAL/ANGSTROM
     13          5  C    CARTESIAN X    -0.167229      0.176773  KCAL/ANGSTROM
     14          5  C    CARTESIAN Y     0.255624      0.240035  KCAL/ANGSTROM
     15          5  C    CARTESIAN Z    -0.617042      0.177554  KCAL/ANGSTROM
     16          6  C    CARTESIAN X     1.026778      0.079537  KCAL/ANGSTROM
     17          6  C    CARTESIAN Y    -0.741328      0.006524  KCAL/ANGSTROM
     18          6  C    CARTESIAN Z    -0.634543     -0.080823  KCAL/ANGSTROM
     19          7  N    CARTESIAN X     2.184446     -0.071427  KCAL/ANGSTROM
     20          7  N    CARTESIAN Y     0.041634     -0.124005  KCAL/ANGSTROM
     21          7  N    CARTESIAN Z    -1.067071     -0.080840  KCAL/ANGSTROM
     22          8  C    CARTESIAN X     1.183603     -0.141045  KCAL/ANGSTROM
     23          8  C    CARTESIAN Y    -1.385806      0.132896  KCAL/ANGSTROM
     24          8  C    CARTESIAN Z     0.667268     -0.245361  KCAL/ANGSTROM
     25          9  N    CARTESIAN X     1.325792      0.215834  KCAL/ANGSTROM
     26          9  N    CARTESIAN Y    -1.901474     -0.036219  KCAL/ANGSTROM
     27          9  N    CARTESIAN Z     1.690130      0.160693  KCAL/ANGSTROM
     28         10  H    CARTESIAN X    -2.696317      0.015678  KCAL/ANGSTROM
     29         10  H    CARTESIAN Y    -0.923607     -0.094559  KCAL/ANGSTROM
     30         10  H    CARTESIAN Z    -2.043131     -0.062166  KCAL/ANGSTROM
     31         11  H    CARTESIAN X    -3.044214     -0.036838  KCAL/ANGSTROM
     32         11  H    CARTESIAN Y    -1.790722      0.124905  KCAL/ANGSTROM
     33         11  H    CARTESIAN Z    -0.510373      0.350614  KCAL/ANGSTROM
     34         12  H    CARTESIAN X    -1.567506      0.181843  KCAL/ANGSTROM
     35         12  H    CARTESIAN Y    -2.181790      0.173296  KCAL/ANGSTROM
     36         12  H    CARTESIAN Z    -1.474190      0.075338  KCAL/ANGSTROM
     37         13  H    CARTESIAN X    -1.988185     -0.090709  KCAL/ANGSTROM
     38         13  H    CARTESIAN Y    -0.207571      0.027443  KCAL/ANGSTROM
     39         13  H    CARTESIAN Z     1.691532     -0.126914  KCAL/ANGSTROM
     40         14  H    CARTESIAN X    -2.709102     -0.077755  KCAL/ANGSTROM
     41         14  H    CARTESIAN Y     1.075883     -0.055748  KCAL/ANGSTROM
     42         14  H    CARTESIAN Z     0.672383      0.018150  KCAL/ANGSTROM
     43         15  H    CARTESIAN X     0.253609     -0.113959  KCAL/ANGSTROM
     44         15  H    CARTESIAN Y     0.914643     -0.031924  KCAL/ANGSTROM
     45         15  H    CARTESIAN Z     1.517418      0.185429  KCAL/ANGSTROM
     46         16  H    CARTESIAN X    -0.451077     -0.275547  KCAL/ANGSTROM
     47         16  H    CARTESIAN Y     2.192215      0.109544  KCAL/ANGSTROM
     48         16  H    CARTESIAN Z     0.515464      0.063563  KCAL/ANGSTROM
     49         17  H    CARTESIAN X    -0.125983      0.062544  KCAL/ANGSTROM
     50         17  H    CARTESIAN Y     0.874726     -0.023896  KCAL/ANGSTROM
     51         17  H    CARTESIAN Z    -1.557576      0.446616  KCAL/ANGSTROM
     52         18  H    CARTESIAN X     0.822481      0.013523  KCAL/ANGSTROM
     53         18  H    CARTESIAN Y    -1.537620     -0.095402  KCAL/ANGSTROM
     54         18  H    CARTESIAN Z    -1.419488      0.068064  KCAL/ANGSTROM
     55         19  H    CARTESIAN X     2.603095      0.017844  KCAL/ANGSTROM
     56         19  H    CARTESIAN Y     0.593569      0.110561  KCAL/ANGSTROM
     57         19  H    CARTESIAN Z    -0.330902      0.019258  KCAL/ANGSTROM
     58         20  H    CARTESIAN X     2.895422      0.266199  KCAL/ANGSTROM
     59         20  H    CARTESIAN Y    -0.515912     -0.254949  KCAL/ANGSTROM
     60         20  H    CARTESIAN Z    -1.526643     -0.269626  KCAL/ANGSTROM




   ATOM   CHEMICAL          X               Y               Z
  NUMBER   SYMBOL      (ANGSTROMS)     (ANGSTROMS)     (ANGSTROMS)

     1       C         -2.21813269  *  -1.34748948  *  -1.11681521  *
     2       N         -1.49733196  *  -0.35890226  *  -0.41693908  *
     3       C         -1.82214671  *   0.41454435  *   0.78318069  *
     4       C         -0.42667210  *   1.10423244  *   0.67529501  *
     5       C         -0.16722858  *   0.25562410  *  -0.61704157  *
     6       C          1.02677769  *  -0.74132809  *  -0.63454338  *
     7       N          2.18444558  *   0.04163359  *  -1.06707115  *
     8       C          1.18360345  *  -1.38580585  *   0.66726813  *
     9       N          1.32579225  *  -1.90147411  *   1.69012957  *
    10       H         -2.69631726  *  -0.92360670  *  -2.04313136  *
    11       H         -3.04421386  *  -1.79072216  *  -0.51037330  *
    12       H         -1.56750594  *  -2.18179007  *  -1.47418979  *
    13       H         -1.98818512  *  -0.20757110  *   1.69153231  *
    14       H         -2.70910247  *   1.07588302  *   0.67238269  *
    15       H          0.25360934  *   0.91464256  *   1.51741763  *
    16       H         -0.45107728  *   2.19221541  *   0.51546357  *
    17       H         -0.12598279  *   0.87472573  *  -1.55757561  *
    18       H          0.82248134  *  -1.53761972  *  -1.41948805  *
    19       H          2.60309506  *   0.59356902  *  -0.33090219  *
    20       H          2.89542224  *  -0.51591222  *  -1.52664280  *

                             CARTESIAN COORDINATES

   1    C       -2.218132694    -1.347489479    -1.116815213
   2    N       -1.497331957    -0.358902257    -0.416939075
   3    C       -1.822146713     0.414544351     0.783180691
   4    C       -0.426672104     1.104232438     0.675295006
   5    C       -0.167228576     0.255624102    -0.617041573
   6    C        1.026777687    -0.741328095    -0.634543381
   7    N        2.184445580     0.041633590    -1.067071155
   8    C        1.183603448    -1.385805846     0.667268126
   9    N        1.325792255    -1.901474113     1.690129570
  10    H       -2.696317262    -0.923606701    -2.043131358
  11    H       -3.044213855    -1.790722164    -0.510373297
  12    H       -1.567505945    -2.181790066    -1.474189792
  13    H       -1.988185121    -0.207571098     1.691532314
  14    H       -2.709102470     1.075883016     0.672382690
  15    H        0.253609341     0.914642561     1.517417632
  16    H       -0.451077283     2.192215408     0.515463568
  17    H       -0.125982785     0.874725729    -1.557575610
  18    H        0.822481341    -1.537619722    -1.419488052
  19    H        2.603095057     0.593569021    -0.330902195
  20    H        2.895422238    -0.515912219    -1.526642803


           Empirical Formula: C6 H11 N3  =    20 atoms



      MOLECULAR POINT GROUP   :   C1  


          ALPHA EIGENVALUES  
 -43.28638 -40.06578 -38.69103 -33.69547 -31.06666 -28.74623 -27.85245 -24.78961
 -23.44478 -23.06502 -22.72588 -22.17630 -20.47563 -20.06704 -19.58601 -18.91271
 -18.57085 -18.32068 -17.87085 -17.72386 -17.41505 -17.21691 -16.63106 -15.94459
 -14.13504  -4.72789  -3.07520  -2.88694  -2.46389  -2.20884  -2.01109  -1.69590
  -1.42618  -1.01185  -0.50968  -0.37577  -0.15174  -0.12268   0.20893   0.24847
   0.43494   0.69104   0.89271   1.50249   1.78873   1.93260   2.86476


           BETA EIGENVALUES 
 -41.74789 -40.04079 -38.68309 -33.41054 -30.96223 -28.38681 -27.72145 -24.60392
 -23.18816 -22.67238 -22.20246 -21.93859 -20.34761 -19.62077 -19.46786 -18.79305
 -18.47131 -18.19219 -17.84199 -17.42851 -17.37250 -17.00550 -16.59969 -14.14016
  -6.53316  -4.15346  -3.05974  -2.87355  -2.35714  -1.94776  -1.84511  -1.62216
  -1.39398  -0.99928  -0.25404  -0.16812  -0.04561   0.00053   0.23618   0.30537
   0.50555   0.76325   0.90725   1.50488   1.79070   1.93800   2.86643


              NET ATOMIC CHARGES AND DIPOLE CONTRIBUTIONS

  ATOM NO.   TYPE          CHARGE      No. of ELECS.   s-Pop       p-Pop       
    1          C          -0.324755        4.3248     1.06682     3.25793
    2          N          -0.023645        5.0236     1.56509     3.45855
    3          C          -0.138647        4.1386     1.10056     3.03808
    4          C          -0.291234        4.2912     1.08715     3.20409
    5          C          -0.004624        4.0046     1.12043     2.88420
    6          C           0.071639        3.9284     1.05471     2.87365
    7          N          -0.617050        5.6171     1.62642     3.99063
    8          C          -0.027021        4.0270     1.13107     2.89595
    9          N          -0.118403        5.1184     1.82748     3.29092
   10          H           0.232089        0.7679     0.76791
   11          H           0.215814        0.7842     0.78419
   12          H           0.213671        0.7863     0.78633
   13          H           0.213482        0.7865     0.78652
   14          H           0.210151        0.7898     0.78985
   15          H           0.194951        0.8050     0.80505
   16          H           0.196297        0.8037     0.80370
   17          H           0.226843        0.7732     0.77316
   18          H           0.189931        0.8101     0.81007
   19          H           0.284234        0.7158     0.71577
   20          H           0.296277        0.7037     0.70372
 DIPOLE           X         Y         Z       TOTAL
 POINT-CHG.    -5.761     1.531    -3.209     6.770
 HYBRID         0.283    -0.452     0.127     0.549
 SUM           -5.477     1.079    -3.081     6.377


          ATOMIC ORBITAL ELECTRON POPULATIONS

     Atom    s        px        py        pz   
    1  C   1.06682   1.11830   1.01862   1.12101
    2  N   1.56509   1.16371   1.14078   1.15406
    3  C   1.10056   1.09171   1.01828   0.92809
    4  C   1.08715   1.00980   1.13550   1.05879
    5  C   1.12043   0.80434   0.97311   1.10675
    6  C   1.05471   0.92372   0.97241   0.97752
    7  N   1.62642   1.21120   1.35414   1.42529
    8  C   1.13107   0.97937   0.96437   0.95221
    9  N   1.82748   1.03092   1.07593   1.18408
   10  H   0.76791
   11  H   0.78419
   12  H   0.78633
   13  H   0.78652
   14  H   0.78985
   15  H   0.80505
   16  H   0.80370
   17  H   0.77316
   18  H   0.81007
   19  H   0.71577
   20  H   0.70372


                    (SZ)    =    0.500000
                    (S**2)  =    0.761227


          ATOMIC ORBITAL SPIN POPULATIONS

    Atom   Total    s     px     py     pz   
         Atomic
    1  C -0.0400 -0.007 -0.012 -0.010 -0.012
    2  N  0.9430  0.044  0.177  0.420  0.302
    3  C -0.0582 -0.007 -0.005 -0.017 -0.029
    4  C  0.0075  0.001  0.003  0.001  0.003
    5  C -0.0706 -0.007 -0.039 -0.021 -0.003
    6  C  0.0369  0.006  0.016  0.014  0.001
    7  N -0.0005  0.000 -0.000 -0.000 -0.000
    8  C -0.0028 -0.000 -0.001 -0.001 -0.000
    9  N  0.0042  0.000  0.001  0.001  0.002
   10  H  0.0550  0.055
   11  H  0.0079  0.008
   12  H  0.0244  0.024
   13  H  0.0332  0.033
   14  H  0.0320  0.032
   15  H -0.0007 -0.001
   16  H -0.0012 -0.001
   17  H  0.0304  0.030
   18  H -0.0013 -0.001
   19  H -0.0001 -0.000
   20  H  0.0008  0.001

 **********************
 *                    *
 * JOB ENDED NORMALLY *
 *                    *
 **********************



 TOTAL JOB TIME:             1.73 SECONDS

 == MOPAC DONE ==
