 *******************************************************************************
 **                                                                           **
 **                              MOPAC v23.2                                  **
 **                                                                           **
 *******************************************************************************
 **          Digital Object Identifier (DOI): 10.5281/zenodo.6511958          **
 **    Visit the DOI location for information on how to cite this program.    **
 *******************************************************************************

                              PM7 CALCULATION RESULTS

 *******************************************************************************
 *  CALCULATION DONE: (MAX THREADS = 40)             Fri Sep 19 21:57:57 2025  *
 *  PM7        - The PM7 Hamiltonian to be used
 *  1SCF       - DO 1 SCF AND THEN STOP 
 *  T=         - A TIME OF 172800.0 SECONDS REQUESTED
 *  DUMP=N     - RESTART FILE WRITTEN EVERY 7200.0 SECONDS REQUESTED
 *  RELSCF     - DEFAULT SCF CRITERION MULTIPLIED BY 0.0001
 *              (DEFAULT SCF CRITERION = 0.00010)
 *  GRADIENTS  - ALL GRADIENTS TO BE PRINTED
 *  DISP       - PRINT DISPERSION AND HYDROGEN BOND ENERGIES
 *******************************************************************************
PM7 1SCF GRADIENTS DISP RELSCF=0.0001
 Title: ASE calculation

   ATOM   CHEMICAL          X               Y               Z
  NUMBER   SYMBOL      (ANGSTROMS)     (ANGSTROMS)     (ANGSTROMS)

     1       C         -1.26353196  *  -1.08410644  *  -0.42893009  *
     2       N         -0.55521296  *   0.16838962  *  -0.07792107  *
     3       C         -0.91750779  *   1.23451001  *  -1.03998800  *
     4       C          0.91260976  *  -0.04960515  *  -0.07305730  *
     5       C          1.23459945  *  -1.10123240  *   0.99081274  *
     6       O          2.00633117  *  -1.99259293  *   0.75803999  *
     7       C          1.58708767  *   1.25117515  *   0.36807154  *
     8       O          2.55593092  *   1.66548149  *  -0.20983511  *
     9       H         -2.35033946  *  -0.89378640  *  -0.42439222  *
    10       H         -1.07153015  *  -1.84893734  *   0.34190656  *
    11       H         -0.99138744  *  -1.50377285  *  -1.40943055  *
    12       H         -2.01196306  *   1.37354059  *  -1.02467262  *
    13       H         -0.60992627  *   1.03733272  *  -2.07828122  *
    14       H         -0.47112965  *   2.19099788  *  -0.72069374  *
    15       H          1.32125547  *  -0.37342229  *  -1.06524105  *
    16       H          0.73004133  *  -0.99792455  *   1.95759421  *
    17       H          1.14424059  *   1.77334455  *   1.22320474  *



          CARTESIAN COORDINATES 

    NO.       ATOM           X           Y           Z

     1         C         -1.2635     -1.0841     -0.4289
     2         N         -0.5552      0.1684     -0.0779
     3         C         -0.9175      1.2345     -1.0400
     4         C          0.9126     -0.0496     -0.0731
     5         C          1.2346     -1.1012      0.9908
     6         O          2.0063     -1.9926      0.7580
     7         C          1.5871      1.2512      0.3681
     8         O          2.5559      1.6655     -0.2098
     9         H         -2.3503     -0.8938     -0.4244
    10         H         -1.0715     -1.8489      0.3419
    11         H         -0.9914     -1.5038     -1.4094
    12         H         -2.0120      1.3735     -1.0247
    13         H         -0.6099      1.0373     -2.0783
    14         H         -0.4711      2.1910     -0.7207
    15         H          1.3213     -0.3734     -1.0652
    16         H          0.7300     -0.9979      1.9576
    17         H          1.1442      1.7733      1.2232

 General Reference for PM7:
 "Optimization of Parameters for Semiempirical Methods VI: More Modifications to the 
 NDDO Approximations and Re-optimization of Parameters", J. J. P. Stewart, J. Mol. Mod., 1:32, 19 (2013)
 https://link.springer.com/article/10.1007/s00894-012-1667-x

           Empirical Formula: C5 H9 N O2  =    17 atoms



      MOLECULAR POINT GROUP   :   Cs  


      RHF CALCULATION, NO. OF DOUBLY OCCUPIED LEVELS = 23

  SCF CRITERION =    0.1000E-07

 -------------------------------------------------------------------------------
 PM7 1SCF GRADIENTS DISP RELSCF=0.0001
 Title: ASE calculation



     1SCF WAS SPECIFIED, SO BFGS WAS NOT USED                 
     SCF FIELD WAS ACHIEVED                                   


                              PM7 CALCULATION
                                                       MOPAC v23.2 Linux
                                                       Fri Sep 19 21:57:58 2025




          FINAL HEAT OF FORMATION =        -57.39269 KCAL/MOL =    -240.13101 KJ/MOL

          TOTAL ENERGY            =     -34855.99897 KCAL/MOL = ELECTRONIC ENERGY + CORE-CORE REPULSION
          ENERGY OF ATOMS         =      34800.19765 KCAL/MOL
                              SUM =        -55.80132 KCAL/MOL
          DISPERSION ENERGY       =         -1.59137 KCAL/MOL
                              SUM =        -57.39269 KCAL/MOL = FINAL HEAT OF FORMATION



          TOTAL ENERGY            =      -1511.49917 EV
          ELECTRONIC ENERGY       =      -6534.13485 EV 
          CORE-CORE REPULSION     =       5022.63568 EV
          COSMO AREA              =        153.18 SQUARE ANGSTROMS
          COSMO VOLUME            =        150.71 CUBIC ANGSTROMS

          GRADIENT NORM           =          0.73440          =       0.17812 PER ATOM
          IONIZATION POTENTIAL    =          9.748485 EV
          HOMO LUMO ENERGIES (EV) =         -9.748 -0.096
          NO. OF FILLED LEVELS    =         23
          MOLECULAR WEIGHT        =        115.1316         POINT GROUP:  Cs  

          MOLECULAR DIMENSIONS (Angstroms)

            Atom       Atom       Distance
            H     9    O     8     5.53781
            H    12    O     6     5.13384
            H    16    H    11     2.99414


          SCF CALCULATIONS        =          1

          WALL-CLOCK TIME         =      0.633 SECONDS
          COMPUTATION TIME        =      0.772 SECONDS

          LARGEST ATOMIC GRADIENTS

          Atom     Label                     Cartesian Gradients           Cartesian Coordinates       |Gradient|
                                           X          Y          Z        X          Y          Z

            16       H                   0.050     -0.184     -0.245    0.73004   -0.99792    1.95759      0.311
            17       H                   0.052      0.030     -0.267    1.14424    1.77334    1.22320      0.273
             5       C                  -0.176      0.127     -0.075    1.23460   -1.10123    0.99081      0.229
            15       H                  -0.009      0.050      0.202    1.32126   -0.37342   -1.06524      0.208
             2       N                   0.080      0.034      0.177   -0.55521    0.16839   -0.07792      0.197
             3       C                   0.107     -0.021      0.163   -0.91751    1.23451   -1.03999      0.196
             1       C                   0.120      0.061      0.139   -1.26353   -1.08411   -0.42893      0.194
            12       H                   0.083     -0.094     -0.125   -2.01196    1.37354   -1.02467      0.177
             9       H                   0.091     -0.007     -0.151   -2.35034   -0.89379   -0.42439      0.177
             7       C                  -0.145     -0.054     -0.038    1.58709    1.25118    0.36807      0.159



       FINAL  POINT  AND  DERIVATIVES

   PARAMETER     ATOM    TYPE            VALUE        GRADIENT
      1          1  C    CARTESIAN X    -1.263532      0.120275  KCAL/ANGSTROM
      2          1  C    CARTESIAN Y    -1.084106      0.061468  KCAL/ANGSTROM
      3          1  C    CARTESIAN Z    -0.428930      0.139041  KCAL/ANGSTROM
      4          2  N    CARTESIAN X    -0.555213      0.080455  KCAL/ANGSTROM
      5          2  N    CARTESIAN Y     0.168390      0.033903  KCAL/ANGSTROM
      6          2  N    CARTESIAN Z    -0.077921      0.176505  KCAL/ANGSTROM
      7          3  C    CARTESIAN X    -0.917508      0.107247  KCAL/ANGSTROM
      8          3  C    CARTESIAN Y     1.234510     -0.021113  KCAL/ANGSTROM
      9          3  C    CARTESIAN Z    -1.039988      0.163186  KCAL/ANGSTROM
     10          4  C    CARTESIAN X     0.912610      0.010597  KCAL/ANGSTROM
     11          4  C    CARTESIAN Y    -0.049605      0.024484  KCAL/ANGSTROM
     12          4  C    CARTESIAN Z    -0.073057      0.104360  KCAL/ANGSTROM
     13          5  C    CARTESIAN X     1.234599     -0.175851  KCAL/ANGSTROM
     14          5  C    CARTESIAN Y    -1.101232      0.126653  KCAL/ANGSTROM
     15          5  C    CARTESIAN Z     0.990813     -0.075327  KCAL/ANGSTROM
     16          6  O    CARTESIAN X     2.006331     -0.059842  KCAL/ANGSTROM
     17          6  O    CARTESIAN Y    -1.992593     -0.062583  KCAL/ANGSTROM
     18          6  O    CARTESIAN Z     0.758040      0.037864  KCAL/ANGSTROM
     19          7  C    CARTESIAN X     1.587088     -0.144886  KCAL/ANGSTROM
     20          7  C    CARTESIAN Y     1.251175     -0.054212  KCAL/ANGSTROM
     21          7  C    CARTESIAN Z     0.368072     -0.038356  KCAL/ANGSTROM
     22          8  O    CARTESIAN X     2.555931     -0.069546  KCAL/ANGSTROM
     23          8  O    CARTESIAN Y     1.665481      0.065117  KCAL/ANGSTROM
     24          8  O    CARTESIAN Z    -0.209835      0.007790  KCAL/ANGSTROM
     25          9  H    CARTESIAN X    -2.350339      0.090740  KCAL/ANGSTROM
     26          9  H    CARTESIAN Y    -0.893786     -0.007165  KCAL/ANGSTROM
     27          9  H    CARTESIAN Z    -0.424392     -0.151467  KCAL/ANGSTROM
     28         10  H    CARTESIAN X    -1.071530     -0.001977  KCAL/ANGSTROM
     29         10  H    CARTESIAN Y    -1.848937     -0.106541  KCAL/ANGSTROM
     30         10  H    CARTESIAN Z     0.341907      0.036366  KCAL/ANGSTROM
     31         11  H    CARTESIAN X    -0.991387     -0.076693  KCAL/ANGSTROM
     32         11  H    CARTESIAN Y    -1.503773     -0.011132  KCAL/ANGSTROM
     33         11  H    CARTESIAN Z    -1.409431      0.031612  KCAL/ANGSTROM
     34         12  H    CARTESIAN X    -2.011963      0.083220  KCAL/ANGSTROM
     35         12  H    CARTESIAN Y     1.373541     -0.093621  KCAL/ANGSTROM
     36         12  H    CARTESIAN Z    -1.024673     -0.125315  KCAL/ANGSTROM
     37         13  H    CARTESIAN X    -0.609926     -0.076295  KCAL/ANGSTROM
     38         13  H    CARTESIAN Y     1.037333      0.049548  KCAL/ANGSTROM
     39         13  H    CARTESIAN Z    -2.078281      0.024778  KCAL/ANGSTROM
     40         14  H    CARTESIAN X    -0.471130      0.019285  KCAL/ANGSTROM
     41         14  H    CARTESIAN Y     2.190998      0.099922  KCAL/ANGSTROM
     42         14  H    CARTESIAN Z    -0.720694     -0.021676  KCAL/ANGSTROM
     43         15  H    CARTESIAN X     1.321255     -0.008997  KCAL/ANGSTROM
     44         15  H    CARTESIAN Y    -0.373422      0.049853  KCAL/ANGSTROM
     45         15  H    CARTESIAN Z    -1.065241      0.202235  KCAL/ANGSTROM
     46         16  H    CARTESIAN X     0.730041      0.050017  KCAL/ANGSTROM
     47         16  H    CARTESIAN Y    -0.997925     -0.184378  KCAL/ANGSTROM
     48         16  H    CARTESIAN Z     1.957594     -0.244918  KCAL/ANGSTROM
     49         17  H    CARTESIAN X     1.144241      0.052251  KCAL/ANGSTROM
     50         17  H    CARTESIAN Y     1.773345      0.029797  KCAL/ANGSTROM
     51         17  H    CARTESIAN Z     1.223205     -0.266681  KCAL/ANGSTROM




   ATOM   CHEMICAL          X               Y               Z
  NUMBER   SYMBOL      (ANGSTROMS)     (ANGSTROMS)     (ANGSTROMS)

     1       C         -1.26353196  *  -1.08410644  *  -0.42893009  *
     2       N         -0.55521296  *   0.16838962  *  -0.07792107  *
     3       C         -0.91750779  *   1.23451001  *  -1.03998800  *
     4       C          0.91260976  *  -0.04960515  *  -0.07305730  *
     5       C          1.23459945  *  -1.10123240  *   0.99081274  *
     6       O          2.00633117  *  -1.99259293  *   0.75803999  *
     7       C          1.58708767  *   1.25117515  *   0.36807154  *
     8       O          2.55593092  *   1.66548149  *  -0.20983511  *
     9       H         -2.35033946  *  -0.89378640  *  -0.42439222  *
    10       H         -1.07153015  *  -1.84893734  *   0.34190656  *
    11       H         -0.99138744  *  -1.50377285  *  -1.40943055  *
    12       H         -2.01196306  *   1.37354059  *  -1.02467262  *
    13       H         -0.60992627  *   1.03733272  *  -2.07828122  *
    14       H         -0.47112965  *   2.19099788  *  -0.72069374  *
    15       H          1.32125547  *  -0.37342229  *  -1.06524105  *
    16       H          0.73004133  *  -0.99792455  *   1.95759421  *
    17       H          1.14424059  *   1.77334455  *   1.22320474  *

                             CARTESIAN COORDINATES

   1    C       -1.263531957    -1.084106439    -0.428930085
   2    N       -0.555212956     0.168389624    -0.077921067
   3    C       -0.917507793     1.234510006    -1.039987996
   4    C        0.912609757    -0.049605152    -0.073057296
   5    C        1.234599447    -1.101232397     0.990812740
   6    O        2.006331166    -1.992592931     0.758039992
   7    C        1.587087670     1.251175147     0.368071536
   8    O        2.555930921     1.665481491    -0.209835106
   9    H       -2.350339461    -0.893786396    -0.424392222
  10    H       -1.071530153    -1.848937340     0.341906556
  11    H       -0.991387437    -1.503772850    -1.409430548
  12    H       -2.011963060     1.373540591    -1.024672622
  13    H       -0.609926267     1.037332720    -2.078281221
  14    H       -0.471129654     2.190997881    -0.720693745
  15    H        1.321255470    -0.373422292    -1.065241049
  16    H        0.730041334    -0.997924552     1.957594205
  17    H        1.144240592     1.773344554     1.223204742


           Empirical Formula: C5 H9 N O2  =    17 atoms



      MOLECULAR POINT GROUP   :   Cs  


                  EIGENVALUES  
 -35.79986 -31.64785 -31.40153 -26.76879 -25.31139 -23.04977 -21.95605 -20.56842
 -17.56121 -17.01332 -16.44949 -15.82232 -15.38342 -14.51565 -14.43184 -13.98227
 -13.92837 -13.80632 -13.14965 -13.07657 -10.78155 -10.34037  -9.74849  -0.09560
   0.47835   2.16448   2.70404   2.96383   3.95926   4.19973   4.46328   4.47642
   4.76459   4.90218   5.06290   5.09847   5.25275   5.27689   5.38886   5.94107
   6.08097


              NET ATOMIC CHARGES AND DIPOLE CONTRIBUTIONS

  ATOM NO.   TYPE          CHARGE      No. of ELECS.   s-Pop       p-Pop       
    1          C          -0.286435        4.2864     1.06346     3.22297
    2          N          -0.375381        5.3754     1.69303     3.68235
    3          C          -0.286439        4.2864     1.06345     3.22299
    4          C          -0.219500        4.2195     1.10230     3.11720
    5          C           0.334011        3.6660     1.15118     2.51481
    6          O          -0.402102        6.4021     1.87732     4.52478
    7          C           0.333914        3.6661     1.15120     2.51488
    8          O          -0.402049        6.4020     1.87733     4.52472
    9          H           0.152970        0.8470     0.84703
   10          H           0.148527        0.8515     0.85147
   11          H           0.132587        0.8674     0.86741
   12          H           0.152965        0.8470     0.84703
   13          H           0.132598        0.8674     0.86740
   14          H           0.148501        0.8515     0.85150
   15          H           0.177188        0.8228     0.82281
   16          H           0.129307        0.8707     0.87069
   17          H           0.129338        0.8707     0.87066
 DIPOLE           X         Y         Z       TOTAL
 POINT-CHG.    -4.282     0.877     0.873     4.457
 HYBRID         0.444    -0.333    -1.007     1.149
 SUM           -3.838     0.545    -0.134     3.878


          ATOMIC ORBITAL ELECTRON POPULATIONS

     Atom    s        px        py        pz   
    1  C   1.06346   1.10859   0.97086   1.14352
    2  N   1.69303   1.07459   1.11543   1.49234
    3  C   1.06345   1.15914   1.01903   1.04483
    4  C   1.10230   0.92406   1.06427   1.12887
    5  C   1.15118   0.76443   0.79490   0.95548
    6  O   1.87732   1.32649   1.36374   1.83455
    7  C   1.15120   0.79392   0.85572   0.86524
    8  O   1.87733   1.29484   1.67389   1.55600
    9  H   0.84703
   10  H   0.85147
   11  H   0.86741
   12  H   0.84703
   13  H   0.86740
   14  H   0.85150
   15  H   0.82281
   16  H   0.87069
   17  H   0.87066

 **********************
 *                    *
 * JOB ENDED NORMALLY *
 *                    *
 **********************



 TOTAL JOB TIME:             0.95 SECONDS

 == MOPAC DONE ==
