 *******************************************************************************
 **                                                                           **
 **                              MOPAC v23.2                                  **
 **                                                                           **
 *******************************************************************************
 **          Digital Object Identifier (DOI): 10.5281/zenodo.6511958          **
 **    Visit the DOI location for information on how to cite this program.    **
 *******************************************************************************

                              PM7 CALCULATION RESULTS

 *******************************************************************************
 *  CALCULATION DONE: (MAX THREADS = 40)             Fri Sep 19 21:35:39 2025  *
 *  PM7        - The PM7 Hamiltonian to be used
 *
 *
 *
 *                 CHARGE ON SYSTEM = +1
 *
 *
 *
 *  EPS=37.5   - USE ANDREAS KLAMT'S COSMO IMPLICIT SOLVATION MODEL
 *  1SCF       - DO 1 SCF AND THEN STOP 
 *  T=         - A TIME OF 172800.0 SECONDS REQUESTED
 *  DUMP=N     - RESTART FILE WRITTEN EVERY 7200.0 SECONDS REQUESTED
 *  RELSCF     - DEFAULT SCF CRITERION MULTIPLIED BY 0.0001
 *              (DEFAULT SCF CRITERION = 0.00010)
 *  GRADIENTS  - ALL GRADIENTS TO BE PRINTED
 *  DISP       - PRINT DISPERSION AND HYDROGEN BOND ENERGIES
 *******************************************************************************
PM7 1SCF GRADIENTS EPS=37.5 DISP RELSCF=0.0001 CHARGE=1
 Title: ASE calculation

   ATOM   CHEMICAL          X               Y               Z
  NUMBER   SYMBOL      (ANGSTROMS)     (ANGSTROMS)     (ANGSTROMS)

     1       C          2.25059624  *   1.48477065  *   0.16472973  *
     2       C          1.55042596  *   0.14610148  *   0.44976013  *
     3       C          0.35982973  *   0.06128887  *  -0.44435716  *
     4       C         -0.07050991  *  -1.77070122  *  -0.26046426  *
     5       O          0.15474790  *  -2.34551214  *  -1.24296246  *
     6       C         -0.90781795  *   0.74272613  *  -0.07052925  *
     7       C         -1.39780015  *   0.51691547  *   1.35371230  *
     8       C         -2.05569344  *   0.44779921  *  -1.07405706  *
     9       O         -3.19100901  *   1.16777836  *  -0.68270374  *
    10       H          2.50437736  *   1.61740519  *  -0.89528731  *
    11       H          3.20336959  *   1.54385331  *   0.71901436  *
    12       H          1.64898300  *   2.34551214  *   0.48506452  *
    13       H          2.28358230  *  -0.67375064  *   0.27285336  *
    14       H          1.29411296  *   0.09008893  *   1.53139894  *
    15       H          0.59417983  *   0.07146983  *  -1.52881341  *
    16       H         -0.43982287  *  -1.86859234  *   0.75420269  *
    17       H         -0.67624022  *   1.85949706  *  -0.15982465  *
    18       H         -1.69178521  *  -0.51635612  *   1.56257997  *
    19       H         -2.32043142  *   1.10976441  *   1.53699165  *
    20       H         -0.67848615  *   0.84392160  *   2.11458156  *
    21       H         -1.77065359  *   0.68187752  *  -2.11458156  *
    22       H         -2.39563165  *  -0.60487784  *  -1.01087014  *
    23       H         -3.20336959  *   2.07029261  *  -1.07564289  *



          CARTESIAN COORDINATES 

    NO.       ATOM           X           Y           Z

     1         C          2.2506      1.4848      0.1647
     2         C          1.5504      0.1461      0.4498
     3         C          0.3598      0.0613     -0.4444
     4         C         -0.0705     -1.7707     -0.2605
     5         O          0.1547     -2.3455     -1.2430
     6         C         -0.9078      0.7427     -0.0705
     7         C         -1.3978      0.5169      1.3537
     8         C         -2.0557      0.4478     -1.0741
     9         O         -3.1910      1.1678     -0.6827
    10         H          2.5044      1.6174     -0.8953
    11         H          3.2034      1.5439      0.7190
    12         H          1.6490      2.3455      0.4851
    13         H          2.2836     -0.6738      0.2729
    14         H          1.2941      0.0901      1.5314
    15         H          0.5942      0.0715     -1.5288
    16         H         -0.4398     -1.8686      0.7542
    17         H         -0.6762      1.8595     -0.1598
    18         H         -1.6918     -0.5164      1.5626
    19         H         -2.3204      1.1098      1.5370
    20         H         -0.6785      0.8439      2.1146
    21         H         -1.7707      0.6819     -2.1146
    22         H         -2.3956     -0.6049     -1.0109
    23         H         -3.2034      2.0703     -1.0756

 General Reference for PM7:
 "Optimization of Parameters for Semiempirical Methods VI: More Modifications to the 
 NDDO Approximations and Re-optimization of Parameters", J. J. P. Stewart, J. Mol. Mod., 1:32, 19 (2013)
 https://link.springer.com/article/10.1007/s00894-012-1667-x

           Empirical Formula: C7 H14 O2  =    23 atoms



      MOLECULAR POINT GROUP   :   C1  


          UHF CALCULATION, NO. OF ALPHA ELECTRONS =   27
                           NO. OF BETA  ELECTRONS =   26
  SCF CRITERION =    0.1000E-07

 -------------------------------------------------------------------------------
 PM7 1SCF GRADIENTS EPS=37.5 DISP RELSCF=0.0001 CHARGE=1
 Title: ASE calculation



     1SCF WAS SPECIFIED, SO BFGS WAS NOT USED                 
     SCF FIELD WAS ACHIEVED                                   


                              PM7 CALCULATION
                                                       MOPAC v23.2 Linux
                                                       Fri Sep 19 21:35:40 2025




          FINAL HEAT OF FORMATION =         56.29109 KCAL/MOL =     235.52193 KJ/MOL

          TOTAL ENERGY            =     -37653.17810 KCAL/MOL = ELECTRONIC ENERGY + CORE-CORE REPULSION + SOLVATION ENERGY
          ENERGY OF ATOMS         =      37712.04263 KCAL/MOL
                              SUM =         58.86452 KCAL/MOL
          DISPERSION ENERGY       =         -2.57343 KCAL/MOL
                              SUM =         56.29109 KCAL/MOL = FINAL HEAT OF FORMATION

          VAN DER WAALS AREA      =        178.36 SQUARE ANGSTROMS


          TOTAL ENERGY            =      -1632.79634 EV
          ELECTRONIC ENERGY       =      -2437.38807 EV 
          CORE-CORE REPULSION     =        804.59173 EV

          DIELECTRIC ENERGY       =         -2.57435 EV
          COSMO AREA              =        178.36 SQUARE ANGSTROMS
          COSMO VOLUME            =        184.98 CUBIC ANGSTROMS

          GRADIENT NORM           =         20.65999          =       4.30791 PER ATOM
          IONIZATION POTENTIAL    =         10.857962 EV
          ALPHA SOMO LUMO (EV)    =        -10.858 -1.178
          BETA  SOMO LUMO (EV)    =        -11.253 -3.276
          NO. OF ALPHA ELECTRONS  =         27
          NO. OF BETA  ELECTRONS  =         26
          MOLECULAR WEIGHT        =        130.1864         POINT GROUP:  C1  

          MOLECULAR DIMENSIONS (Angstroms)

            Atom       Atom       Distance
            H    23    H    11     6.67415
            O     5    H    12     4.98865
            H    10    H    18     3.99001


          SCF CALCULATIONS        =          2

          WALL-CLOCK TIME         =      0.969 SECONDS
          COMPUTATION TIME        =      1.098 SECONDS

          LARGEST ATOMIC GRADIENTS

          Atom     Label                     Cartesian Gradients           Cartesian Coordinates       |Gradient|
                                           X          Y          Z        X          Y          Z

             8       C                  -6.552      5.423     -3.241   -2.05569    0.44780   -1.07406      9.102
             4       C                  -2.441      1.433      7.257   -0.07051   -1.77070   -0.26046      7.790
             7       C                   5.924     -3.716     -1.367   -1.39780    0.51692    1.35371      7.126
             9       O                   6.100     -3.111      1.305   -3.19101    1.16778   -0.68270      6.970
             5       O                   0.639     -4.063     -4.763    0.15475   -2.34551   -1.24296      6.293
             2       C                  -0.503     -5.269      0.635    1.55043    0.14610    0.44976      5.331
             1       C                  -3.856     -0.823     -2.521    2.25060    1.48477    0.16473      4.679
             3       C                   1.069      4.205      0.323    0.35983    0.06129   -0.44436      4.350
             6       C                   2.764     -2.444      0.261   -0.90782    0.74273   -0.07053      3.699
            19       H                  -3.104      1.148      0.524   -2.32043    1.10976    1.53699      3.351



       FINAL  POINT  AND  DERIVATIVES

   PARAMETER     ATOM    TYPE            VALUE        GRADIENT
      1          1  C    CARTESIAN X     2.250596     -3.855503  KCAL/ANGSTROM
      2          1  C    CARTESIAN Y     1.484771     -0.823195  KCAL/ANGSTROM
      3          1  C    CARTESIAN Z     0.164730     -2.520830  KCAL/ANGSTROM
      4          2  C    CARTESIAN X     1.550426     -0.502524  KCAL/ANGSTROM
      5          2  C    CARTESIAN Y     0.146101     -5.268711  KCAL/ANGSTROM
      6          2  C    CARTESIAN Z     0.449760      0.634978  KCAL/ANGSTROM
      7          3  C    CARTESIAN X     0.359830      1.069105  KCAL/ANGSTROM
      8          3  C    CARTESIAN Y     0.061289      4.204505  KCAL/ANGSTROM
      9          3  C    CARTESIAN Z    -0.444357      0.322765  KCAL/ANGSTROM
     10          4  C    CARTESIAN X    -0.070510     -2.440688  KCAL/ANGSTROM
     11          4  C    CARTESIAN Y    -1.770701      1.433197  KCAL/ANGSTROM
     12          4  C    CARTESIAN Z    -0.260464      7.257126  KCAL/ANGSTROM
     13          5  O    CARTESIAN X     0.154748      0.639090  KCAL/ANGSTROM
     14          5  O    CARTESIAN Y    -2.345512     -4.063124  KCAL/ANGSTROM
     15          5  O    CARTESIAN Z    -1.242962     -4.763278  KCAL/ANGSTROM
     16          6  C    CARTESIAN X    -0.907818      2.764433  KCAL/ANGSTROM
     17          6  C    CARTESIAN Y     0.742726     -2.444125  KCAL/ANGSTROM
     18          6  C    CARTESIAN Z    -0.070529      0.260750  KCAL/ANGSTROM
     19          7  C    CARTESIAN X    -1.397800      5.924166  KCAL/ANGSTROM
     20          7  C    CARTESIAN Y     0.516915     -3.716373  KCAL/ANGSTROM
     21          7  C    CARTESIAN Z     1.353712     -1.367320  KCAL/ANGSTROM
     22          8  C    CARTESIAN X    -2.055693     -6.551538  KCAL/ANGSTROM
     23          8  C    CARTESIAN Y     0.447799      5.422973  KCAL/ANGSTROM
     24          8  C    CARTESIAN Z    -1.074057     -3.241319  KCAL/ANGSTROM
     25          9  O    CARTESIAN X    -3.191009      6.099525  KCAL/ANGSTROM
     26          9  O    CARTESIAN Y     1.167778     -3.111425  KCAL/ANGSTROM
     27          9  O    CARTESIAN Z    -0.682704      1.304832  KCAL/ANGSTROM
     28         10  H    CARTESIAN X     2.504377      1.716199  KCAL/ANGSTROM
     29         10  H    CARTESIAN Y     1.617405      0.772452  KCAL/ANGSTROM
     30         10  H    CARTESIAN Z    -0.895287     -0.059600  KCAL/ANGSTROM
     31         11  H    CARTESIAN X     3.203370      1.706234  KCAL/ANGSTROM
     32         11  H    CARTESIAN Y     1.543853      0.571600  KCAL/ANGSTROM
     33         11  H    CARTESIAN Z     0.719014      0.459630  KCAL/ANGSTROM
     34         12  H    CARTESIAN X     1.648983      0.879371  KCAL/ANGSTROM
     35         12  H    CARTESIAN Y     2.345512      1.076915  KCAL/ANGSTROM
     36         12  H    CARTESIAN Z     0.485065      1.086582  KCAL/ANGSTROM
     37         13  H    CARTESIAN X     2.283582      1.390178  KCAL/ANGSTROM
     38         13  H    CARTESIAN Y    -0.673751      1.425852  KCAL/ANGSTROM
     39         13  H    CARTESIAN Z     0.272853      0.147312  KCAL/ANGSTROM
     40         14  H    CARTESIAN X     1.294113      0.479409  KCAL/ANGSTROM
     41         14  H    CARTESIAN Y     0.090089      1.320500  KCAL/ANGSTROM
     42         14  H    CARTESIAN Z     1.531399      0.686481  KCAL/ANGSTROM
     43         15  H    CARTESIAN X     0.594180     -0.091629  KCAL/ANGSTROM
     44         15  H    CARTESIAN Y     0.071470     -0.268001  KCAL/ANGSTROM
     45         15  H    CARTESIAN Z    -1.528813      0.312396  KCAL/ANGSTROM
     46         16  H    CARTESIAN X    -0.439823      0.662608  KCAL/ANGSTROM
     47         16  H    CARTESIAN Y    -1.868592      0.279361  KCAL/ANGSTROM
     48         16  H    CARTESIAN Z     0.754203     -2.876242  KCAL/ANGSTROM
     49         17  H    CARTESIAN X    -0.676240     -0.164556  KCAL/ANGSTROM
     50         17  H    CARTESIAN Y     1.859497      0.088212  KCAL/ANGSTROM
     51         17  H    CARTESIAN Z    -0.159825      1.036856  KCAL/ANGSTROM
     52         18  H    CARTESIAN X    -1.691785     -2.228685  KCAL/ANGSTROM
     53         18  H    CARTESIAN Y    -0.516356      1.980800  KCAL/ANGSTROM
     54         18  H    CARTESIAN Z     1.562580      0.275491  KCAL/ANGSTROM
     55         19  H    CARTESIAN X    -2.320431     -3.103803  KCAL/ANGSTROM
     56         19  H    CARTESIAN Y     1.109764      1.147823  KCAL/ANGSTROM
     57         19  H    CARTESIAN Z     1.536992      0.524429  KCAL/ANGSTROM
     58         20  H    CARTESIAN X    -0.678486     -1.383559  KCAL/ANGSTROM
     59         20  H    CARTESIAN Y     0.843922      1.517183  KCAL/ANGSTROM
     60         20  H    CARTESIAN Z     2.114582      0.984761  KCAL/ANGSTROM
     61         21  H    CARTESIAN X    -1.770654      0.048758  KCAL/ANGSTROM
     62         21  H    CARTESIAN Y     0.681878     -1.079517  KCAL/ANGSTROM
     63         21  H    CARTESIAN Z    -2.114582      0.014568  KCAL/ANGSTROM
     64         22  H    CARTESIAN X    -2.395632     -1.267282  KCAL/ANGSTROM
     65         22  H    CARTESIAN Y    -0.604878      0.977311  KCAL/ANGSTROM
     66         22  H    CARTESIAN Z    -1.010870      0.147570  KCAL/ANGSTROM
     67         23  H    CARTESIAN X    -3.203370     -1.789309  KCAL/ANGSTROM
     68         23  H    CARTESIAN Y     2.070293     -1.444217  KCAL/ANGSTROM
     69         23  H    CARTESIAN Z    -1.075643     -0.627941  KCAL/ANGSTROM




   ATOM   CHEMICAL          X               Y               Z
  NUMBER   SYMBOL      (ANGSTROMS)     (ANGSTROMS)     (ANGSTROMS)

     1       C          2.25059624  *   1.48477065  *   0.16472973  *
     2       C          1.55042596  *   0.14610148  *   0.44976013  *
     3       C          0.35982973  *   0.06128887  *  -0.44435716  *
     4       C         -0.07050991  *  -1.77070122  *  -0.26046426  *
     5       O          0.15474790  *  -2.34551214  *  -1.24296246  *
     6       C         -0.90781795  *   0.74272613  *  -0.07052925  *
     7       C         -1.39780015  *   0.51691547  *   1.35371230  *
     8       C         -2.05569344  *   0.44779921  *  -1.07405706  *
     9       O         -3.19100901  *   1.16777836  *  -0.68270374  *
    10       H          2.50437736  *   1.61740519  *  -0.89528731  *
    11       H          3.20336959  *   1.54385331  *   0.71901436  *
    12       H          1.64898300  *   2.34551214  *   0.48506452  *
    13       H          2.28358230  *  -0.67375064  *   0.27285336  *
    14       H          1.29411296  *   0.09008893  *   1.53139894  *
    15       H          0.59417983  *   0.07146983  *  -1.52881341  *
    16       H         -0.43982287  *  -1.86859234  *   0.75420269  *
    17       H         -0.67624022  *   1.85949706  *  -0.15982465  *
    18       H         -1.69178521  *  -0.51635612  *   1.56257997  *
    19       H         -2.32043142  *   1.10976441  *   1.53699165  *
    20       H         -0.67848615  *   0.84392160  *   2.11458156  *
    21       H         -1.77065359  *   0.68187752  *  -2.11458156  *
    22       H         -2.39563165  *  -0.60487784  *  -1.01087014  *
    23       H         -3.20336959  *   2.07029261  *  -1.07564289  *

                             CARTESIAN COORDINATES

   1    C        2.250596244     1.484770653     0.164729730
   2    C        1.550425964     0.146101480     0.449760134
   3    C        0.359829726     0.061288873    -0.444357160
   4    C       -0.070509906    -1.770701217    -0.260464257
   5    O        0.154747896    -2.345512136    -1.242962457
   6    C       -0.907817954     0.742726133    -0.070529247
   7    C       -1.397800150     0.516915467     1.353712298
   8    C       -2.055693441     0.447799206    -1.074057065
   9    O       -3.191009008     1.167778360    -0.682703738
  10    H        2.504377360     1.617405188    -0.895287310
  11    H        3.203369592     1.543853314     0.719014359
  12    H        1.648983000     2.345512136     0.485064519
  13    H        2.283582298    -0.673750640     0.272853358
  14    H        1.294112956     0.090088929     1.531398937
  15    H        0.594179829     0.071469833    -1.528813407
  16    H       -0.439822870    -1.868592338     0.754202687
  17    H       -0.676240223     1.859497062    -0.159824652
  18    H       -1.691785207    -0.516356116     1.562579971
  19    H       -2.320431424     1.109764409     1.536991645
  20    H       -0.678486147     0.843921601     2.114581555
  21    H       -1.770653592     0.681877516    -2.114581555
  22    H       -2.395631653    -0.604877844    -1.010870144
  23    H       -3.203369592     2.070292606    -1.075642888


           Empirical Formula: C7 H14 O2  =    23 atoms



      MOLECULAR POINT GROUP   :   C1  


          ALPHA EIGENVALUES  
 -35.81341 -31.09734 -29.66761 -27.46417 -25.05893 -24.45680 -23.24284 -21.61295
 -19.70817 -18.24403 -17.87089 -17.56358 -17.05170 -16.79334 -16.06889 -15.43014
 -15.12107 -14.64342 -14.24432 -13.71947 -13.25857 -13.16676 -12.71565 -12.39152
 -12.31707 -11.31864 -10.85796  -1.17778  -0.69927   2.04680   2.24214   2.60795
   3.01530   3.22544   3.50539   3.65320   3.75636   4.40723   4.80193   4.87804
   5.06085   5.32624   5.34057   5.38512   5.46206   5.53180   5.76983   5.88423
   6.53644   6.59883


           BETA EIGENVALUES 
 -34.47014 -31.00205 -29.62674 -27.43513 -24.79727 -24.34770 -22.99213 -21.55661
 -19.48206 -17.89266 -17.69659 -17.08999 -16.86119 -16.42276 -15.67102 -15.37261
 -15.09695 -14.53573 -13.77070 -13.65447 -13.22366 -13.08097 -12.65872 -12.29888
 -12.21663 -11.25255  -3.27557  -1.01926   0.30260   2.26438   2.42192   2.68678
   3.11692   3.29632   3.56151   3.72186   4.05139   4.47342   4.82277   4.90338
   5.09442   5.33557   5.35031   5.39323   5.46594   5.54231   5.77965   5.88516
   6.54009   6.60125


              NET ATOMIC CHARGES AND DIPOLE CONTRIBUTIONS

  ATOM NO.   TYPE          CHARGE      No. of ELECS.   s-Pop       p-Pop       
    1          C          -0.424718        4.4247     1.05429     3.37043
    2          C          -0.327261        4.3273     1.06173     3.26553
    3          C           0.014073        3.9859     1.16481     2.82112
    4          C           0.303442        3.6966     1.26094     2.43562
    5          O          -0.021919        6.0219     1.87228     4.14964
    6          C          -0.214959        4.2150     1.07012     3.14483
    7          C          -0.450925        4.4509     1.05349     3.39744
    8          C           0.005569        3.9944     1.09056     2.90387
    9          O          -0.593790        6.5938     1.84180     4.75199
   10          H           0.162677        0.8373     0.83732
   11          H           0.169199        0.8308     0.83080
   12          H           0.159916        0.8401     0.84008
   13          H           0.186865        0.8131     0.81314
   14          H           0.183189        0.8168     0.81681
   15          H           0.192433        0.8076     0.80757
   16          H           0.280257        0.7197     0.71974
   17          H           0.221785        0.7782     0.77822
   18          H           0.158482        0.8415     0.84152
   19          H           0.181364        0.8186     0.81864
   20          H           0.163068        0.8369     0.83693
   21          H           0.143767        0.8562     0.85623
   22          H           0.146847        0.8532     0.85315
   23          H           0.360639        0.6394     0.63936
 DIPOLE           X         Y         Z       TOTAL
 POINT-CHG.     3.811    -2.947     0.170     4.821
 HYBRID        -0.082     0.026    -0.305     0.317
 SUM            3.729    -2.921    -0.135     4.739


          ATOMIC ORBITAL ELECTRON POPULATIONS

     Atom    s        px        py        pz   
    1  C   1.05429   1.15091   1.02906   1.19046
    2  C   1.06173   1.03957   1.09680   1.12916
    3  C   1.16481   0.99396   0.70854   1.11862
    4  C   1.26094   0.66474   0.84310   0.92777
    5  O   1.87228   1.39928   1.40990   1.34047
    6  C   1.07012   0.98123   1.12899   1.03462
    7  C   1.05349   1.18399   1.19349   1.01996
    8  C   1.09056   0.84548   1.02327   1.03512
    9  O   1.84180   1.50554   1.44736   1.79908
   10  H   0.83732
   11  H   0.83080
   12  H   0.84008
   13  H   0.81314
   14  H   0.81681
   15  H   0.80757
   16  H   0.71974
   17  H   0.77822
   18  H   0.84152
   19  H   0.81864
   20  H   0.83693
   21  H   0.85623
   22  H   0.85315
   23  H   0.63936


                    (SZ)    =    0.500000
                    (S**2)  =    0.768363


          ATOMIC ORBITAL SPIN POPULATIONS

    Atom   Total    s     px     py     pz   
         Atomic
    1  C  0.0319  0.004  0.009  0.019  0.001
    2  C -0.0031 -0.001 -0.004  0.005 -0.003
    3  C  0.4064  0.007  0.033  0.350  0.016
    4  C  0.0280 -0.017 -0.024  0.070 -0.001
    5  O  0.4204  0.012  0.057  0.318  0.034
    6  C  0.0072 -0.002 -0.009  0.020 -0.002
    7  C  0.0072  0.001  0.000  0.003  0.003
    8  C  0.0041  0.000  0.002  0.000  0.001
    9  O -0.0001  0.000 -0.001  0.000  0.001
   10  H -0.0007 -0.001
   11  H  0.0017  0.002
   12  H -0.0010 -0.001
   13  H  0.0062  0.006
   14  H  0.0005  0.000
   15  H -0.0038 -0.004
   16  H  0.0584  0.058
   17  H  0.0354  0.035
   18  H  0.0011  0.001
   19  H -0.0002 -0.000
   20  H -0.0002 -0.000
   21  H -0.0002 -0.000
   22  H  0.0006  0.001
   23  H -0.0000 -0.000

 **********************
 *                    *
 * JOB ENDED NORMALLY *
 *                    *
 **********************



 TOTAL JOB TIME:             1.41 SECONDS

 == MOPAC DONE ==
