 *******************************************************************************
 **                                                                           **
 **                              MOPAC v23.2                                  **
 **                                                                           **
 *******************************************************************************
 **          Digital Object Identifier (DOI): 10.5281/zenodo.6511958          **
 **    Visit the DOI location for information on how to cite this program.    **
 *******************************************************************************

                              PM7 CALCULATION RESULTS

 *******************************************************************************
 *  CALCULATION DONE: (MAX THREADS = 40)             Fri Sep 19 21:42:02 2025  *
 *  PM7        - The PM7 Hamiltonian to be used
 *  EPS=37.5   - USE ANDREAS KLAMT'S COSMO IMPLICIT SOLVATION MODEL
 *  1SCF       - DO 1 SCF AND THEN STOP 
 *  T=         - A TIME OF 172800.0 SECONDS REQUESTED
 *  DUMP=N     - RESTART FILE WRITTEN EVERY 7200.0 SECONDS REQUESTED
 *  RELSCF     - DEFAULT SCF CRITERION MULTIPLIED BY 0.0001
 *              (DEFAULT SCF CRITERION = 0.00010)
 *  GRADIENTS  - ALL GRADIENTS TO BE PRINTED
 *  DISP       - PRINT DISPERSION AND HYDROGEN BOND ENERGIES
 *******************************************************************************
PM7 1SCF GRADIENTS EPS=37.5 DISP RELSCF=0.0001
 Title: ASE calculation

   ATOM   CHEMICAL          X               Y               Z
  NUMBER   SYMBOL      (ANGSTROMS)     (ANGSTROMS)     (ANGSTROMS)

     1       C          1.66611089  *  -0.59967061  *  -0.34116218  *
     2       C          0.71560014  *   0.23972045  *   0.49018214  *
     3       C         -0.29857754  *   1.11601773  *  -0.29809594  *
     4       C         -1.03598124  *   0.26687794  *  -1.35031058  *
     5       C         -1.47094585  *  -1.05810899  *  -0.79329871  *
     6       C         -1.12480884  *  -1.46727957  *   0.43263630  *
     7       C         -0.31951557  *  -0.56319162  *   1.32670103  *
     8       O         -1.19779735  *   0.45501523  *   1.82117530  *
     9       C         -1.27790569  *   1.49665479  *   0.83859252  *
    10       H          1.13475686  *  -1.30358920  *  -0.99427439  *
    11       H          2.32906833  *  -1.19459056  *   0.29945749  *
    12       H          2.29696633  *   0.02910065  *  -0.97991720  *
    13       H          1.30971471  *   0.89107074  *   1.17241576  *
    14       H          0.17610307  *   1.99505714  *  -0.76247607  *
    15       H         -0.38002064  *   0.10266589  *  -2.22998583  *
    16       H         -1.91385463  *   0.82384509  *  -1.73585828  *
    17       H         -2.07678975  *  -1.66518513  *  -1.46082898  *
    18       H         -1.42453801  *  -2.41956728  *   0.85040989  *
    19       H          0.08249927  *  -1.04859844  *   2.22998583  *
    20       H         -0.99275728  *   2.41956728  *   1.36503979  *
    21       H         -2.32906833  *   1.54813602  *   0.52240317  *



          CARTESIAN COORDINATES 

    NO.       ATOM           X           Y           Z

     1         C          1.6661     -0.5997     -0.3412
     2         C          0.7156      0.2397      0.4902
     3         C         -0.2986      1.1160     -0.2981
     4         C         -1.0360      0.2669     -1.3503
     5         C         -1.4709     -1.0581     -0.7933
     6         C         -1.1248     -1.4673      0.4326
     7         C         -0.3195     -0.5632      1.3267
     8         O         -1.1978      0.4550      1.8212
     9         C         -1.2779      1.4967      0.8386
    10         H          1.1348     -1.3036     -0.9943
    11         H          2.3291     -1.1946      0.2995
    12         H          2.2970      0.0291     -0.9799
    13         H          1.3097      0.8911      1.1724
    14         H          0.1761      1.9951     -0.7625
    15         H         -0.3800      0.1027     -2.2300
    16         H         -1.9139      0.8238     -1.7359
    17         H         -2.0768     -1.6652     -1.4608
    18         H         -1.4245     -2.4196      0.8504
    19         H          0.0825     -1.0486      2.2300
    20         H         -0.9928      2.4196      1.3650
    21         H         -2.3291      1.5481      0.5224

 General Reference for PM7:
 "Optimization of Parameters for Semiempirical Methods VI: More Modifications to the 
 NDDO Approximations and Re-optimization of Parameters", J. J. P. Stewart, J. Mol. Mod., 1:32, 19 (2013)
 https://link.springer.com/article/10.1007/s00894-012-1667-x

           Empirical Formula: C8 H12 O  =    21 atoms



      MOLECULAR POINT GROUP   :   C1  


      RHF CALCULATION, NO. OF DOUBLY OCCUPIED LEVELS = 25

  SCF CRITERION =    0.1000E-07

 -------------------------------------------------------------------------------
 PM7 1SCF GRADIENTS EPS=37.5 DISP RELSCF=0.0001
 Title: ASE calculation



     1SCF WAS SPECIFIED, SO BFGS WAS NOT USED                 
     SCF FIELD WAS ACHIEVED                                   


                              PM7 CALCULATION
                                                       MOPAC v23.2 Linux
                                                       Fri Sep 19 21:42:03 2025




          FINAL HEAT OF FORMATION =        -37.08440 KCAL/MOL =    -155.16114 KJ/MOL

          TOTAL ENERGY            =     -33202.52384 KCAL/MOL = ELECTRONIC ENERGY + CORE-CORE REPULSION + SOLVATION ENERGY
          ENERGY OF ATOMS         =      33167.45855 KCAL/MOL
                              SUM =        -35.06528 KCAL/MOL
          DISPERSION ENERGY       =         -2.01912 KCAL/MOL
                              SUM =        -37.08440 KCAL/MOL = FINAL HEAT OF FORMATION

          VAN DER WAALS AREA      =        157.00 SQUARE ANGSTROMS


          TOTAL ENERGY            =      -1439.79770 EV
          ELECTRONIC ENERGY       =      -2504.37203 EV 
          CORE-CORE REPULSION     =       1064.57433 EV

          DIELECTRIC ENERGY       =         -0.25040 EV
          COSMO AREA              =        157.00 SQUARE ANGSTROMS
          COSMO VOLUME            =        162.17 CUBIC ANGSTROMS

          GRADIENT NORM           =          7.74714          =       1.69056 PER ATOM
          IONIZATION POTENTIAL    =          9.857102 EV
          HOMO LUMO ENERGIES (EV) =         -9.857  0.800
          NO. OF FILLED LEVELS    =         25
          MOLECULAR WEIGHT        =        124.1822         POINT GROUP:  C1  

          MOLECULAR DIMENSIONS (Angstroms)

            Atom       Atom       Distance
            H    21    H    11     5.41022
            H    20    H    17     4.92683
            H    19    H    15     4.14143


          SCF CALCULATIONS        =          2

          WALL-CLOCK TIME         =      1.023 SECONDS
          COMPUTATION TIME        =      0.473 SECONDS

          LARGEST ATOMIC GRADIENTS

          Atom     Label                     Cartesian Gradients           Cartesian Coordinates       |Gradient|
                                           X          Y          Z        X          Y          Z

             7       C                  -2.052      3.788      1.695   -0.31952   -0.56319    1.32670      4.629
             9       C                   0.295     -2.358      1.332   -1.27791    1.49665    0.83859      2.724
             4       C                   0.366      1.052     -2.225   -1.03598    0.26688   -1.35031      2.488
             3       C                   1.075      1.458     -0.924   -0.29858    1.11602   -0.29810      2.033
             6       C                   0.475     -1.055     -1.589   -1.12481   -1.46728    0.43264      1.966
             1       C                   1.305      0.032     -1.298    1.66611   -0.59967   -0.34116      1.841
             5       C                  -0.712     -1.683      0.015   -1.47095   -1.05811   -0.79330      1.827
            17       H                   0.398      0.605      1.044   -2.07679   -1.66519   -1.46083      1.270
             2       C                   0.987     -0.166     -0.704    0.71560    0.23972    0.49018      1.224
            16       H                   0.293     -0.441      0.871   -1.91385    0.82385   -1.73586      1.019



       FINAL  POINT  AND  DERIVATIVES

   PARAMETER     ATOM    TYPE            VALUE        GRADIENT
      1          1  C    CARTESIAN X     1.666111      1.305091  KCAL/ANGSTROM
      2          1  C    CARTESIAN Y    -0.599671      0.032050  KCAL/ANGSTROM
      3          1  C    CARTESIAN Z    -0.341162     -1.298151  KCAL/ANGSTROM
      4          2  C    CARTESIAN X     0.715600      0.987270  KCAL/ANGSTROM
      5          2  C    CARTESIAN Y     0.239720     -0.166441  KCAL/ANGSTROM
      6          2  C    CARTESIAN Z     0.490182     -0.703523  KCAL/ANGSTROM
      7          3  C    CARTESIAN X    -0.298578      1.074511  KCAL/ANGSTROM
      8          3  C    CARTESIAN Y     1.116018      1.457904  KCAL/ANGSTROM
      9          3  C    CARTESIAN Z    -0.298096     -0.924290  KCAL/ANGSTROM
     10          4  C    CARTESIAN X    -1.035981      0.365876  KCAL/ANGSTROM
     11          4  C    CARTESIAN Y     0.266878      1.051764  KCAL/ANGSTROM
     12          4  C    CARTESIAN Z    -1.350311     -2.224716  KCAL/ANGSTROM
     13          5  C    CARTESIAN X    -1.470946     -0.711934  KCAL/ANGSTROM
     14          5  C    CARTESIAN Y    -1.058109     -1.682570  KCAL/ANGSTROM
     15          5  C    CARTESIAN Z    -0.793299      0.015242  KCAL/ANGSTROM
     16          6  C    CARTESIAN X    -1.124809      0.475464  KCAL/ANGSTROM
     17          6  C    CARTESIAN Y    -1.467280     -1.055218  KCAL/ANGSTROM
     18          6  C    CARTESIAN Z     0.432636     -1.589039  KCAL/ANGSTROM
     19          7  C    CARTESIAN X    -0.319516     -2.051874  KCAL/ANGSTROM
     20          7  C    CARTESIAN Y    -0.563192      3.787636  KCAL/ANGSTROM
     21          7  C    CARTESIAN Z     1.326701      1.695406  KCAL/ANGSTROM
     22          8  O    CARTESIAN X    -1.197797      0.732716  KCAL/ANGSTROM
     23          8  O    CARTESIAN Y     0.455015     -0.458034  KCAL/ANGSTROM
     24          8  O    CARTESIAN Z     1.821175     -0.540803  KCAL/ANGSTROM
     25          9  C    CARTESIAN X    -1.277906      0.294779  KCAL/ANGSTROM
     26          9  C    CARTESIAN Y     1.496655     -2.357836  KCAL/ANGSTROM
     27          9  C    CARTESIAN Z     0.838593      1.332472  KCAL/ANGSTROM
     28         10  H    CARTESIAN X     1.134757     -0.535066  KCAL/ANGSTROM
     29         10  H    CARTESIAN Y    -1.303589      0.050611  KCAL/ANGSTROM
     30         10  H    CARTESIAN Z    -0.994274      0.481954  KCAL/ANGSTROM
     31         11  H    CARTESIAN X     2.329068     -0.527010  KCAL/ANGSTROM
     32         11  H    CARTESIAN Y    -1.194591      0.143944  KCAL/ANGSTROM
     33         11  H    CARTESIAN Z     0.299457      0.029166  KCAL/ANGSTROM
     34         12  H    CARTESIAN X     2.296966     -0.085335  KCAL/ANGSTROM
     35         12  H    CARTESIAN Y     0.029101     -0.198217  KCAL/ANGSTROM
     36         12  H    CARTESIAN Z    -0.979917      0.600457  KCAL/ANGSTROM
     37         13  H    CARTESIAN X     1.309715     -0.561080  KCAL/ANGSTROM
     38         13  H    CARTESIAN Y     0.891071     -0.119974  KCAL/ANGSTROM
     39         13  H    CARTESIAN Z     1.172416     -0.015372  KCAL/ANGSTROM
     40         14  H    CARTESIAN X     0.176103     -0.298804  KCAL/ANGSTROM
     41         14  H    CARTESIAN Y     1.995057     -0.904840  KCAL/ANGSTROM
     42         14  H    CARTESIAN Z    -0.762476      0.239693  KCAL/ANGSTROM
     43         15  H    CARTESIAN X    -0.380021     -0.286602  KCAL/ANGSTROM
     44         15  H    CARTESIAN Y     0.102666      0.045856  KCAL/ANGSTROM
     45         15  H    CARTESIAN Z    -2.229986      0.800875  KCAL/ANGSTROM
     46         16  H    CARTESIAN X    -1.913855      0.292740  KCAL/ANGSTROM
     47         16  H    CARTESIAN Y     0.823845     -0.440712  KCAL/ANGSTROM
     48         16  H    CARTESIAN Z    -1.735858      0.871330  KCAL/ANGSTROM
     49         17  H    CARTESIAN X    -2.076790      0.398030  KCAL/ANGSTROM
     50         17  H    CARTESIAN Y    -1.665185      0.604989  KCAL/ANGSTROM
     51         17  H    CARTESIAN Z    -1.460829      1.043771  KCAL/ANGSTROM
     52         18  H    CARTESIAN X    -1.424538     -0.440162  KCAL/ANGSTROM
     53         18  H    CARTESIAN Y    -2.419567      0.610925  KCAL/ANGSTROM
     54         18  H    CARTESIAN Z     0.850410      0.001826  KCAL/ANGSTROM
     55         19  H    CARTESIAN X     0.082499     -0.524995  KCAL/ANGSTROM
     56         19  H    CARTESIAN Y    -1.048598      0.417559  KCAL/ANGSTROM
     57         19  H    CARTESIAN Z     2.229986     -0.301482  KCAL/ANGSTROM
     58         20  H    CARTESIAN X    -0.992757     -0.156668  KCAL/ANGSTROM
     59         20  H    CARTESIAN Y     2.419567     -0.660827  KCAL/ANGSTROM
     60         20  H    CARTESIAN Z     1.365040      0.108462  KCAL/ANGSTROM
     61         21  H    CARTESIAN X    -2.329068      0.253052  KCAL/ANGSTROM
     62         21  H    CARTESIAN Y     1.548136     -0.158573  KCAL/ANGSTROM
     63         21  H    CARTESIAN Z     0.522403      0.376719  KCAL/ANGSTROM




   ATOM   CHEMICAL          X               Y               Z
  NUMBER   SYMBOL      (ANGSTROMS)     (ANGSTROMS)     (ANGSTROMS)

     1       C          1.66611089  *  -0.59967061  *  -0.34116218  *
     2       C          0.71560014  *   0.23972045  *   0.49018214  *
     3       C         -0.29857754  *   1.11601773  *  -0.29809594  *
     4       C         -1.03598124  *   0.26687794  *  -1.35031058  *
     5       C         -1.47094585  *  -1.05810899  *  -0.79329871  *
     6       C         -1.12480884  *  -1.46727957  *   0.43263630  *
     7       C         -0.31951557  *  -0.56319162  *   1.32670103  *
     8       O         -1.19779735  *   0.45501523  *   1.82117530  *
     9       C         -1.27790569  *   1.49665479  *   0.83859252  *
    10       H          1.13475686  *  -1.30358920  *  -0.99427439  *
    11       H          2.32906833  *  -1.19459056  *   0.29945749  *
    12       H          2.29696633  *   0.02910065  *  -0.97991720  *
    13       H          1.30971471  *   0.89107074  *   1.17241576  *
    14       H          0.17610307  *   1.99505714  *  -0.76247607  *
    15       H         -0.38002064  *   0.10266589  *  -2.22998583  *
    16       H         -1.91385463  *   0.82384509  *  -1.73585828  *
    17       H         -2.07678975  *  -1.66518513  *  -1.46082898  *
    18       H         -1.42453801  *  -2.41956728  *   0.85040989  *
    19       H          0.08249927  *  -1.04859844  *   2.22998583  *
    20       H         -0.99275728  *   2.41956728  *   1.36503979  *
    21       H         -2.32906833  *   1.54813602  *   0.52240317  *

                             CARTESIAN COORDINATES

   1    C        1.666110895    -0.599670614    -0.341162178
   2    C        0.715600140     0.239720447     0.490182138
   3    C       -0.298577539     1.116017726    -0.298095945
   4    C       -1.035981243     0.266877944    -1.350310578
   5    C       -1.470945853    -1.058108993    -0.793298707
   6    C       -1.124808837    -1.467279568     0.432636296
   7    C       -0.319515574    -0.563191617     1.326701034
   8    O       -1.197797350     0.455015231     1.821175298
   9    C       -1.277905694     1.496654790     0.838592524
  10    H        1.134756863    -1.303589201    -0.994274390
  11    H        2.329068335    -1.194590565     0.299457490
  12    H        2.296966332     0.029100647    -0.979917198
  13    H        1.309714715     0.891070736     1.172415760
  14    H        0.176103073     1.995057137    -0.762476070
  15    H       -0.380020643     0.102665895    -2.229985828
  16    H       -1.913854634     0.823845087    -1.735858278
  17    H       -2.076789749    -1.665185134    -1.460828979
  18    H       -1.424538010    -2.419567283     0.850409887
  19    H        0.082499274    -1.048598437     2.229985828
  20    H       -0.992757280     2.419567283     1.365039795
  21    H       -2.329068335     1.548136016     0.522403175


           Empirical Formula: C8 H12 O  =    21 atoms



      MOLECULAR POINT GROUP   :   C1  


                  EIGENVALUES  
 -31.71075 -28.18750 -26.51439 -26.40802 -23.85369 -22.98826 -20.48149 -19.79443
 -18.06671 -17.48496 -15.86627 -15.32784 -14.85669 -14.65218 -14.03261 -13.72636
 -13.61461 -13.24468 -12.71246 -12.05606 -11.85237 -11.31868 -11.14521 -10.14251
  -9.85710   0.79973   2.39109   3.33005   3.72986   3.84680   4.20689   4.38750
   4.53366   4.64331   4.90072   5.58005   5.61911   5.72854   5.82446   5.86305
   5.96614   6.07213   6.12222   6.18137   6.19178   6.29419   6.51856   7.05020


              NET ATOMIC CHARGES AND DIPOLE CONTRIBUTIONS

  ATOM NO.   TYPE          CHARGE      No. of ELECS.   s-Pop       p-Pop       
    1          C          -0.455040        4.4550     1.05174     3.40330
    2          C          -0.137756        4.1378     1.07321     3.06455
    3          C          -0.144002        4.1440     1.07786     3.06614
    4          C          -0.297308        4.2973     1.05980     3.23751
    5          C          -0.104426        4.1044     1.09738     3.00705
    6          C          -0.252360        4.2524     1.09568     3.15668
    7          C           0.123121        3.8769     1.09451     2.78237
    8          O          -0.488596        6.4886     1.88442     4.60418
    9          C          -0.042527        4.0425     1.09872     2.94381
   10          H           0.158354        0.8416     0.84165
   11          H           0.151885        0.8481     0.84812
   12          H           0.152914        0.8471     0.84709
   13          H           0.146628        0.8534     0.85337
   14          H           0.150292        0.8497     0.84971
   15          H           0.161943        0.8381     0.83806
   16          H           0.159101        0.8409     0.84090
   17          H           0.148206        0.8518     0.85179
   18          H           0.155111        0.8449     0.84489
   19          H           0.142857        0.8571     0.85714
   20          H           0.134044        0.8660     0.86596
   21          H           0.137559        0.8624     0.86244
 DIPOLE           X         Y         Z       TOTAL
 POINT-CHG.     1.435     0.410    -2.927     3.285
 HYBRID        -0.192    -0.032     0.079     0.210
 SUM            1.243     0.378    -2.848     3.130


          ATOMIC ORBITAL ELECTRON POPULATIONS

     Atom    s        px        py        pz   
    1  C   1.05174   1.12178   1.13930   1.14222
    2  C   1.07321   1.00098   1.02895   1.03462
    3  C   1.07786   1.00796   1.05608   1.00210
    4  C   1.05980   1.12916   1.03107   1.07728
    5  C   1.09738   0.98757   1.00472   1.01475
    6  C   1.09568   1.05788   1.07712   1.02169
    7  C   1.09451   0.89649   0.87730   1.00858
    8  O   1.88442   1.72674   1.39931   1.47812
    9  C   1.09872   1.08904   0.92851   0.92626
   10  H   0.84165
   11  H   0.84812
   12  H   0.84709
   13  H   0.85337
   14  H   0.84971
   15  H   0.83806
   16  H   0.84090
   17  H   0.85179
   18  H   0.84489
   19  H   0.85714
   20  H   0.86596
   21  H   0.86244

 **********************
 *                    *
 * JOB ENDED NORMALLY *
 *                    *
 **********************



 TOTAL JOB TIME:             1.43 SECONDS

 == MOPAC DONE ==
