 *******************************************************************************
 **                                                                           **
 **                              MOPAC v23.2                                  **
 **                                                                           **
 *******************************************************************************
 **          Digital Object Identifier (DOI): 10.5281/zenodo.6511958          **
 **    Visit the DOI location for information on how to cite this program.    **
 *******************************************************************************

                              PM7 CALCULATION RESULTS

 *******************************************************************************
 *  CALCULATION DONE: (MAX THREADS = 40)             Fri Sep 19 21:39:09 2025  *
 *  PM7        - The PM7 Hamiltonian to be used
 *
 *
 *
 *                 CHARGE ON SYSTEM = +1
 *
 *
 *
 *  1SCF       - DO 1 SCF AND THEN STOP 
 *  T=         - A TIME OF 172800.0 SECONDS REQUESTED
 *  DUMP=N     - RESTART FILE WRITTEN EVERY 7200.0 SECONDS REQUESTED
 *  RELSCF     - DEFAULT SCF CRITERION MULTIPLIED BY 0.0001
 *              (DEFAULT SCF CRITERION = 0.00010)
 *  GRADIENTS  - ALL GRADIENTS TO BE PRINTED
 *  DISP       - PRINT DISPERSION AND HYDROGEN BOND ENERGIES
 *******************************************************************************
PM7 1SCF GRADIENTS DISP RELSCF=0.0001 CHARGE=1
 Title: ASE calculation

   ATOM   CHEMICAL          X               Y               Z
  NUMBER   SYMBOL      (ANGSTROMS)     (ANGSTROMS)     (ANGSTROMS)

     1       C          2.62562567  *  -0.02573583  *   1.11370996  *
     2       O          1.24248222  *  -0.16520667  *   0.82293350  *
     3       C          0.77511441  *   0.73282222  *  -0.16492694  *
     4       C         -0.47644521  *   0.06013715  *  -0.69136942  *
     5       C         -0.23555365  *  -1.42408110  *  -1.08902408  *
     6       O         -1.03345971  *  -1.93582226  *  -1.81265537  *
     7       C         -1.59222164  *   0.82733131  *  -1.45011818  *
     8       N         -1.74939503  *   0.36150643  *  -0.11637583  *
     9       C         -2.56492082  *   0.30278088  *   1.01727757  *
    10       H          2.84083938  *   0.96486036  *   1.52774072  *
    11       H          3.24091910  *  -0.23424456  *   0.23261117  *
    12       H          2.78038525  *  -0.80043028  *   1.88226841  *
    13       H          1.51289952  *   0.87300054  *  -0.98470762  *
    14       H          0.58368771  *   1.71455277  *   0.31184210  *
    15       H          0.66673964  *  -1.88459674  *  -0.66884192  *
    16       H         -2.13900662  *   0.30827101  *  -2.26999128  *
    17       H         -1.53569499  *   1.90927215  *  -1.65668030  *
    18       H         -3.45537874  *  -0.36632102  *   0.83906518  *
    19       H         -2.02129537  *  -0.09423625  *   1.91005040  *
    20       H         -2.99363419  *   1.30568066  *   1.27928215  *



          CARTESIAN COORDINATES 

    NO.       ATOM           X           Y           Z

     1         C          2.6256     -0.0257      1.1137
     2         O          1.2425     -0.1652      0.8229
     3         C          0.7751      0.7328     -0.1649
     4         C         -0.4764      0.0601     -0.6914
     5         C         -0.2356     -1.4241     -1.0890
     6         O         -1.0335     -1.9358     -1.8127
     7         C         -1.5922      0.8273     -1.4501
     8         N         -1.7494      0.3615     -0.1164
     9         C         -2.5649      0.3028      1.0173
    10         H          2.8408      0.9649      1.5277
    11         H          3.2409     -0.2342      0.2326
    12         H          2.7804     -0.8004      1.8823
    13         H          1.5129      0.8730     -0.9847
    14         H          0.5837      1.7146      0.3118
    15         H          0.6667     -1.8846     -0.6688
    16         H         -2.1390      0.3083     -2.2700
    17         H         -1.5357      1.9093     -1.6567
    18         H         -3.4554     -0.3663      0.8391
    19         H         -2.0213     -0.0942      1.9101
    20         H         -2.9936      1.3057      1.2793

 General Reference for PM7:
 "Optimization of Parameters for Semiempirical Methods VI: More Modifications to the 
 NDDO Approximations and Re-optimization of Parameters", J. J. P. Stewart, J. Mol. Mod., 1:32, 19 (2013)
 https://link.springer.com/article/10.1007/s00894-012-1667-x

           Empirical Formula: C6 H11 N O2  =    20 atoms



      MOLECULAR POINT GROUP   :   C1  


          UHF CALCULATION, NO. OF ALPHA ELECTRONS =   26
                           NO. OF BETA  ELECTRONS =   25
  SCF CRITERION =    0.1000E-07

 -------------------------------------------------------------------------------
 PM7 1SCF GRADIENTS DISP RELSCF=0.0001 CHARGE=1
 Title: ASE calculation



     1SCF WAS SPECIFIED, SO BFGS WAS NOT USED                 
     SCF FIELD WAS ACHIEVED                                   


                              PM7 CALCULATION
                                                       MOPAC v23.2 Linux
                                                       Fri Sep 19 21:39:10 2025




          FINAL HEAT OF FORMATION =        154.89114 KCAL/MOL =     648.06452 KJ/MOL

          TOTAL ENERGY            =     -38096.69723 KCAL/MOL = ELECTRONIC ENERGY + CORE-CORE REPULSION
          ENERGY OF ATOMS         =      38253.74801 KCAL/MOL
                              SUM =        157.05078 KCAL/MOL
          DISPERSION ENERGY       =         -2.15964 KCAL/MOL
                              SUM =        154.89114 KCAL/MOL = FINAL HEAT OF FORMATION



          TOTAL ENERGY            =      -1652.02915 EV
          ELECTRONIC ENERGY       =      -7894.76064 EV 
          CORE-CORE REPULSION     =       6242.73149 EV
          COSMO AREA              =        172.85 SQUARE ANGSTROMS
          COSMO VOLUME            =        171.82 CUBIC ANGSTROMS

          GRADIENT NORM           =          1.22037          =       0.27288 PER ATOM
          IONIZATION POTENTIAL    =         14.209059 EV
          ALPHA SOMO LUMO (EV)    =        -14.209 -5.037
          BETA  SOMO LUMO (EV)    =        -14.216 -6.522
          NO. OF ALPHA ELECTRONS  =         26
          NO. OF BETA  ELECTRONS  =         25
          MOLECULAR WEIGHT        =        129.1584         POINT GROUP:  C1  

          MOLECULAR DIMENSIONS (Angstroms)

            Atom       Atom       Distance
            H    18    H    11     6.72500
            H    12    H    17     4.80491
            O     6    H    10     4.43796


          SCF CALCULATIONS        =          1

          WALL-CLOCK TIME         =      0.766 SECONDS
          COMPUTATION TIME        =      0.446 SECONDS

          LARGEST ATOMIC GRADIENTS

          Atom     Label                     Cartesian Gradients           Cartesian Coordinates       |Gradient|
                                           X          Y          Z        X          Y          Z

             9       C                   0.312      0.215     -0.238   -2.56492    0.30278    1.01728      0.447
            15       H                  -0.106      0.277      0.281    0.66674   -1.88460   -0.66884      0.408
             5       C                   0.170     -0.329      0.060   -0.23555   -1.42408   -1.08902      0.375
             2       O                   0.219      0.227     -0.146    1.24248   -0.16521    0.82293      0.348
             8       N                  -0.300     -0.095     -0.115   -1.74940    0.36151   -0.11638      0.335
             4       C                  -0.041     -0.106      0.280   -0.47645    0.06014   -0.69137      0.302
            17       H                  -0.154      0.167     -0.189   -1.53569    1.90927   -1.65668      0.295
             7       C                  -0.177      0.200     -0.022   -1.59222    0.82733   -1.45012      0.268
            13       H                  -0.134     -0.174      0.153    1.51290    0.87300   -0.98471      0.267
             3       C                  -0.098      0.212      0.115    0.77511    0.73282   -0.16493      0.260



       FINAL  POINT  AND  DERIVATIVES

   PARAMETER     ATOM    TYPE            VALUE        GRADIENT
      1          1  C    CARTESIAN X     2.625626      0.114222  KCAL/ANGSTROM
      2          1  C    CARTESIAN Y    -0.025736      0.013297  KCAL/ANGSTROM
      3          1  C    CARTESIAN Z     1.113710     -0.033429  KCAL/ANGSTROM
      4          2  O    CARTESIAN X     1.242482      0.219471  KCAL/ANGSTROM
      5          2  O    CARTESIAN Y    -0.165207      0.226854  KCAL/ANGSTROM
      6          2  O    CARTESIAN Z     0.822933     -0.145651  KCAL/ANGSTROM
      7          3  C    CARTESIAN X     0.775114     -0.098022  KCAL/ANGSTROM
      8          3  C    CARTESIAN Y     0.732822      0.212148  KCAL/ANGSTROM
      9          3  C    CARTESIAN Z    -0.164927      0.115036  KCAL/ANGSTROM
     10          4  C    CARTESIAN X    -0.476445     -0.041493  KCAL/ANGSTROM
     11          4  C    CARTESIAN Y     0.060137     -0.105834  KCAL/ANGSTROM
     12          4  C    CARTESIAN Z    -0.691369      0.279631  KCAL/ANGSTROM
     13          5  C    CARTESIAN X    -0.235554      0.169854  KCAL/ANGSTROM
     14          5  C    CARTESIAN Y    -1.424081     -0.328524  KCAL/ANGSTROM
     15          5  C    CARTESIAN Z    -1.089024      0.059649  KCAL/ANGSTROM
     16          6  O    CARTESIAN X    -1.033460      0.207300  KCAL/ANGSTROM
     17          6  O    CARTESIAN Y    -1.935822     -0.012318  KCAL/ANGSTROM
     18          6  O    CARTESIAN Z    -1.812655     -0.081219  KCAL/ANGSTROM
     19          7  C    CARTESIAN X    -1.592222     -0.177117  KCAL/ANGSTROM
     20          7  C    CARTESIAN Y     0.827331      0.200291  KCAL/ANGSTROM
     21          7  C    CARTESIAN Z    -1.450118     -0.022007  KCAL/ANGSTROM
     22          8  N    CARTESIAN X    -1.749395     -0.299742  KCAL/ANGSTROM
     23          8  N    CARTESIAN Y     0.361506     -0.095254  KCAL/ANGSTROM
     24          8  N    CARTESIAN Z    -0.116376     -0.114802  KCAL/ANGSTROM
     25          9  C    CARTESIAN X    -2.564921      0.311926  KCAL/ANGSTROM
     26          9  C    CARTESIAN Y     0.302781      0.214711  KCAL/ANGSTROM
     27          9  C    CARTESIAN Z     1.017278     -0.237918  KCAL/ANGSTROM
     28         10  H    CARTESIAN X     2.840839     -0.045195  KCAL/ANGSTROM
     29         10  H    CARTESIAN Y     0.964860     -0.139958  KCAL/ANGSTROM
     30         10  H    CARTESIAN Z     1.527741     -0.070500  KCAL/ANGSTROM
     31         11  H    CARTESIAN X     3.240919     -0.136597  KCAL/ANGSTROM
     32         11  H    CARTESIAN Y    -0.234245     -0.028321  KCAL/ANGSTROM
     33         11  H    CARTESIAN Z     0.232611      0.088816  KCAL/ANGSTROM
     34         12  H    CARTESIAN X     2.780385      0.064061  KCAL/ANGSTROM
     35         12  H    CARTESIAN Y    -0.800430     -0.106174  KCAL/ANGSTROM
     36         12  H    CARTESIAN Z     1.882268     -0.209349  KCAL/ANGSTROM
     37         13  H    CARTESIAN X     1.512900     -0.133787  KCAL/ANGSTROM
     38         13  H    CARTESIAN Y     0.873001     -0.173635  KCAL/ANGSTROM
     39         13  H    CARTESIAN Z    -0.984708      0.152614  KCAL/ANGSTROM
     40         14  H    CARTESIAN X     0.583688      0.084974  KCAL/ANGSTROM
     41         14  H    CARTESIAN Y     1.714553     -0.117810  KCAL/ANGSTROM
     42         14  H    CARTESIAN Z     0.311842      0.188678  KCAL/ANGSTROM
     43         15  H    CARTESIAN X     0.666740     -0.106198  KCAL/ANGSTROM
     44         15  H    CARTESIAN Y    -1.884597      0.276815  KCAL/ANGSTROM
     45         15  H    CARTESIAN Z    -0.668842      0.280616  KCAL/ANGSTROM
     46         16  H    CARTESIAN X    -2.139007     -0.011146  KCAL/ANGSTROM
     47         16  H    CARTESIAN Y     0.308271     -0.096568  KCAL/ANGSTROM
     48         16  H    CARTESIAN Z    -2.269991      0.108703  KCAL/ANGSTROM
     49         17  H    CARTESIAN X    -1.535695     -0.153814  KCAL/ANGSTROM
     50         17  H    CARTESIAN Y     1.909272      0.166868  KCAL/ANGSTROM
     51         17  H    CARTESIAN Z    -1.656680     -0.188577  KCAL/ANGSTROM
     52         18  H    CARTESIAN X    -3.455379     -0.166930  KCAL/ANGSTROM
     53         18  H    CARTESIAN Y    -0.366321      0.010842  KCAL/ANGSTROM
     54         18  H    CARTESIAN Z     0.839065     -0.017181  KCAL/ANGSTROM
     55         19  H    CARTESIAN X    -2.021295      0.044270  KCAL/ANGSTROM
     56         19  H    CARTESIAN Y    -0.094236     -0.065040  KCAL/ANGSTROM
     57         19  H    CARTESIAN Z     1.910050     -0.203453  KCAL/ANGSTROM
     58         20  H    CARTESIAN X    -2.993634      0.153959  KCAL/ANGSTROM
     59         20  H    CARTESIAN Y     1.305681     -0.052394  KCAL/ANGSTROM
     60         20  H    CARTESIAN Z     1.279282      0.050340  KCAL/ANGSTROM




   ATOM   CHEMICAL          X               Y               Z
  NUMBER   SYMBOL      (ANGSTROMS)     (ANGSTROMS)     (ANGSTROMS)

     1       C          2.62562567  *  -0.02573583  *   1.11370996  *
     2       O          1.24248222  *  -0.16520667  *   0.82293350  *
     3       C          0.77511441  *   0.73282222  *  -0.16492694  *
     4       C         -0.47644521  *   0.06013715  *  -0.69136942  *
     5       C         -0.23555365  *  -1.42408110  *  -1.08902408  *
     6       O         -1.03345971  *  -1.93582226  *  -1.81265537  *
     7       C         -1.59222164  *   0.82733131  *  -1.45011818  *
     8       N         -1.74939503  *   0.36150643  *  -0.11637583  *
     9       C         -2.56492082  *   0.30278088  *   1.01727757  *
    10       H          2.84083938  *   0.96486036  *   1.52774072  *
    11       H          3.24091910  *  -0.23424456  *   0.23261117  *
    12       H          2.78038525  *  -0.80043028  *   1.88226841  *
    13       H          1.51289952  *   0.87300054  *  -0.98470762  *
    14       H          0.58368771  *   1.71455277  *   0.31184210  *
    15       H          0.66673964  *  -1.88459674  *  -0.66884192  *
    16       H         -2.13900662  *   0.30827101  *  -2.26999128  *
    17       H         -1.53569499  *   1.90927215  *  -1.65668030  *
    18       H         -3.45537874  *  -0.36632102  *   0.83906518  *
    19       H         -2.02129537  *  -0.09423625  *   1.91005040  *
    20       H         -2.99363419  *   1.30568066  *   1.27928215  *

                             CARTESIAN COORDINATES

   1    C        2.625625671    -0.025735831     1.113709959
   2    O        1.242482219    -0.165206673     0.822933496
   3    C        0.775114405     0.732822219    -0.164926941
   4    C       -0.476445214     0.060137153    -0.691369423
   5    C       -0.235553646    -1.424081102    -1.089024078
   6    O       -1.033459713    -1.935822264    -1.812655373
   7    C       -1.592221640     0.827331312    -1.450118179
   8    N       -1.749395034     0.361506434    -0.116375833
   9    C       -2.564920818     0.302780882     1.017277567
  10    H        2.840839379     0.964860362     1.527740724
  11    H        3.240919100    -0.234244564     0.232611175
  12    H        2.780385255    -0.800430277     1.882268409
  13    H        1.512899516     0.873000539    -0.984707617
  14    H        0.583687708     1.714552769     0.311842100
  15    H        0.666739635    -1.884596740    -0.668841919
  16    H       -2.139006618     0.308271010    -2.269991277
  17    H       -1.535694993     1.909272153    -1.656680300
  18    H       -3.455378736    -0.366321025     0.839065179
  19    H       -2.021295374    -0.094236250     1.910050398
  20    H       -2.993634193     1.305680665     1.279282147


           Empirical Formula: C6 H11 N O2  =    20 atoms



      MOLECULAR POINT GROUP   :   C1  


          ALPHA EIGENVALUES  
 -44.05712 -36.18845 -34.16412 -33.28176 -30.30635 -27.80747 -27.53855 -27.14064
 -24.71897 -23.14635 -22.26486 -21.52829 -20.86653 -20.49301 -20.02292 -19.30634
 -18.94607 -18.69483 -18.21876 -17.79058 -17.28304 -17.11695 -16.36692 -16.13048
 -14.84209 -14.20906  -5.03742  -4.13118  -3.22076  -2.34366  -1.99807  -1.66711
  -1.49360  -0.72812  -0.22060   0.00254   0.06504   0.18563   0.38440   0.55535
   0.76372   0.91789   0.97117   1.24641   2.15248   2.19554   2.80896


           BETA EIGENVALUES 
 -42.54300 -36.09340 -34.09405 -33.01681 -30.22337 -27.72506 -27.39934 -26.85588
 -24.43845 -22.37912 -21.97128 -21.33620 -20.83629 -20.17320 -19.82177 -19.02464
 -18.92127 -18.63023 -18.09515 -17.74698 -17.22014 -16.97725 -16.12031 -14.93696
 -14.21617  -6.52222  -4.51511  -3.89270  -3.18481  -2.16599  -1.86875  -1.66250
  -1.42741  -0.20731  -0.08271   0.14225   0.14598   0.21299   0.43799   0.56643
   0.84022   0.93421   1.00046   1.24582   2.15283   2.19602   2.80924


              NET ATOMIC CHARGES AND DIPOLE CONTRIBUTIONS

  ATOM NO.   TYPE          CHARGE      No. of ELECS.   s-Pop       p-Pop       
    1          C          -0.182928        4.1829     1.08932     3.09361
    2          O          -0.401292        6.4013     1.87978     4.52151
    3          C          -0.056899        4.0569     1.09000     2.96690
    4          C          -0.056696        4.0567     1.12470     2.93199
    5          C           0.348033        3.6520     1.16752     2.48445
    6          O          -0.311780        6.3118     1.87699     4.43479
    7          C          -0.165561        4.1656     1.10024     3.06532
    8          N          -0.011383        5.0114     1.53610     3.47528
    9          C          -0.273303        4.2733     1.06908     3.20422
   10          H           0.142220        0.8578     0.85778
   11          H           0.139559        0.8604     0.86044
   12          H           0.171644        0.8284     0.82836
   13          H           0.170658        0.8293     0.82934
   14          H           0.155198        0.8448     0.84480
   15          H           0.193111        0.8069     0.80689
   16          H           0.242287        0.7577     0.75771
   17          H           0.221114        0.7789     0.77889
   18          H           0.235556        0.7644     0.76444
   19          H           0.216678        0.7833     0.78332
   20          H           0.223784        0.7762     0.77622
 DIPOLE           X         Y         Z       TOTAL
 POINT-CHG.    -2.091     3.645     0.978     4.314
 HYBRID        -0.812     0.147     0.121     0.834
 SUM           -2.903     3.791     1.100     4.900


          ATOMIC ORBITAL ELECTRON POPULATIONS

     Atom    s        px        py        pz   
    1  C   1.08932   0.79052   1.16813   1.13496
    2  O   1.87978   1.33556   1.59124   1.59471
    3  C   1.09000   0.96382   0.99894   1.00414
    4  C   1.12470   0.87060   1.09962   0.96177
    5  C   1.16752   0.90257   0.82361   0.75827
    6  O   1.87699   1.45383   1.68729   1.29367
    7  C   1.10024   1.02485   1.15582   0.88466
    8  N   1.53610   1.16762   1.18887   1.11879
    9  C   1.06908   1.06478   1.20684   0.93260
   10  H   0.85778
   11  H   0.86044
   12  H   0.82836
   13  H   0.82934
   14  H   0.84480
   15  H   0.80689
   16  H   0.75771
   17  H   0.77889
   18  H   0.76444
   19  H   0.78332
   20  H   0.77622


                    (SZ)    =    0.500000
                    (S**2)  =    0.764082


          ATOMIC ORBITAL SPIN POPULATIONS

    Atom   Total    s     px     py     pz   
         Atomic
    1  C  0.0013  0.000  0.001  0.000  0.000
    2  O -0.0006  0.000 -0.000  0.000 -0.001
    3  C  0.0302  0.003  0.019  0.006  0.002
    4  C -0.0761 -0.007 -0.025 -0.005 -0.040
    5  C  0.0258  0.001  0.002  0.021  0.002
    6  O  0.0215  0.001  0.001  0.023 -0.002
    7  C -0.0575 -0.005 -0.013  0.000 -0.040
    8  N  0.9388  0.047  0.157  0.611  0.124
    9  C -0.0360 -0.006 -0.019  0.007 -0.019
   10  H -0.0000 -0.000
   11  H -0.0000 -0.000
   12  H -0.0000 -0.000
   13  H -0.0019 -0.002
   14  H -0.0014 -0.001
   15  H  0.0065  0.007
   16  H  0.0284  0.028
   17  H  0.0261  0.026
   18  H  0.0530  0.053
   19  H  0.0039  0.004
   20  H  0.0379  0.038

 **********************
 *                    *
 * JOB ENDED NORMALLY *
 *                    *
 **********************



 TOTAL JOB TIME:             0.94 SECONDS

 == MOPAC DONE ==
