 *******************************************************************************
 **                                                                           **
 **                              MOPAC v23.2                                  **
 **                                                                           **
 *******************************************************************************
 **          Digital Object Identifier (DOI): 10.5281/zenodo.6511958          **
 **    Visit the DOI location for information on how to cite this program.    **
 *******************************************************************************

                              PM7 CALCULATION RESULTS

 *******************************************************************************
 *  CALCULATION DONE: (MAX THREADS = 40)             Fri Sep 19 22:04:09 2025  *
 *  PM7        - The PM7 Hamiltonian to be used
 *  1SCF       - DO 1 SCF AND THEN STOP 
 *  T=         - A TIME OF 172800.0 SECONDS REQUESTED
 *  DUMP=N     - RESTART FILE WRITTEN EVERY 7200.0 SECONDS REQUESTED
 *  RELSCF     - DEFAULT SCF CRITERION MULTIPLIED BY 0.0001
 *              (DEFAULT SCF CRITERION = 0.00010)
 *  GRADIENTS  - ALL GRADIENTS TO BE PRINTED
 *  DISP       - PRINT DISPERSION AND HYDROGEN BOND ENERGIES
 *******************************************************************************
PM7 1SCF GRADIENTS DISP RELSCF=0.0001
 Title: ASE calculation

   ATOM   CHEMICAL          X               Y               Z
  NUMBER   SYMBOL      (ANGSTROMS)     (ANGSTROMS)     (ANGSTROMS)

     1       C          2.24283653  *  -1.04175391  *   0.56194486  *
     2       C          1.21762810  *  -0.09817945  *   1.19262642  *
     3       C          0.10455175  *   0.21744931  *   0.22290866  *
     4       C         -1.22663142  *   0.72096778  *   0.73701821  *
     5       C         -1.94957729  *   1.83165858  *   0.02717854  *
     6       C         -1.13316186  *  -0.67553418  *   0.12175271  *
     7       C         -1.30073342  *  -1.87971908  *   1.00407538  *
     8       C         -1.71103175  *  -0.87818098  *  -1.24137722  *
     9       O         -2.48397509  *  -1.77138342  *  -1.48609113  *
    10       H          2.75994427  *  -0.57250113  *  -0.28236584  *
    11       H          3.00460893  *  -1.34216973  *   1.29034893  *
    12       H          1.76262979  *  -1.95559144  *   0.19004681  *
    13       H          0.82066539  *  -0.54691630  *   2.12464412  *
    14       H          1.70901918  *   0.84625958  *   1.50477982  *
    15       H          0.48772062  *   0.64580135  *  -0.71215252  *
    16       H         -1.37403048  *   0.76277159  *   1.82491336  *
    17       H         -1.73421777  *   2.80282200  *   0.49496831  *
    18       H         -1.67121600  *   1.92199844  *  -1.02892978  *
    19       H         -3.03876381  *   1.68358327  *   0.06965509  *
    20       H         -1.01070193  *  -1.69231550  *   2.04358005  *
    21       H         -2.34981243  *  -2.21849640  *   1.00825841  *
    22       H         -0.69849812  *  -2.72347438  *   0.63907129  *
    23       H         -1.40533766  *  -0.17890328  *  -2.03086858  *



          CARTESIAN COORDINATES 

    NO.       ATOM           X           Y           Z

     1         C          2.2428     -1.0418      0.5619
     2         C          1.2176     -0.0982      1.1926
     3         C          0.1046      0.2174      0.2229
     4         C         -1.2266      0.7210      0.7370
     5         C         -1.9496      1.8317      0.0272
     6         C         -1.1332     -0.6755      0.1218
     7         C         -1.3007     -1.8797      1.0041
     8         C         -1.7110     -0.8782     -1.2414
     9         O         -2.4840     -1.7714     -1.4861
    10         H          2.7599     -0.5725     -0.2824
    11         H          3.0046     -1.3422      1.2903
    12         H          1.7626     -1.9556      0.1900
    13         H          0.8207     -0.5469      2.1246
    14         H          1.7090      0.8463      1.5048
    15         H          0.4877      0.6458     -0.7122
    16         H         -1.3740      0.7628      1.8249
    17         H         -1.7342      2.8028      0.4950
    18         H         -1.6712      1.9220     -1.0289
    19         H         -3.0388      1.6836      0.0697
    20         H         -1.0107     -1.6923      2.0436
    21         H         -2.3498     -2.2185      1.0083
    22         H         -0.6985     -2.7235      0.6391
    23         H         -1.4053     -0.1789     -2.0309

 General Reference for PM7:
 "Optimization of Parameters for Semiempirical Methods VI: More Modifications to the 
 NDDO Approximations and Re-optimization of Parameters", J. J. P. Stewart, J. Mol. Mod., 1:32, 19 (2013)
 https://link.springer.com/article/10.1007/s00894-012-1667-x

           Empirical Formula: C8 H14 O  =    23 atoms



      MOLECULAR POINT GROUP   :   C1  


      RHF CALCULATION, NO. OF DOUBLY OCCUPIED LEVELS = 26

  SCF CRITERION =    0.1000E-07

 -------------------------------------------------------------------------------
 PM7 1SCF GRADIENTS DISP RELSCF=0.0001
 Title: ASE calculation



     1SCF WAS SPECIFIED, SO BFGS WAS NOT USED                 
     SCF FIELD WAS ACHIEVED                                   


                              PM7 CALCULATION
                                                       MOPAC v23.2 Linux
                                                       Fri Sep 19 22:04:09 2025




          FINAL HEAT OF FORMATION =        -39.56257 KCAL/MOL =    -165.52980 KJ/MOL

          TOTAL ENERGY            =     -33819.22148 KCAL/MOL = ELECTRONIC ENERGY + CORE-CORE REPULSION
          ENERGY OF ATOMS         =      33782.22825 KCAL/MOL
                              SUM =        -36.99324 KCAL/MOL
          DISPERSION ENERGY       =         -2.56934 KCAL/MOL
                              SUM =        -39.56257 KCAL/MOL = FINAL HEAT OF FORMATION



          TOTAL ENERGY            =      -1466.54025 EV
          ELECTRONIC ENERGY       =      -7692.87244 EV 
          CORE-CORE REPULSION     =       6226.33219 EV
          COSMO AREA              =        176.45 SQUARE ANGSTROMS
          COSMO VOLUME            =        181.50 CUBIC ANGSTROMS

          GRADIENT NORM           =          1.11764          =       0.23304 PER ATOM
          IONIZATION POTENTIAL    =          9.987516 EV
          HOMO LUMO ENERGIES (EV) =         -9.988  0.627
          NO. OF FILLED LEVELS    =         26
          MOLECULAR WEIGHT        =        126.1980         POINT GROUP:  C1  

          MOLECULAR DIMENSIONS (Angstroms)

            Atom       Atom       Distance
            H    19    H    11     6.86787
            H    17    O     9     4.93997
            H    20    H    23     3.95084


          SCF CALCULATIONS        =          1

          WALL-CLOCK TIME         =      0.461 SECONDS
          COMPUTATION TIME        =      0.700 SECONDS

          LARGEST ATOMIC GRADIENTS

          Atom     Label                     Cartesian Gradients           Cartesian Coordinates       |Gradient|
                                           X          Y          Z        X          Y          Z

             9       O                  -0.399     -0.145     -0.093   -2.48398   -1.77138   -1.48609      0.434
            10       H                   0.410      0.099     -0.044    2.75994   -0.57250   -0.28237      0.424
             8       C                   0.314      0.216     -0.106   -1.71103   -0.87818   -1.24138      0.396
            11       H                   0.018     -0.055      0.304    3.00461   -1.34217    1.29035      0.309
            22       H                  -0.141      0.205      0.040   -0.69850   -2.72347    0.63907      0.253
             1       C                   0.217     -0.089     -0.057    2.24284   -1.04175    0.56194      0.241
            20       H                   0.221     -0.011     -0.071   -1.01070   -1.69232    2.04358      0.233
            14       H                  -0.182      0.112     -0.082    1.70902    0.84626    1.50478      0.229
            12       H                  -0.113     -0.180      0.017    1.76263   -1.95559    0.19005      0.213
            13       H                  -0.083     -0.155     -0.105    0.82067   -0.54692    2.12464      0.205



       FINAL  POINT  AND  DERIVATIVES

   PARAMETER     ATOM    TYPE            VALUE        GRADIENT
      1          1  C    CARTESIAN X     2.242837      0.216566  KCAL/ANGSTROM
      2          1  C    CARTESIAN Y    -1.041754     -0.088893  KCAL/ANGSTROM
      3          1  C    CARTESIAN Z     0.561945     -0.056834  KCAL/ANGSTROM
      4          2  C    CARTESIAN X     1.217628      0.169693  KCAL/ANGSTROM
      5          2  C    CARTESIAN Y    -0.098179     -0.064397  KCAL/ANGSTROM
      6          2  C    CARTESIAN Z     1.192626     -0.001915  KCAL/ANGSTROM
      7          3  C    CARTESIAN X     0.104552      0.120618  KCAL/ANGSTROM
      8          3  C    CARTESIAN Y     0.217449      0.040424  KCAL/ANGSTROM
      9          3  C    CARTESIAN Z     0.222909      0.047405  KCAL/ANGSTROM
     10          4  C    CARTESIAN X    -1.226631      0.181093  KCAL/ANGSTROM
     11          4  C    CARTESIAN Y     0.720968      0.026188  KCAL/ANGSTROM
     12          4  C    CARTESIAN Z     0.737018      0.047986  KCAL/ANGSTROM
     13          5  C    CARTESIAN X    -1.949577     -0.058772  KCAL/ANGSTROM
     14          5  C    CARTESIAN Y     1.831659     -0.085429  KCAL/ANGSTROM
     15          5  C    CARTESIAN Z     0.027179      0.103154  KCAL/ANGSTROM
     16          6  C    CARTESIAN X    -1.133162     -0.046167  KCAL/ANGSTROM
     17          6  C    CARTESIAN Y    -0.675534      0.070652  KCAL/ANGSTROM
     18          6  C    CARTESIAN Z     0.121753     -0.091500  KCAL/ANGSTROM
     19          7  C    CARTESIAN X    -1.300733     -0.128169  KCAL/ANGSTROM
     20          7  C    CARTESIAN Y    -1.879719      0.132661  KCAL/ANGSTROM
     21          7  C    CARTESIAN Z     1.004075      0.003519  KCAL/ANGSTROM
     22          8  C    CARTESIAN X    -1.711032      0.314386  KCAL/ANGSTROM
     23          8  C    CARTESIAN Y    -0.878181      0.215900  KCAL/ANGSTROM
     24          8  C    CARTESIAN Z    -1.241377     -0.106289  KCAL/ANGSTROM
     25          9  O    CARTESIAN X    -2.483975     -0.398516  KCAL/ANGSTROM
     26          9  O    CARTESIAN Y    -1.771383     -0.144985  KCAL/ANGSTROM
     27          9  O    CARTESIAN Z    -1.486091     -0.092677  KCAL/ANGSTROM
     28         10  H    CARTESIAN X     2.759944      0.410020  KCAL/ANGSTROM
     29         10  H    CARTESIAN Y    -0.572501      0.099338  KCAL/ANGSTROM
     30         10  H    CARTESIAN Z    -0.282366     -0.043825  KCAL/ANGSTROM
     31         11  H    CARTESIAN X     3.004609      0.017606  KCAL/ANGSTROM
     32         11  H    CARTESIAN Y    -1.342170     -0.054811  KCAL/ANGSTROM
     33         11  H    CARTESIAN Z     1.290349      0.304060  KCAL/ANGSTROM
     34         12  H    CARTESIAN X     1.762630     -0.113041  KCAL/ANGSTROM
     35         12  H    CARTESIAN Y    -1.955591     -0.180023  KCAL/ANGSTROM
     36         12  H    CARTESIAN Z     0.190047      0.016700  KCAL/ANGSTROM
     37         13  H    CARTESIAN X     0.820665     -0.082956  KCAL/ANGSTROM
     38         13  H    CARTESIAN Y    -0.546916     -0.155063  KCAL/ANGSTROM
     39         13  H    CARTESIAN Z     2.124644     -0.105001  KCAL/ANGSTROM
     40         14  H    CARTESIAN X     1.709019     -0.181695  KCAL/ANGSTROM
     41         14  H    CARTESIAN Y     0.846260      0.112401  KCAL/ANGSTROM
     42         14  H    CARTESIAN Z     1.504780     -0.081794  KCAL/ANGSTROM
     43         15  H    CARTESIAN X     0.487721     -0.115803  KCAL/ANGSTROM
     44         15  H    CARTESIAN Y     0.645801      0.022355  KCAL/ANGSTROM
     45         15  H    CARTESIAN Z    -0.712153     -0.045921  KCAL/ANGSTROM
     46         16  H    CARTESIAN X    -1.374030     -0.079575  KCAL/ANGSTROM
     47         16  H    CARTESIAN Y     0.762772      0.088717  KCAL/ANGSTROM
     48         16  H    CARTESIAN Z     1.824913     -0.013532  KCAL/ANGSTROM
     49         17  H    CARTESIAN X    -1.734218     -0.037543  KCAL/ANGSTROM
     50         17  H    CARTESIAN Y     2.802822      0.014739  KCAL/ANGSTROM
     51         17  H    CARTESIAN Z     0.494968     -0.120931  KCAL/ANGSTROM
     52         18  H    CARTESIAN X    -1.671216      0.002516  KCAL/ANGSTROM
     53         18  H    CARTESIAN Y     1.921998     -0.010134  KCAL/ANGSTROM
     54         18  H    CARTESIAN Z    -1.028930      0.136402  KCAL/ANGSTROM
     55         19  H    CARTESIAN X    -3.038764     -0.152846  KCAL/ANGSTROM
     56         19  H    CARTESIAN Y     1.683583     -0.098218  KCAL/ANGSTROM
     57         19  H    CARTESIAN Z     0.069655     -0.039215  KCAL/ANGSTROM
     58         20  H    CARTESIAN X    -1.010702      0.221297  KCAL/ANGSTROM
     59         20  H    CARTESIAN Y    -1.692315     -0.011366  KCAL/ANGSTROM
     60         20  H    CARTESIAN Z     2.043580     -0.071444  KCAL/ANGSTROM
     61         21  H    CARTESIAN X    -2.349812      0.020818  KCAL/ANGSTROM
     62         21  H    CARTESIAN Y    -2.218496     -0.140458  KCAL/ANGSTROM
     63         21  H    CARTESIAN Z     1.008258      0.068202  KCAL/ANGSTROM
     64         22  H    CARTESIAN X    -0.698498     -0.141475  KCAL/ANGSTROM
     65         22  H    CARTESIAN Y    -2.723474      0.205207  KCAL/ANGSTROM
     66         22  H    CARTESIAN Z     0.639071      0.040462  KCAL/ANGSTROM
     67         23  H    CARTESIAN X    -1.405338     -0.138054  KCAL/ANGSTROM
     68         23  H    CARTESIAN Y    -0.178903      0.005197  KCAL/ANGSTROM
     69         23  H    CARTESIAN Z    -2.030869      0.102985  KCAL/ANGSTROM




   ATOM   CHEMICAL          X               Y               Z
  NUMBER   SYMBOL      (ANGSTROMS)     (ANGSTROMS)     (ANGSTROMS)

     1       C          2.24283653  *  -1.04175391  *   0.56194486  *
     2       C          1.21762810  *  -0.09817945  *   1.19262642  *
     3       C          0.10455175  *   0.21744931  *   0.22290866  *
     4       C         -1.22663142  *   0.72096778  *   0.73701821  *
     5       C         -1.94957729  *   1.83165858  *   0.02717854  *
     6       C         -1.13316186  *  -0.67553418  *   0.12175271  *
     7       C         -1.30073342  *  -1.87971908  *   1.00407538  *
     8       C         -1.71103175  *  -0.87818098  *  -1.24137722  *
     9       O         -2.48397509  *  -1.77138342  *  -1.48609113  *
    10       H          2.75994427  *  -0.57250113  *  -0.28236584  *
    11       H          3.00460893  *  -1.34216973  *   1.29034893  *
    12       H          1.76262979  *  -1.95559144  *   0.19004681  *
    13       H          0.82066539  *  -0.54691630  *   2.12464412  *
    14       H          1.70901918  *   0.84625958  *   1.50477982  *
    15       H          0.48772062  *   0.64580135  *  -0.71215252  *
    16       H         -1.37403048  *   0.76277159  *   1.82491336  *
    17       H         -1.73421777  *   2.80282200  *   0.49496831  *
    18       H         -1.67121600  *   1.92199844  *  -1.02892978  *
    19       H         -3.03876381  *   1.68358327  *   0.06965509  *
    20       H         -1.01070193  *  -1.69231550  *   2.04358005  *
    21       H         -2.34981243  *  -2.21849640  *   1.00825841  *
    22       H         -0.69849812  *  -2.72347438  *   0.63907129  *
    23       H         -1.40533766  *  -0.17890328  *  -2.03086858  *

                             CARTESIAN COORDINATES

   1    C        2.242836535    -1.041753908     0.561944857
   2    C        1.217628097    -0.098179450     1.192626420
   3    C        0.104551747     0.217449315     0.222908658
   4    C       -1.226631424     0.720967776     0.737018209
   5    C       -1.949577293     1.831658584     0.027178542
   6    C       -1.133161857    -0.675534176     0.121752711
   7    C       -1.300733420    -1.879719083     1.004075381
   8    C       -1.711031750    -0.878180977    -1.241377224
   9    O       -2.483975089    -1.771383419    -1.486091132
  10    H        2.759944274    -0.572501130    -0.282365844
  11    H        3.004608934    -1.342169734     1.290348931
  12    H        1.762629789    -1.955591443     0.190046806
  13    H        0.820665386    -0.546916302     2.124644116
  14    H        1.709019177     0.846259585     1.504779816
  15    H        0.487720619     0.645801348    -0.712152523
  16    H       -1.374030477     0.762771593     1.824913358
  17    H       -1.734217767     2.802822002     0.494968307
  18    H       -1.671215997     1.921998443    -1.028929778
  19    H       -3.038763808     1.683583267     0.069655091
  20    H       -1.010701929    -1.692315499     2.043580050
  21    H       -2.349812426    -2.218496401     1.008258413
  22    H       -0.698498120    -2.723474382     0.639071287
  23    H       -1.405337658    -0.178903276    -2.030868582


           Empirical Formula: C8 H14 O  =    23 atoms



      MOLECULAR POINT GROUP   :   C1  


                  EIGENVALUES  
 -31.73403 -30.63907 -27.47155 -26.06138 -24.22808 -23.31425 -21.26056 -19.59069
 -18.22339 -16.95638 -16.28584 -15.30367 -14.98434 -14.74649 -14.02581 -13.89776
 -13.72602 -13.48666 -13.32164 -13.11786 -12.76228 -12.28388 -11.91683 -10.91177
 -10.60804  -9.98752   0.62719   2.35344   3.32383   3.62560   3.78201   4.13834
   4.29032   4.50318   4.55953   5.06708   5.30598   5.34522   5.43217   5.50930
   5.69604   5.75425   5.79574   5.89775   5.93363   5.98879   6.35805   6.62319
   6.88256   7.00712


              NET ATOMIC CHARGES AND DIPOLE CONTRIBUTIONS

  ATOM NO.   TYPE          CHARGE      No. of ELECS.   s-Pop       p-Pop       
    1          C          -0.433976        4.4340     1.05176     3.38222
    2          C          -0.242908        4.2429     1.05108     3.19183
    3          C          -0.166579        4.1666     1.05810     3.10848
    4          C          -0.139262        4.1393     1.05274     3.08652
    5          C          -0.440809        4.4408     1.04877     3.39204
    6          C          -0.142954        4.1430     1.05542     3.08754
    7          C          -0.417843        4.4178     1.04689     3.37095
    8          C           0.349213        3.6508     1.14063     2.51015
    9          O          -0.433214        6.4332     1.87789     4.55532
   10          H           0.143052        0.8569     0.85695
   11          H           0.142371        0.8576     0.85763
   12          H           0.150346        0.8497     0.84965
   13          H           0.141448        0.8586     0.85855
   14          H           0.141104        0.8589     0.85890
   15          H           0.155498        0.8445     0.84450
   16          H           0.160797        0.8392     0.83920
   17          H           0.155272        0.8447     0.84473
   18          H           0.146409        0.8536     0.85359
   19          H           0.158668        0.8413     0.84133
   20          H           0.144256        0.8557     0.85574
   21          H           0.168629        0.8314     0.83137
   22          H           0.155836        0.8442     0.84416
   23          H           0.104647        0.8954     0.89535
 DIPOLE           X         Y         Z       TOTAL
 POINT-CHG.     2.082     2.378     1.175     3.372
 HYBRID        -0.148    -0.208    -0.022     0.257
 SUM            1.933     2.170     1.153     3.126


          ATOMIC ORBITAL ELECTRON POPULATIONS

     Atom    s        px        py        pz   
    1  C   1.05176   1.10671   1.12476   1.15075
    2  C   1.05108   1.02360   1.10441   1.06382
    3  C   1.05810   0.92948   1.08043   1.09857
    4  C   1.05274   1.03783   0.95837   1.09032
    5  C   1.04877   1.14868   1.09779   1.14558
    6  C   1.05542   1.08415   0.96602   1.03737
    7  C   1.04689   1.19136   1.06849   1.11110
    8  C   1.14063   0.74932   0.82047   0.94036
    9  O   1.87789   1.32560   1.37161   1.85811
   10  H   0.85695
   11  H   0.85763
   12  H   0.84965
   13  H   0.85855
   14  H   0.85890
   15  H   0.84450
   16  H   0.83920
   17  H   0.84473
   18  H   0.85359
   19  H   0.84133
   20  H   0.85574
   21  H   0.83137
   22  H   0.84416
   23  H   0.89535

 **********************
 *                    *
 * JOB ENDED NORMALLY *
 *                    *
 **********************



 TOTAL JOB TIME:             0.86 SECONDS

 == MOPAC DONE ==
