 *******************************************************************************
 **                                                                           **
 **                              MOPAC v23.2                                  **
 **                                                                           **
 *******************************************************************************
 **          Digital Object Identifier (DOI): 10.5281/zenodo.6511958          **
 **    Visit the DOI location for information on how to cite this program.    **
 *******************************************************************************

                              PM7 CALCULATION RESULTS

 *******************************************************************************
 *  CALCULATION DONE: (MAX THREADS = 40)             Fri Sep 19 22:02:22 2025  *
 *  PM7        - The PM7 Hamiltonian to be used
 *
 *
 *
 *                 CHARGE ON SYSTEM = +1
 *
 *
 *
 *  1SCF       - DO 1 SCF AND THEN STOP 
 *  T=         - A TIME OF 172800.0 SECONDS REQUESTED
 *  DUMP=N     - RESTART FILE WRITTEN EVERY 7200.0 SECONDS REQUESTED
 *  RELSCF     - DEFAULT SCF CRITERION MULTIPLIED BY 0.0001
 *              (DEFAULT SCF CRITERION = 0.00010)
 *  GRADIENTS  - ALL GRADIENTS TO BE PRINTED
 *  DISP       - PRINT DISPERSION AND HYDROGEN BOND ENERGIES
 *******************************************************************************
PM7 1SCF GRADIENTS DISP RELSCF=0.0001 CHARGE=1
 Title: ASE calculation

   ATOM   CHEMICAL          X               Y               Z
  NUMBER   SYMBOL      (ANGSTROMS)     (ANGSTROMS)     (ANGSTROMS)

     1       C          2.97527084  *   1.35422106  *   0.21158930  *
     2       C          1.80678587  *   0.60096999  *   0.24147853  *
     3       C          0.70394621  *  -0.10551891  *   0.28012442  *
     4       C         -0.46822798  *  -0.86133695  *   0.30451870  *
     5       C         -0.62530116  *  -1.75074726  *  -0.92657748  *
     6       C         -1.72241098  *   0.03867433  *   0.62895232  *
     7       C         -2.92246079  *  -0.82321238  *   0.98404721  *
     8       C         -2.04596515  *   0.93542554  *  -0.58909273  *
     9       O         -3.09986218  *   1.79649078  *  -0.25316004  *
    10       H          3.83987571  *   0.84764863  *  -0.29032133  *
    11       H          2.85831630  *   2.32044285  *  -0.36534123  *
    12       H          3.32293641  *   1.70072512  *   1.22055081  *
    13       H         -0.41315431  *  -1.56651743  *   1.22977394  *
    14       H          0.20450331  *  -2.46365045  *  -1.04309697  *
    15       H         -0.68955863  *  -1.17228230  *  -1.85930186  *
    16       H         -1.54784044  *  -2.35450866  *  -0.86861500  *
    17       H         -1.47264229  *   0.68953582  *   1.50270991  *
    18       H         -3.22039953  *  -1.50460869  *   0.17616575  *
    19       H         -3.80789929  *  -0.18392256  *   1.17004711  *
    20       H         -2.76888539  *  -1.42064779  *   1.88999420  *
    21       H         -1.16673160  *   1.50325341  *  -0.93473900  *
    22       H         -2.46588126  *   0.35283426  *  -1.43575733  *
    23       H         -2.80242295  *   2.52090066  *   0.33956599  *



          CARTESIAN COORDINATES 

    NO.       ATOM           X           Y           Z

     1         C          2.9753      1.3542      0.2116
     2         C          1.8068      0.6010      0.2415
     3         C          0.7039     -0.1055      0.2801
     4         C         -0.4682     -0.8613      0.3045
     5         C         -0.6253     -1.7507     -0.9266
     6         C         -1.7224      0.0387      0.6290
     7         C         -2.9225     -0.8232      0.9840
     8         C         -2.0460      0.9354     -0.5891
     9         O         -3.0999      1.7965     -0.2532
    10         H          3.8399      0.8476     -0.2903
    11         H          2.8583      2.3204     -0.3653
    12         H          3.3229      1.7007      1.2206
    13         H         -0.4132     -1.5665      1.2298
    14         H          0.2045     -2.4637     -1.0431
    15         H         -0.6896     -1.1723     -1.8593
    16         H         -1.5478     -2.3545     -0.8686
    17         H         -1.4726      0.6895      1.5027
    18         H         -3.2204     -1.5046      0.1762
    19         H         -3.8079     -0.1839      1.1700
    20         H         -2.7689     -1.4206      1.8900
    21         H         -1.1667      1.5033     -0.9347
    22         H         -2.4659      0.3528     -1.4358
    23         H         -2.8024      2.5209      0.3396

 General Reference for PM7:
 "Optimization of Parameters for Semiempirical Methods VI: More Modifications to the 
 NDDO Approximations and Re-optimization of Parameters", J. J. P. Stewart, J. Mol. Mod., 1:32, 19 (2013)
 https://link.springer.com/article/10.1007/s00894-012-1667-x

           Empirical Formula: C8 H14 O  =    23 atoms



      MOLECULAR POINT GROUP   :   C1  


          UHF CALCULATION, NO. OF ALPHA ELECTRONS =   26
                           NO. OF BETA  ELECTRONS =   25
  SCF CRITERION =    0.1000E-07

 -------------------------------------------------------------------------------
 PM7 1SCF GRADIENTS DISP RELSCF=0.0001 CHARGE=1
 Title: ASE calculation



     1SCF WAS SPECIFIED, SO BFGS WAS NOT USED                 
     SCF FIELD WAS ACHIEVED                                   


                              PM7 CALCULATION
                                                       MOPAC v23.2 Linux
                                                       Fri Sep 19 22:02:24 2025




          FINAL HEAT OF FORMATION =        184.92956 KCAL/MOL =     773.74529 KJ/MOL

          TOTAL ENERGY            =     -33595.83947 KCAL/MOL = ELECTRONIC ENERGY + CORE-CORE REPULSION
          ENERGY OF ATOMS         =      33782.22825 KCAL/MOL
                              SUM =        186.38878 KCAL/MOL
          DISPERSION ENERGY       =         -2.36125 KCAL/MOL
                              SUM =        184.02753 KCAL/MOL = FINAL HEAT OF FORMATION

     *    WARNING - An energy term is incorrect or missing!

     *    FINAL HEAT OF FORMATION     =    184.92956 KCAL/MOL
     *    SUM OF CONTRIBUTIONS TO HoF =    184.02753 KCAL/MOL
     *                     DIFFERENCE =      0.90203 KCAL/MOL



          TOTAL ENERGY            =      -1456.85348 EV
          ELECTRONIC ENERGY       =      -7403.36767 EV 
          CORE-CORE REPULSION     =       5946.51418 EV
          COSMO AREA              =        187.82 SQUARE ANGSTROMS
          COSMO VOLUME            =        186.80 CUBIC ANGSTROMS

          GRADIENT NORM           =          1.27391          =       0.26563 PER ATOM
          IONIZATION POTENTIAL    =         13.971179 EV
          ALPHA SOMO LUMO (EV)    =        -14.003 -5.364
          BETA  SOMO LUMO (EV)    =        -13.971 -8.341
          NO. OF ALPHA ELECTRONS  =         26
          NO. OF BETA  ELECTRONS  =         25
          MOLECULAR WEIGHT        =        126.1980         POINT GROUP:  C1  

          MOLECULAR DIMENSIONS (Angstroms)

            Atom       Atom       Distance
            H    19    H    10     7.85400
            H    23    H    14     5.42184
            H    12    H    22     3.55918


          SCF CALCULATIONS        =          1

          WALL-CLOCK TIME         =      1.922 SECONDS
          COMPUTATION TIME        =      1.169 SECONDS

          LARGEST ATOMIC GRADIENTS

          Atom     Label                     Cartesian Gradients           Cartesian Coordinates       |Gradient|
                                           X          Y          Z        X          Y          Z

             9       O                  -0.356      0.218      0.012   -3.09986    1.79649   -0.25316      0.417
             8       C                  -0.127      0.372      0.013   -2.04597    0.93543   -0.58909      0.394
             4       C                  -0.087     -0.098      0.366   -0.46823   -0.86134    0.30452      0.389
            14       H                   0.018     -0.371     -0.111    0.20450   -2.46365   -1.04310      0.388
            22       H                   0.372      0.058      0.081   -2.46588    0.35283   -1.43576      0.385
            10       H                   0.285      0.208     -0.039    3.83988    0.84765   -0.29032      0.355
             6       C                  -0.278      0.195      0.044   -1.72241    0.03867    0.62895      0.342
            20       H                   0.179     -0.210     -0.175   -2.76889   -1.42065    1.88999      0.326
            21       H                   0.246      0.011     -0.195   -1.16673    1.50325   -0.93474      0.314
            18       H                  -0.257     -0.153      0.020   -3.22040   -1.50461    0.17617      0.300



       FINAL  POINT  AND  DERIVATIVES

   PARAMETER     ATOM    TYPE            VALUE        GRADIENT
      1          1  C    CARTESIAN X     2.975271      0.019963  KCAL/ANGSTROM
      2          1  C    CARTESIAN Y     1.354221     -0.020631  KCAL/ANGSTROM
      3          1  C    CARTESIAN Z     0.211589     -0.087201  KCAL/ANGSTROM
      4          2  C    CARTESIAN X     1.806786     -0.168776  KCAL/ANGSTROM
      5          2  C    CARTESIAN Y     0.600970     -0.048330  KCAL/ANGSTROM
      6          2  C    CARTESIAN Z     0.241479      0.047351  KCAL/ANGSTROM
      7          3  C    CARTESIAN X     0.703946      0.036023  KCAL/ANGSTROM
      8          3  C    CARTESIAN Y    -0.105519      0.114739  KCAL/ANGSTROM
      9          3  C    CARTESIAN Z     0.280124      0.077536  KCAL/ANGSTROM
     10          4  C    CARTESIAN X    -0.468228     -0.087496  KCAL/ANGSTROM
     11          4  C    CARTESIAN Y    -0.861337     -0.097821  KCAL/ANGSTROM
     12          4  C    CARTESIAN Z     0.304519      0.366322  KCAL/ANGSTROM
     13          5  C    CARTESIAN X    -0.625301      0.051060  KCAL/ANGSTROM
     14          5  C    CARTESIAN Y    -1.750747     -0.034580  KCAL/ANGSTROM
     15          5  C    CARTESIAN Z    -0.926577      0.070986  KCAL/ANGSTROM
     16          6  C    CARTESIAN X    -1.722411     -0.277677  KCAL/ANGSTROM
     17          6  C    CARTESIAN Y     0.038674      0.195007  KCAL/ANGSTROM
     18          6  C    CARTESIAN Z     0.628952      0.043854  KCAL/ANGSTROM
     19          7  C    CARTESIAN X    -2.922461     -0.112120  KCAL/ANGSTROM
     20          7  C    CARTESIAN Y    -0.823212     -0.149380  KCAL/ANGSTROM
     21          7  C    CARTESIAN Z     0.984047     -0.061846  KCAL/ANGSTROM
     22          8  C    CARTESIAN X    -2.045965     -0.127350  KCAL/ANGSTROM
     23          8  C    CARTESIAN Y     0.935426      0.372328  KCAL/ANGSTROM
     24          8  C    CARTESIAN Z    -0.589093      0.013459  KCAL/ANGSTROM
     25          9  O    CARTESIAN X    -3.099862     -0.355824  KCAL/ANGSTROM
     26          9  O    CARTESIAN Y     1.796491      0.217939  KCAL/ANGSTROM
     27          9  O    CARTESIAN Z    -0.253160      0.011985  KCAL/ANGSTROM
     28         10  H    CARTESIAN X     3.839876      0.284999  KCAL/ANGSTROM
     29         10  H    CARTESIAN Y     0.847649      0.208051  KCAL/ANGSTROM
     30         10  H    CARTESIAN Z    -0.290321     -0.038529  KCAL/ANGSTROM
     31         11  H    CARTESIAN X     2.858316      0.104008  KCAL/ANGSTROM
     32         11  H    CARTESIAN Y     2.320443      0.064395  KCAL/ANGSTROM
     33         11  H    CARTESIAN Z    -0.365341     -0.013337  KCAL/ANGSTROM
     34         12  H    CARTESIAN X     3.322936     -0.024142  KCAL/ANGSTROM
     35         12  H    CARTESIAN Y     1.700725     -0.051712  KCAL/ANGSTROM
     36         12  H    CARTESIAN Z     1.220551     -0.035786  KCAL/ANGSTROM
     37         13  H    CARTESIAN X    -0.413154      0.007135  KCAL/ANGSTROM
     38         13  H    CARTESIAN Y    -1.566517      0.010447  KCAL/ANGSTROM
     39         13  H    CARTESIAN Z     1.229774     -0.071479  KCAL/ANGSTROM
     40         14  H    CARTESIAN X     0.204503      0.018489  KCAL/ANGSTROM
     41         14  H    CARTESIAN Y    -2.463650     -0.371498  KCAL/ANGSTROM
     42         14  H    CARTESIAN Z    -1.043097     -0.111094  KCAL/ANGSTROM
     43         15  H    CARTESIAN X    -0.689559     -0.137217  KCAL/ANGSTROM
     44         15  H    CARTESIAN Y    -1.172282      0.018212  KCAL/ANGSTROM
     45         15  H    CARTESIAN Z    -1.859302     -0.088494  KCAL/ANGSTROM
     46         16  H    CARTESIAN X    -1.547840     -0.068258  KCAL/ANGSTROM
     47         16  H    CARTESIAN Y    -2.354509      0.025057  KCAL/ANGSTROM
     48         16  H    CARTESIAN Z    -0.868615      0.125556  KCAL/ANGSTROM
     49         17  H    CARTESIAN X    -1.472642      0.022474  KCAL/ANGSTROM
     50         17  H    CARTESIAN Y     0.689536     -0.024152  KCAL/ANGSTROM
     51         17  H    CARTESIAN Z     1.502710      0.092080  KCAL/ANGSTROM
     52         18  H    CARTESIAN X    -3.220400     -0.257090  KCAL/ANGSTROM
     53         18  H    CARTESIAN Y    -1.504609     -0.152615  KCAL/ANGSTROM
     54         18  H    CARTESIAN Z     0.176166      0.020381  KCAL/ANGSTROM
     55         19  H    CARTESIAN X    -3.807899      0.147857  KCAL/ANGSTROM
     56         19  H    CARTESIAN Y    -0.183923     -0.182928  KCAL/ANGSTROM
     57         19  H    CARTESIAN Z     1.170047      0.098365  KCAL/ANGSTROM
     58         20  H    CARTESIAN X    -2.768885      0.179106  KCAL/ANGSTROM
     59         20  H    CARTESIAN Y    -1.420648     -0.209564  KCAL/ANGSTROM
     60         20  H    CARTESIAN Z     1.889994     -0.174763  KCAL/ANGSTROM
     61         21  H    CARTESIAN X    -1.166732      0.245779  KCAL/ANGSTROM
     62         21  H    CARTESIAN Y     1.503253      0.011490  KCAL/ANGSTROM
     63         21  H    CARTESIAN Z    -0.934739     -0.195038  KCAL/ANGSTROM
     64         22  H    CARTESIAN X    -2.465881      0.372243  KCAL/ANGSTROM
     65         22  H    CARTESIAN Y     0.352834      0.057746  KCAL/ANGSTROM
     66         22  H    CARTESIAN Z    -1.435757      0.081451  KCAL/ANGSTROM
     67         23  H    CARTESIAN X    -2.802423      0.126809  KCAL/ANGSTROM
     68         23  H    CARTESIAN Y     2.520901      0.047801  KCAL/ANGSTROM
     69         23  H    CARTESIAN Z     0.339566     -0.171761  KCAL/ANGSTROM




   ATOM   CHEMICAL          X               Y               Z
  NUMBER   SYMBOL      (ANGSTROMS)     (ANGSTROMS)     (ANGSTROMS)

     1       C          2.97527084  *   1.35422106  *   0.21158930  *
     2       C          1.80678587  *   0.60096999  *   0.24147853  *
     3       C          0.70394621  *  -0.10551891  *   0.28012442  *
     4       C         -0.46822798  *  -0.86133695  *   0.30451870  *
     5       C         -0.62530116  *  -1.75074726  *  -0.92657748  *
     6       C         -1.72241098  *   0.03867433  *   0.62895232  *
     7       C         -2.92246079  *  -0.82321238  *   0.98404721  *
     8       C         -2.04596515  *   0.93542554  *  -0.58909273  *
     9       O         -3.09986218  *   1.79649078  *  -0.25316004  *
    10       H          3.83987571  *   0.84764863  *  -0.29032133  *
    11       H          2.85831630  *   2.32044285  *  -0.36534123  *
    12       H          3.32293641  *   1.70072512  *   1.22055081  *
    13       H         -0.41315431  *  -1.56651743  *   1.22977394  *
    14       H          0.20450331  *  -2.46365045  *  -1.04309697  *
    15       H         -0.68955863  *  -1.17228230  *  -1.85930186  *
    16       H         -1.54784044  *  -2.35450866  *  -0.86861500  *
    17       H         -1.47264229  *   0.68953582  *   1.50270991  *
    18       H         -3.22039953  *  -1.50460869  *   0.17616575  *
    19       H         -3.80789929  *  -0.18392256  *   1.17004711  *
    20       H         -2.76888539  *  -1.42064779  *   1.88999420  *
    21       H         -1.16673160  *   1.50325341  *  -0.93473900  *
    22       H         -2.46588126  *   0.35283426  *  -1.43575733  *
    23       H         -2.80242295  *   2.52090066  *   0.33956599  *

                             CARTESIAN COORDINATES

   1    C        2.975270841     1.354221060     0.211589305
   2    C        1.806785866     0.600969993     0.241478530
   3    C        0.703946210    -0.105518906     0.280124417
   4    C       -0.468227979    -0.861336946     0.304518696
   5    C       -0.625301157    -1.750747258    -0.926577479
   6    C       -1.722410983     0.038674332     0.628952321
   7    C       -2.922460789    -0.823212382     0.984047208
   8    C       -2.045965147     0.935425540    -0.589092729
   9    O       -3.099862180     1.796490777    -0.253160038
  10    H        3.839875712     0.847648634    -0.290321330
  11    H        2.858316304     2.320442847    -0.365341233
  12    H        3.322936409     1.700725117     1.220550815
  13    H       -0.413154310    -1.566517427     1.229773938
  14    H        0.204503310    -2.463650453    -1.043096966
  15    H       -0.689558633    -1.172282297    -1.859301859
  16    H       -1.547840444    -2.354508657    -0.868615005
  17    H       -1.472642285     0.689535816     1.502709907
  18    H       -3.220399528    -1.504608693     0.176165748
  19    H       -3.807899291    -0.183922562     1.170047111
  20    H       -2.768885388    -1.420647788     1.889994196
  21    H       -1.166731602     1.503253413    -0.934738999
  22    H       -2.465881258     0.352834260    -1.435757331
  23    H       -2.802422952     2.520900660     0.339565989


           Empirical Formula: C8 H14 O  =    23 atoms



      MOLECULAR POINT GROUP   :   C1  


          ALPHA EIGENVALUES  
 -34.78653 -33.14432 -32.69835 -30.49826 -29.33094 -27.32563 -26.99651 -23.68694
 -22.20596 -21.10175 -20.78025 -20.47081 -20.19365 -19.93117 -19.30885 -18.46999
 -17.99084 -17.24785 -17.03059 -16.77366 -16.34383 -16.16256 -15.65626 -15.39551
 -15.18867 -14.00271  -5.36354  -4.98826  -2.16956  -1.35766  -0.94005  -0.69228
  -0.47175  -0.37101  -0.07412  -0.03156   0.26038   0.44653   0.53736   1.30719
   1.52136   1.58144   1.61819   1.74824   2.17222   2.39406   2.46047   2.75939
   2.91129   3.62991


           BETA EIGENVALUES 
 -34.70924 -32.98300 -32.61142 -30.38716 -29.20551 -27.29704 -26.88815 -23.62569
 -22.03102 -20.93761 -20.67372 -20.32303 -20.05183 -19.43763 -19.16775 -18.36989
 -17.95463 -17.04300 -16.98448 -16.69193 -16.24693 -15.95194 -15.33804 -15.20256
 -13.97118  -8.34079  -4.80824  -4.19683  -2.03820  -1.25939  -0.80566  -0.57114
  -0.35495  -0.32275  -0.00134   0.06771   0.30258   0.51406   0.57866   1.34505
   1.52856   1.58821   1.62292   1.75141   2.17369   2.39568   2.46444   2.76200
   2.91500   3.63176


              NET ATOMIC CHARGES AND DIPOLE CONTRIBUTIONS

  ATOM NO.   TYPE          CHARGE      No. of ELECS.   s-Pop       p-Pop       
    1          C          -0.452463        4.4525     1.04298     3.40948
    2          C           0.186701        3.8133     1.14907     2.66422
    3          C           0.109985        3.8900     1.16379     2.72623
    4          C          -0.135449        4.1354     1.06339     3.07206
    5          C          -0.437228        4.4372     1.05505     3.38218
    6          C          -0.098157        4.0982     1.08627     3.01188
    7          C          -0.453401        4.4534     1.05443     3.39897
    8          C          -0.023988        4.0240     1.09088     2.93311
    9          O          -0.485240        6.4852     1.85086     4.63438
   10          H           0.236691        0.7633     0.76331
   11          H           0.260501        0.7395     0.73950
   12          H           0.239738        0.7603     0.76026
   13          H           0.262620        0.7374     0.73738
   14          H           0.172793        0.8272     0.82721
   15          H           0.173711        0.8263     0.82629
   16          H           0.191171        0.8088     0.80883
   17          H           0.149015        0.8510     0.85098
   18          H           0.165883        0.8341     0.83412
   19          H           0.196229        0.8038     0.80377
   20          H           0.157052        0.8429     0.84295
   21          H           0.102182        0.8978     0.89782
   22          H           0.169130        0.8309     0.83087
   23          H           0.312526        0.6875     0.68747
 DIPOLE           X         Y         Z       TOTAL
 POINT-CHG.     8.448    -0.007     1.062     8.514
 HYBRID         0.417     0.316     0.331     0.620
 SUM            8.865     0.310     1.393     8.979


          ATOMIC ORBITAL ELECTRON POPULATIONS

     Atom    s        px        py        pz   
    1  C   1.04298   1.04947   1.13847   1.22154
    2  C   1.14907   0.90872   0.85727   0.89823
    3  C   1.16379   0.93263   0.87744   0.91616
    4  C   1.06339   0.95508   1.02624   1.09074
    5  C   1.05505   1.21535   1.12295   1.04388
    6  C   1.08627   0.92426   1.00195   1.08568
    7  C   1.05443   1.07959   1.14074   1.17863
    8  C   1.09088   0.96401   0.95880   1.01031
    9  O   1.85086   1.39616   1.49629   1.74193
   10  H   0.76331
   11  H   0.73950
   12  H   0.76026
   13  H   0.73738
   14  H   0.82721
   15  H   0.82629
   16  H   0.80883
   17  H   0.85098
   18  H   0.83412
   19  H   0.80377
   20  H   0.84295
   21  H   0.89782
   22  H   0.83087
   23  H   0.68747


                    (SZ)    =    0.500000
                    (S**2)  =    0.756093


          ATOMIC ORBITAL SPIN POPULATIONS

    Atom   Total    s     px     py     pz   
         Atomic
    1  C  0.0152 -0.003  0.001  0.006  0.011
    2  C  0.4356  0.008  0.084  0.180  0.163
    3  C  0.2874  0.004  0.054  0.128  0.101
    4  C  0.0384 -0.004  0.003  0.021  0.018
    5  C  0.0037  0.000  0.001 -0.002  0.005
    6  C  0.0508  0.002  0.029  0.020 -0.001
    7  C -0.0014 -0.000 -0.000 -0.001 -0.000
    8  C  0.0070 -0.000 -0.000  0.003  0.004
    9  O  0.0103  0.000  0.000  0.005  0.005
   10  H  0.0087  0.009
   11  H  0.0499  0.050
   12  H  0.0152  0.015
   13  H  0.0752  0.075
   14  H  0.0015  0.001
   15  H  0.0032  0.003
   16  H -0.0005 -0.001
   17  H -0.0016 -0.002
   18  H  0.0001  0.000
   19  H  0.0020  0.002
   20  H  0.0003  0.000
   21  H -0.0002 -0.000
   22  H -0.0002 -0.000
   23  H -0.0005 -0.001

 **********************
 *                    *
 * JOB ENDED NORMALLY *
 *                    *
 **********************



 TOTAL JOB TIME:             2.28 SECONDS

 == MOPAC DONE ==
