 *******************************************************************************
 **                                                                           **
 **                              MOPAC v23.2                                  **
 **                                                                           **
 *******************************************************************************
 **          Digital Object Identifier (DOI): 10.5281/zenodo.6511958          **
 **    Visit the DOI location for information on how to cite this program.    **
 *******************************************************************************

                              PM7 CALCULATION RESULTS

 *******************************************************************************
 *  CALCULATION DONE: (MAX THREADS = 40)             Fri Sep 19 21:30:51 2025  *
 *  PM7        - The PM7 Hamiltonian to be used
 *
 *
 *
 *                 CHARGE ON SYSTEM = +1
 *
 *
 *
 *  EPS=37.5   - USE ANDREAS KLAMT'S COSMO IMPLICIT SOLVATION MODEL
 *  1SCF       - DO 1 SCF AND THEN STOP 
 *  T=         - A TIME OF 172800.0 SECONDS REQUESTED
 *  DUMP=N     - RESTART FILE WRITTEN EVERY 7200.0 SECONDS REQUESTED
 *  RELSCF     - DEFAULT SCF CRITERION MULTIPLIED BY 0.0001
 *              (DEFAULT SCF CRITERION = 0.00010)
 *  GRADIENTS  - ALL GRADIENTS TO BE PRINTED
 *  DISP       - PRINT DISPERSION AND HYDROGEN BOND ENERGIES
 *******************************************************************************
PM7 1SCF GRADIENTS EPS=37.5 DISP RELSCF=0.0001 CHARGE=1
 Title: ASE calculation

   ATOM   CHEMICAL          X               Y               Z
  NUMBER   SYMBOL      (ANGSTROMS)     (ANGSTROMS)     (ANGSTROMS)

     1       O          1.95569129  *  -1.10288272  *   0.80798818  *
     2       C          1.85105190  *   0.14434697  *   0.15132401  *
     3       C          0.40276221  *   0.20129206  *  -0.25343039  *
     4       C         -0.14194884  *   1.33746581  *  -1.02000780  *
     5       C         -1.37496714  *   1.65954803  *  -0.58049340  *
     6       C         -1.84938751  *   0.78665843  *   0.54888803  *
     7       C         -0.73706469  *  -0.24587120  *   0.74908892  *
     8       C         -0.83798025  *  -1.51842580  *  -0.10979933  *
     9       O          0.11914753  *  -1.07115918  *  -1.05742202  *
    10       H          2.83991803  *  -1.20806660  *   1.23730078  *
    11       H          2.54439251  *   0.16672850  *  -0.71726666  *
    12       H          2.10386314  *   0.97868859  *   0.84401168  *
    13       H          0.42622531  *   1.82503188  *  -1.79980441  *
    14       H         -2.00700220  *   2.46296019  *  -0.94879628  *
    15       H         -2.83991803  *   0.33066789  *   0.34646563  *
    16       H         -2.01230544  *   1.39306398  *   1.47111961  *
    17       H         -0.44349472  *  -0.40206039  *   1.79980441  *
    18       H         -1.79127128  *  -1.78271567  *  -0.61130758  *
    19       H         -0.44875613  *  -2.46296019  *   0.35704497  *



          CARTESIAN COORDINATES 

    NO.       ATOM           X           Y           Z

     1         O          1.9557     -1.1029      0.8080
     2         C          1.8511      0.1443      0.1513
     3         C          0.4028      0.2013     -0.2534
     4         C         -0.1419      1.3375     -1.0200
     5         C         -1.3750      1.6595     -0.5805
     6         C         -1.8494      0.7867      0.5489
     7         C         -0.7371     -0.2459      0.7491
     8         C         -0.8380     -1.5184     -0.1098
     9         O          0.1191     -1.0712     -1.0574
    10         H          2.8399     -1.2081      1.2373
    11         H          2.5444      0.1667     -0.7173
    12         H          2.1039      0.9787      0.8440
    13         H          0.4262      1.8250     -1.7998
    14         H         -2.0070      2.4630     -0.9488
    15         H         -2.8399      0.3307      0.3465
    16         H         -2.0123      1.3931      1.4711
    17         H         -0.4435     -0.4021      1.7998
    18         H         -1.7913     -1.7827     -0.6113
    19         H         -0.4488     -2.4630      0.3570

 General Reference for PM7:
 "Optimization of Parameters for Semiempirical Methods VI: More Modifications to the 
 NDDO Approximations and Re-optimization of Parameters", J. J. P. Stewart, J. Mol. Mod., 1:32, 19 (2013)
 https://link.springer.com/article/10.1007/s00894-012-1667-x

           Empirical Formula: C7 H10 O2  =    19 atoms



      MOLECULAR POINT GROUP   :   C1  


          UHF CALCULATION, NO. OF ALPHA ELECTRONS =   25
                           NO. OF BETA  ELECTRONS =   24
  SCF CRITERION =    0.1000E-07

 -------------------------------------------------------------------------------
 PM7 1SCF GRADIENTS EPS=37.5 DISP RELSCF=0.0001 CHARGE=1
 Title: ASE calculation



     1SCF WAS SPECIFIED, SO BFGS WAS NOT USED                 
     SCF FIELD WAS ACHIEVED                                   


                              PM7 CALCULATION
                                                       MOPAC v23.2 Linux
                                                       Fri Sep 19 21:30:53 2025




          FINAL HEAT OF FORMATION =        105.48845 KCAL/MOL =     441.36367 KJ/MOL

          TOTAL ENERGY            =     -36375.22733 KCAL/MOL = ELECTRONIC ENERGY + CORE-CORE REPULSION + SOLVATION ENERGY
          ENERGY OF ATOMS         =      36482.50324 KCAL/MOL
                              SUM =        107.27590 KCAL/MOL
          DISPERSION ENERGY       =         -1.78745 KCAL/MOL
                              SUM =        105.48845 KCAL/MOL = FINAL HEAT OF FORMATION

          VAN DER WAALS AREA      =        155.82 SQUARE ANGSTROMS


          TOTAL ENERGY            =      -1577.37915 EV
          ELECTRONIC ENERGY       =      -2464.28440 EV 
          CORE-CORE REPULSION     =        886.90525 EV

          DIELECTRIC ENERGY       =         -2.24136 EV
          COSMO AREA              =        155.82 SQUARE ANGSTROMS
          COSMO VOLUME            =        155.84 CUBIC ANGSTROMS

          GRADIENT NORM           =         12.27322          =       2.81567 PER ATOM
          IONIZATION POTENTIAL    =         10.869710 EV
          ALPHA SOMO LUMO (EV)    =        -10.964 -1.034
          BETA  SOMO LUMO (EV)    =        -10.870 -3.544
          NO. OF ALPHA ELECTRONS  =         25
          NO. OF BETA  ELECTRONS  =         24
          MOLECULAR WEIGHT        =        126.1548         POINT GROUP:  C1  

          MOLECULAR DIMENSIONS (Angstroms)

            Atom       Atom       Distance
            H    14    H    10     6.46128
            H    12    H    18     4.63787
            H    16    H    13     3.92663


          SCF CALCULATIONS        =          2

          WALL-CLOCK TIME         =      1.398 SECONDS
          COMPUTATION TIME        =      0.997 SECONDS

          LARGEST ATOMIC GRADIENTS

          Atom     Label                     Cartesian Gradients           Cartesian Coordinates       |Gradient|
                                           X          Y          Z        X          Y          Z

             8       C                  -4.158     -5.783     -1.252   -0.83798   -1.51843   -0.10980      7.232
             3       C                   0.963      4.663      3.103    0.40276    0.20129   -0.25343      5.683
             4       C                   0.658     -3.634     -1.149   -0.14195    1.33747   -1.02001      3.867
             9       O                   1.231     -0.741     -3.286    0.11915   -1.07116   -1.05742      3.587
             2       C                   2.221     -1.488      0.697    1.85105    0.14435    0.15132      2.762
             1       O                  -0.841      1.897     -0.974    1.95569   -1.10288    0.80799      2.292
            19       H                   1.826      0.894      1.050   -0.44876   -2.46296    0.35704      2.288
            10       H                  -1.188     -1.378      0.191    2.83992   -1.20807    1.23730      1.829
             6       C                  -0.316     -1.439     -0.919   -1.84939    0.78666    0.54889      1.736
            14       H                  -0.742      1.212     -0.578   -2.00700    2.46296   -0.94880      1.534



       FINAL  POINT  AND  DERIVATIVES

   PARAMETER     ATOM    TYPE            VALUE        GRADIENT
      1          1  O    CARTESIAN X     1.955691     -0.841016  KCAL/ANGSTROM
      2          1  O    CARTESIAN Y    -1.102883      1.897259  KCAL/ANGSTROM
      3          1  O    CARTESIAN Z     0.807988     -0.973981  KCAL/ANGSTROM
      4          2  C    CARTESIAN X     1.851052      2.220805  KCAL/ANGSTROM
      5          2  C    CARTESIAN Y     0.144347     -1.487533  KCAL/ANGSTROM
      6          2  C    CARTESIAN Z     0.151324      0.697273  KCAL/ANGSTROM
      7          3  C    CARTESIAN X     0.402762      0.962881  KCAL/ANGSTROM
      8          3  C    CARTESIAN Y     0.201292      4.662673  KCAL/ANGSTROM
      9          3  C    CARTESIAN Z    -0.253430      3.102951  KCAL/ANGSTROM
     10          4  C    CARTESIAN X    -0.141949      0.657560  KCAL/ANGSTROM
     11          4  C    CARTESIAN Y     1.337466     -3.633746  KCAL/ANGSTROM
     12          4  C    CARTESIAN Z    -1.020008     -1.148693  KCAL/ANGSTROM
     13          5  C    CARTESIAN X    -1.374967     -0.495956  KCAL/ANGSTROM
     14          5  C    CARTESIAN Y     1.659548      0.545854  KCAL/ANGSTROM
     15          5  C    CARTESIAN Z    -0.580493      0.531416  KCAL/ANGSTROM
     16          6  C    CARTESIAN X    -1.849388     -0.315559  KCAL/ANGSTROM
     17          6  C    CARTESIAN Y     0.786658     -1.438849  KCAL/ANGSTROM
     18          6  C    CARTESIAN Z     0.548888     -0.919496  KCAL/ANGSTROM
     19          7  C    CARTESIAN X    -0.737065     -0.018808  KCAL/ANGSTROM
     20          7  C    CARTESIAN Y    -0.245871      0.206709  KCAL/ANGSTROM
     21          7  C    CARTESIAN Z     0.749089      0.146098  KCAL/ANGSTROM
     22          8  C    CARTESIAN X    -0.837980     -4.157875  KCAL/ANGSTROM
     23          8  C    CARTESIAN Y    -1.518426     -5.783351  KCAL/ANGSTROM
     24          8  C    CARTESIAN Z    -0.109799     -1.252147  KCAL/ANGSTROM
     25          9  O    CARTESIAN X     0.119148      1.230552  KCAL/ANGSTROM
     26          9  O    CARTESIAN Y    -1.071159     -0.741066  KCAL/ANGSTROM
     27          9  O    CARTESIAN Z    -1.057422     -3.286456  KCAL/ANGSTROM
     28         10  H    CARTESIAN X     2.839918     -1.188241  KCAL/ANGSTROM
     29         10  H    CARTESIAN Y    -1.208067     -1.377599  KCAL/ANGSTROM
     30         10  H    CARTESIAN Z     1.237301      0.191216  KCAL/ANGSTROM
     31         11  H    CARTESIAN X     2.544393      0.247836  KCAL/ANGSTROM
     32         11  H    CARTESIAN Y     0.166729      0.244351  KCAL/ANGSTROM
     33         11  H    CARTESIAN Z    -0.717267     -0.545904  KCAL/ANGSTROM
     34         12  H    CARTESIAN X     2.103863     -0.494022  KCAL/ANGSTROM
     35         12  H    CARTESIAN Y     0.978689      0.963317  KCAL/ANGSTROM
     36         12  H    CARTESIAN Z     0.844012      0.233655  KCAL/ANGSTROM
     37         13  H    CARTESIAN X     0.426225      0.315607  KCAL/ANGSTROM
     38         13  H    CARTESIAN Y     1.825032      1.245747  KCAL/ANGSTROM
     39         13  H    CARTESIAN Z    -1.799804     -0.521559  KCAL/ANGSTROM
     40         14  H    CARTESIAN X    -2.007002     -0.741938  KCAL/ANGSTROM
     41         14  H    CARTESIAN Y     2.462960      1.211971  KCAL/ANGSTROM
     42         14  H    CARTESIAN Z    -0.948796     -0.578007  KCAL/ANGSTROM
     43         15  H    CARTESIAN X    -2.839918     -0.456351  KCAL/ANGSTROM
     44         15  H    CARTESIAN Y     0.330668      0.869089  KCAL/ANGSTROM
     45         15  H    CARTESIAN Z     0.346466      0.594964  KCAL/ANGSTROM
     46         16  H    CARTESIAN X    -2.012305     -0.047723  KCAL/ANGSTROM
     47         16  H    CARTESIAN Y     1.393064      0.924192  KCAL/ANGSTROM
     48         16  H    CARTESIAN Z     1.471120      0.918469  KCAL/ANGSTROM
     49         17  H    CARTESIAN X    -0.443495      0.565375  KCAL/ANGSTROM
     50         17  H    CARTESIAN Y    -0.402060     -0.307116  KCAL/ANGSTROM
     51         17  H    CARTESIAN Z     1.799804      1.181804  KCAL/ANGSTROM
     52         18  H    CARTESIAN X    -1.791271      0.731307  KCAL/ANGSTROM
     53         18  H    CARTESIAN Y    -1.782716      1.104221  KCAL/ANGSTROM
     54         18  H    CARTESIAN Z    -0.611308      0.578249  KCAL/ANGSTROM
     55         19  H    CARTESIAN X    -0.448756      1.825564  KCAL/ANGSTROM
     56         19  H    CARTESIAN Y    -2.462960      0.893874  KCAL/ANGSTROM
     57         19  H    CARTESIAN Z     0.357045      1.050143  KCAL/ANGSTROM




   ATOM   CHEMICAL          X               Y               Z
  NUMBER   SYMBOL      (ANGSTROMS)     (ANGSTROMS)     (ANGSTROMS)

     1       O          1.95569129  *  -1.10288272  *   0.80798818  *
     2       C          1.85105190  *   0.14434697  *   0.15132401  *
     3       C          0.40276221  *   0.20129206  *  -0.25343039  *
     4       C         -0.14194884  *   1.33746581  *  -1.02000780  *
     5       C         -1.37496714  *   1.65954803  *  -0.58049340  *
     6       C         -1.84938751  *   0.78665843  *   0.54888803  *
     7       C         -0.73706469  *  -0.24587120  *   0.74908892  *
     8       C         -0.83798025  *  -1.51842580  *  -0.10979933  *
     9       O          0.11914753  *  -1.07115918  *  -1.05742202  *
    10       H          2.83991803  *  -1.20806660  *   1.23730078  *
    11       H          2.54439251  *   0.16672850  *  -0.71726666  *
    12       H          2.10386314  *   0.97868859  *   0.84401168  *
    13       H          0.42622531  *   1.82503188  *  -1.79980441  *
    14       H         -2.00700220  *   2.46296019  *  -0.94879628  *
    15       H         -2.83991803  *   0.33066789  *   0.34646563  *
    16       H         -2.01230544  *   1.39306398  *   1.47111961  *
    17       H         -0.44349472  *  -0.40206039  *   1.79980441  *
    18       H         -1.79127128  *  -1.78271567  *  -0.61130758  *
    19       H         -0.44875613  *  -2.46296019  *   0.35704497  *

                             CARTESIAN COORDINATES

   1    O        1.955691292    -1.102882724     0.807988177
   2    C        1.851051903     0.144346972     0.151324012
   3    C        0.402762209     0.201292055    -0.253430395
   4    C       -0.141948839     1.337465809    -1.020007804
   5    C       -1.374967137     1.659548030    -0.580493403
   6    C       -1.849387509     0.786658431     0.548888027
   7    C       -0.737064690    -0.245871200     0.749088916
   8    C       -0.837980246    -1.518425797    -0.109799334
   9    O        0.119147526    -1.071159184    -1.057422024
  10    H        2.839918034    -1.208066604     1.237300781
  11    H        2.544392511     0.166728502    -0.717266662
  12    H        2.103863137     0.978688587     0.844011685
  13    H        0.426225314     1.825031878    -1.799804411
  14    H       -2.007002196     2.462960195    -0.948796278
  15    H       -2.839918034     0.330667888     0.346465625
  16    H       -2.012305443     1.393063976     1.471119609
  17    H       -0.443494718    -0.402060393     1.799804411
  18    H       -1.791271282    -1.782715670    -0.611307577
  19    H       -0.448756128    -2.462960195     0.357044967


           Empirical Formula: C7 H10 O2  =    19 atoms



      MOLECULAR POINT GROUP   :   C1  


          ALPHA EIGENVALUES  
 -35.55595 -31.37886 -29.94899 -27.15772 -26.71314 -24.19010 -22.89976 -20.31192
 -19.61720 -18.72747 -18.21945 -17.66723 -17.17160 -16.59337 -15.59844 -15.22676
 -14.54617 -14.17102 -13.75543 -13.33757 -13.12826 -12.91765 -12.63768 -11.49875
 -10.96358  -1.03439   0.26545   1.12018   1.66361   2.00093   2.50944   2.65314
   2.82797   3.32825   3.59600   4.10756   4.64699   4.80016   4.84342   4.91153
   5.15830   5.25765   5.39817   5.54938   5.60889   5.83228


           BETA EIGENVALUES 
 -33.42930 -30.01115 -29.94392 -26.88425 -26.27617 -23.95317 -22.76792 -20.15882
 -19.36538 -18.50192 -17.93848 -17.48636 -16.78356 -15.93934 -15.26570 -14.88180
 -14.26415 -13.75375 -13.67599 -13.18662 -13.00711 -12.70943 -11.46923 -10.86971
  -3.54378  -0.65888   0.47695   1.27851   1.84511   2.01165   2.54919   2.67267
   2.85598   3.33878   3.60307   4.26939   4.75264   4.80596   4.84581   4.91471
   5.15708   5.25955   5.39677   5.55379   5.61375   5.83264


              NET ATOMIC CHARGES AND DIPOLE CONTRIBUTIONS

  ATOM NO.   TYPE          CHARGE      No. of ELECS.   s-Pop       p-Pop       
    1          O          -0.612466        6.6125     1.84687     4.76560
    2          C          -0.020848        4.0208     1.09006     2.93078
    3          C           0.118855        3.8811     1.14178     2.73936
    4          C          -0.310242        4.3102     1.08815     3.22209
    5          C           0.016533        3.9835     1.12162     2.86185
    6          C          -0.324685        4.3247     1.06545     3.25924
    7          C          -0.139151        4.1392     1.09563     3.04352
    8          C          -0.195125        4.1951     1.13159     3.06353
    9          O           0.241671        5.7583     1.92891     3.82942
   10          H           0.381354        0.6186     0.61865
   11          H           0.175555        0.8244     0.82445
   12          H           0.182478        0.8175     0.81752
   13          H           0.199832        0.8002     0.80017
   14          H           0.182777        0.8172     0.81722
   15          H           0.196983        0.8030     0.80302
   16          H           0.198205        0.8018     0.80179
   17          H           0.199577        0.8004     0.80042
   18          H           0.246579        0.7534     0.75342
   19          H           0.262117        0.7379     0.73788
 DIPOLE           X         Y         Z       TOTAL
 POINT-CHG.    -1.154    -0.465    -0.213     1.262
 HYBRID         0.376    -0.609    -0.109     0.724
 SUM           -0.779    -1.075    -0.322     1.366


          ATOMIC ORBITAL ELECTRON POPULATIONS

     Atom    s        px        py        pz   
    1  O   1.84687   1.54043   1.43763   1.78754
    2  C   1.09006   0.96663   0.88939   1.07477
    3  C   1.14178   1.00912   0.83080   0.89945
    4  C   1.08815   1.05098   1.05043   1.12068
    5  C   1.12162   0.97585   0.97211   0.91389
    6  C   1.06545   1.08911   1.05940   1.11072
    7  C   1.09563   0.98328   0.95508   1.10515
    8  C   1.13159   1.02485   1.08236   0.95631
    9  O   1.92891   1.22988   1.29967   1.29986
   10  H   0.61865
   11  H   0.82445
   12  H   0.81752
   13  H   0.80017
   14  H   0.81722
   15  H   0.80302
   16  H   0.80179
   17  H   0.80042
   18  H   0.75342
   19  H   0.73788


                    (SZ)    =    0.500000
                    (S**2)  =    0.764223


          ATOMIC ORBITAL SPIN POPULATIONS

    Atom   Total    s     px     py     pz   
         Atomic
    1  O -0.0002  0.000  0.001 -0.001  0.000
    2  C  0.0203  0.002  0.015  0.001  0.002
    3  C -0.0705 -0.005 -0.003 -0.035 -0.027
    4  C  0.0495  0.004  0.006  0.029  0.010
    5  C -0.0314 -0.001 -0.005 -0.012 -0.014
    6  C  0.0046  0.001  0.001  0.002  0.001
    7  C  0.0056  0.000  0.001  0.004  0.000
    8  C -0.0183 -0.008  0.003  0.002 -0.015
    9  O  0.9320  0.015  0.432  0.249  0.236
   10  H  0.0007  0.001
   11  H -0.0013 -0.001
   12  H -0.0014 -0.001
   13  H -0.0008 -0.001
   14  H  0.0014  0.001
   15  H -0.0004 -0.000
   16  H -0.0003 -0.000
   17  H -0.0006 -0.001
   18  H  0.0465  0.046
   19  H  0.0646  0.065

 **********************
 *                    *
 * JOB ENDED NORMALLY *
 *                    *
 **********************



 TOTAL JOB TIME:             1.84 SECONDS

 == MOPAC DONE ==
