 *******************************************************************************
 **                                                                           **
 **                              MOPAC v23.2                                  **
 **                                                                           **
 *******************************************************************************
 **          Digital Object Identifier (DOI): 10.5281/zenodo.6511958          **
 **    Visit the DOI location for information on how to cite this program.    **
 *******************************************************************************

                              PM7 CALCULATION RESULTS

 *******************************************************************************
 *  CALCULATION DONE: (MAX THREADS = 40)             Fri Sep 19 21:31:17 2025  *
 *  PM7        - The PM7 Hamiltonian to be used
 *  EPS=37.5   - USE ANDREAS KLAMT'S COSMO IMPLICIT SOLVATION MODEL
 *  1SCF       - DO 1 SCF AND THEN STOP 
 *  T=         - A TIME OF 172800.0 SECONDS REQUESTED
 *  DUMP=N     - RESTART FILE WRITTEN EVERY 7200.0 SECONDS REQUESTED
 *  RELSCF     - DEFAULT SCF CRITERION MULTIPLIED BY 0.0001
 *              (DEFAULT SCF CRITERION = 0.00010)
 *  GRADIENTS  - ALL GRADIENTS TO BE PRINTED
 *  DISP       - PRINT DISPERSION AND HYDROGEN BOND ENERGIES
 *******************************************************************************
PM7 1SCF GRADIENTS EPS=37.5 DISP RELSCF=0.0001
 Title: ASE calculation

   ATOM   CHEMICAL          X               Y               Z
  NUMBER   SYMBOL      (ANGSTROMS)     (ANGSTROMS)     (ANGSTROMS)

     1       C         -2.43169114  *  -1.08399630  *  -0.84706281  *
     2       C         -1.13993579  *  -0.54665173  *  -0.29851007  *
     3       C         -1.05337589  *   0.75937222  *   0.00386485  *
     4       C          0.06352020  *   1.53338740  *   0.50629712  *
     5       C          1.34059912  *   1.17454316  *   0.69423125  *
     6       C          1.95991052  *  -0.16417662  *   0.45062251  *
     7       C          2.43869876  *  -0.24152755  *  -1.00625698  *
     8       C          1.01354071  *  -1.31355617  *   0.83848335  *
     9       C         -0.08580492  *  -1.59775215  *  -0.18545011  *
    10       H         -2.27572977  *  -1.57307023  *  -1.81892924  *
    11       H         -3.18831944  *  -0.30311978  *  -0.99972471  *
    12       H         -2.87282229  *  -1.82674544  *  -0.16747743  *
    13       H         -1.95223015  *   1.37579456  *  -0.14243618  *
    14       H         -0.21361745  *   2.57189581  *   0.74248023  *
    15       H          2.05320519  *   1.91764221  *   1.06092811  *
    16       H          2.86471789  *  -0.25741971  *   1.11131850  *
    17       H          3.18831944  *   0.52970298  *  -1.21462035  *
    18       H          1.60882802  *  -0.07986878  *  -1.70556401  *
    19       H          2.88686791  *  -1.21488440  *  -1.22592754  *
    20       H          0.55165664  *  -1.07891666  *   1.81892924  *
    21       H          1.60786874  *  -2.23562077  *   0.99164508  *
    22       H          0.36571680  *  -1.76021201  *  -1.18949139  *
    23       H         -0.55820892  *  -2.57189581  *   0.07406459  *



          CARTESIAN COORDINATES 

    NO.       ATOM           X           Y           Z

     1         C         -2.4317     -1.0840     -0.8471
     2         C         -1.1399     -0.5467     -0.2985
     3         C         -1.0534      0.7594      0.0039
     4         C          0.0635      1.5334      0.5063
     5         C          1.3406      1.1745      0.6942
     6         C          1.9599     -0.1642      0.4506
     7         C          2.4387     -0.2415     -1.0063
     8         C          1.0135     -1.3136      0.8385
     9         C         -0.0858     -1.5978     -0.1855
    10         H         -2.2757     -1.5731     -1.8189
    11         H         -3.1883     -0.3031     -0.9997
    12         H         -2.8728     -1.8267     -0.1675
    13         H         -1.9522      1.3758     -0.1424
    14         H         -0.2136      2.5719      0.7425
    15         H          2.0532      1.9176      1.0609
    16         H          2.8647     -0.2574      1.1113
    17         H          3.1883      0.5297     -1.2146
    18         H          1.6088     -0.0799     -1.7056
    19         H          2.8869     -1.2149     -1.2259
    20         H          0.5517     -1.0789      1.8189
    21         H          1.6079     -2.2356      0.9916
    22         H          0.3657     -1.7602     -1.1895
    23         H         -0.5582     -2.5719      0.0741

 General Reference for PM7:
 "Optimization of Parameters for Semiempirical Methods VI: More Modifications to the 
 NDDO Approximations and Re-optimization of Parameters", J. J. P. Stewart, J. Mol. Mod., 1:32, 19 (2013)
 https://link.springer.com/article/10.1007/s00894-012-1667-x

           Empirical Formula: C9 H14  =    23 atoms



      MOLECULAR POINT GROUP   :   C1  


      RHF CALCULATION, NO. OF DOUBLY OCCUPIED LEVELS = 25

  SCF CRITERION =    0.1000E-07

 -------------------------------------------------------------------------------
 PM7 1SCF GRADIENTS EPS=37.5 DISP RELSCF=0.0001
 Title: ASE calculation



     1SCF WAS SPECIFIED, SO BFGS WAS NOT USED                 
     SCF FIELD WAS ACHIEVED                                   


                              PM7 CALCULATION
                                                       MOPAC v23.2 Linux
                                                       Fri Sep 19 21:31:18 2025




          FINAL HEAT OF FORMATION =          1.18501 KCAL/MOL =       4.95806 KJ/MOL

          TOTAL ENERGY            =     -29848.58786 KCAL/MOL = ELECTRONIC ENERGY + CORE-CORE REPULSION + SOLVATION ENERGY
          ENERGY OF ATOMS         =      29852.41387 KCAL/MOL
                              SUM =          3.82600 KCAL/MOL
          DISPERSION ENERGY       =         -2.64100 KCAL/MOL
                              SUM =          1.18501 KCAL/MOL = FINAL HEAT OF FORMATION

          VAN DER WAALS AREA      =        173.16 SQUARE ANGSTROMS


          TOTAL ENERGY            =      -1294.35728 EV
          ELECTRONIC ENERGY       =      -2179.14853 EV 
          CORE-CORE REPULSION     =        884.79125 EV

          DIELECTRIC ENERGY       =         -0.12761 EV
          COSMO AREA              =        173.16 SQUARE ANGSTROMS
          COSMO VOLUME            =        179.22 CUBIC ANGSTROMS

          GRADIENT NORM           =          6.61884          =       1.38012 PER ATOM
          IONIZATION POTENTIAL    =          8.855386 EV
          HOMO LUMO ENERGIES (EV) =         -8.855  0.305
          NO. OF FILLED LEVELS    =         25
          MOLECULAR WEIGHT        =        122.2096         POINT GROUP:  C1  

          MOLECULAR DIMENSIONS (Angstroms)

            Atom       Atom       Distance
            H    17    H    12     6.58687
            H    14    H    21     5.14637
            H    10    H    20     4.00846


          SCF CALCULATIONS        =          2

          WALL-CLOCK TIME         =      0.938 SECONDS
          COMPUTATION TIME        =      0.945 SECONDS

          LARGEST ATOMIC GRADIENTS

          Atom     Label                     Cartesian Gradients           Cartesian Coordinates       |Gradient|
                                           X          Y          Z        X          Y          Z

             1       C                  -2.042     -2.684     -1.436   -2.43169   -1.08400   -0.84706      3.665
             2       C                   0.467      2.221      0.823   -1.13994   -0.54665   -0.29851      2.414
             9       C                   0.574     -1.991     -1.181   -0.08580   -1.59775   -0.18545      2.385
             7       C                   0.739     -1.386     -0.835    2.43870   -0.24153   -1.00626      1.779
             3       C                  -0.805     -1.146     -0.888   -1.05338    0.75937    0.00386      1.658
             8       C                   0.876     -1.103      0.177    1.01354   -1.31356    0.83848      1.419
             4       C                   0.662      0.958      0.476    0.06352    1.53339    0.50630      1.258
            23       H                  -0.084      0.844      0.533   -0.55821   -2.57190    0.07406      1.001
            12       H                   0.303      0.857      0.409   -2.87282   -1.82675   -0.16748      0.997
            15       H                  -0.816     -0.507     -0.231    2.05321    1.91764    1.06093      0.988



       FINAL  POINT  AND  DERIVATIVES

   PARAMETER     ATOM    TYPE            VALUE        GRADIENT
      1          1  C    CARTESIAN X    -2.431691     -2.041514  KCAL/ANGSTROM
      2          1  C    CARTESIAN Y    -1.083996     -2.683833  KCAL/ANGSTROM
      3          1  C    CARTESIAN Z    -0.847063     -1.436097  KCAL/ANGSTROM
      4          2  C    CARTESIAN X    -1.139936      0.466942  KCAL/ANGSTROM
      5          2  C    CARTESIAN Y    -0.546652      2.220736  KCAL/ANGSTROM
      6          2  C    CARTESIAN Z    -0.298510      0.822541  KCAL/ANGSTROM
      7          3  C    CARTESIAN X    -1.053376     -0.804902  KCAL/ANGSTROM
      8          3  C    CARTESIAN Y     0.759372     -1.145633  KCAL/ANGSTROM
      9          3  C    CARTESIAN Z     0.003865     -0.887602  KCAL/ANGSTROM
     10          4  C    CARTESIAN X     0.063520      0.662254  KCAL/ANGSTROM
     11          4  C    CARTESIAN Y     1.533387      0.957742  KCAL/ANGSTROM
     12          4  C    CARTESIAN Z     0.506297      0.475595  KCAL/ANGSTROM
     13          5  C    CARTESIAN X     1.340599      0.409005  KCAL/ANGSTROM
     14          5  C    CARTESIAN Y     1.174543      0.507986  KCAL/ANGSTROM
     15          5  C    CARTESIAN Z     0.694231      0.634706  KCAL/ANGSTROM
     16          6  C    CARTESIAN X     1.959911      0.388176  KCAL/ANGSTROM
     17          6  C    CARTESIAN Y    -0.164177     -0.055849  KCAL/ANGSTROM
     18          6  C    CARTESIAN Z     0.450623      0.008085  KCAL/ANGSTROM
     19          7  C    CARTESIAN X     2.438699      0.739467  KCAL/ANGSTROM
     20          7  C    CARTESIAN Y    -0.241528     -1.385812  KCAL/ANGSTROM
     21          7  C    CARTESIAN Z    -1.006257     -0.835187  KCAL/ANGSTROM
     22          8  C    CARTESIAN X     1.013541      0.875561  KCAL/ANGSTROM
     23          8  C    CARTESIAN Y    -1.313556     -1.103156  KCAL/ANGSTROM
     24          8  C    CARTESIAN Z     0.838483      0.176987  KCAL/ANGSTROM
     25          9  C    CARTESIAN X    -0.085805      0.574215  KCAL/ANGSTROM
     26          9  C    CARTESIAN Y    -1.597752     -1.991026  KCAL/ANGSTROM
     27          9  C    CARTESIAN Z    -0.185450     -1.181320  KCAL/ANGSTROM
     28         10  H    CARTESIAN X    -2.275730      0.375465  KCAL/ANGSTROM
     29         10  H    CARTESIAN Y    -1.573070      0.907165  KCAL/ANGSTROM
     30         10  H    CARTESIAN Z    -1.818929      0.028886  KCAL/ANGSTROM
     31         11  H    CARTESIAN X    -3.188319      0.717545  KCAL/ANGSTROM
     32         11  H    CARTESIAN Y    -0.303120      0.249944  KCAL/ANGSTROM
     33         11  H    CARTESIAN Z    -0.999725      0.402098  KCAL/ANGSTROM
     34         12  H    CARTESIAN X    -2.872822      0.302871  KCAL/ANGSTROM
     35         12  H    CARTESIAN Y    -1.826745      0.857303  KCAL/ANGSTROM
     36         12  H    CARTESIAN Z    -0.167477      0.408757  KCAL/ANGSTROM
     37         13  H    CARTESIAN X    -1.952230      0.146176  KCAL/ANGSTROM
     38         13  H    CARTESIAN Y     1.375795     -0.103878  KCAL/ANGSTROM
     39         13  H    CARTESIAN Z    -0.142436      0.382000  KCAL/ANGSTROM
     40         14  H    CARTESIAN X    -0.213617      0.051218  KCAL/ANGSTROM
     41         14  H    CARTESIAN Y     2.571896     -0.215652  KCAL/ANGSTROM
     42         14  H    CARTESIAN Z     0.742480     -0.173571  KCAL/ANGSTROM
     43         15  H    CARTESIAN X     2.053205     -0.815672  KCAL/ANGSTROM
     44         15  H    CARTESIAN Y     1.917642     -0.506824  KCAL/ANGSTROM
     45         15  H    CARTESIAN Z     1.060928     -0.230772  KCAL/ANGSTROM
     46         16  H    CARTESIAN X     2.864718     -0.668685  KCAL/ANGSTROM
     47         16  H    CARTESIAN Y    -0.257420      0.044926  KCAL/ANGSTROM
     48         16  H    CARTESIAN Z     1.111318     -0.177220  KCAL/ANGSTROM
     49         17  H    CARTESIAN X     3.188319     -0.587298  KCAL/ANGSTROM
     50         17  H    CARTESIAN Y     0.529703     -0.023332  KCAL/ANGSTROM
     51         17  H    CARTESIAN Z    -1.214620      0.089967  KCAL/ANGSTROM
     52         18  H    CARTESIAN X     1.608828     -0.463227  KCAL/ANGSTROM
     53         18  H    CARTESIAN Y    -0.079869      0.496296  KCAL/ANGSTROM
     54         18  H    CARTESIAN Z    -1.705564      0.024548  KCAL/ANGSTROM
     55         19  H    CARTESIAN X     2.886868      0.260023  KCAL/ANGSTROM
     56         19  H    CARTESIAN Y    -1.214884      0.671505  KCAL/ANGSTROM
     57         19  H    CARTESIAN Z    -1.225928      0.341066  KCAL/ANGSTROM
     58         20  H    CARTESIAN X     0.551657     -0.292644  KCAL/ANGSTROM
     59         20  H    CARTESIAN Y    -1.078917      0.716843  KCAL/ANGSTROM
     60         20  H    CARTESIAN Z     1.818929     -0.050091  KCAL/ANGSTROM
     61         21  H    CARTESIAN X     1.607869     -0.285353  KCAL/ANGSTROM
     62         21  H    CARTESIAN Y    -2.235621      0.171633  KCAL/ANGSTROM
     63         21  H    CARTESIAN Z     0.991645     -0.035048  KCAL/ANGSTROM
     64         22  H    CARTESIAN X     0.365717      0.074325  KCAL/ANGSTROM
     65         22  H    CARTESIAN Y    -1.760212      0.568991  KCAL/ANGSTROM
     66         22  H    CARTESIAN Z    -1.189491      0.679111  KCAL/ANGSTROM
     67         23  H    CARTESIAN X    -0.558209     -0.083949  KCAL/ANGSTROM
     68         23  H    CARTESIAN Y    -2.571896      0.843923  KCAL/ANGSTROM
     69         23  H    CARTESIAN Z     0.074065      0.532557  KCAL/ANGSTROM




   ATOM   CHEMICAL          X               Y               Z
  NUMBER   SYMBOL      (ANGSTROMS)     (ANGSTROMS)     (ANGSTROMS)

     1       C         -2.43169114  *  -1.08399630  *  -0.84706281  *
     2       C         -1.13993579  *  -0.54665173  *  -0.29851007  *
     3       C         -1.05337589  *   0.75937222  *   0.00386485  *
     4       C          0.06352020  *   1.53338740  *   0.50629712  *
     5       C          1.34059912  *   1.17454316  *   0.69423125  *
     6       C          1.95991052  *  -0.16417662  *   0.45062251  *
     7       C          2.43869876  *  -0.24152755  *  -1.00625698  *
     8       C          1.01354071  *  -1.31355617  *   0.83848335  *
     9       C         -0.08580492  *  -1.59775215  *  -0.18545011  *
    10       H         -2.27572977  *  -1.57307023  *  -1.81892924  *
    11       H         -3.18831944  *  -0.30311978  *  -0.99972471  *
    12       H         -2.87282229  *  -1.82674544  *  -0.16747743  *
    13       H         -1.95223015  *   1.37579456  *  -0.14243618  *
    14       H         -0.21361745  *   2.57189581  *   0.74248023  *
    15       H          2.05320519  *   1.91764221  *   1.06092811  *
    16       H          2.86471789  *  -0.25741971  *   1.11131850  *
    17       H          3.18831944  *   0.52970298  *  -1.21462035  *
    18       H          1.60882802  *  -0.07986878  *  -1.70556401  *
    19       H          2.88686791  *  -1.21488440  *  -1.22592754  *
    20       H          0.55165664  *  -1.07891666  *   1.81892924  *
    21       H          1.60786874  *  -2.23562077  *   0.99164508  *
    22       H          0.36571680  *  -1.76021201  *  -1.18949139  *
    23       H         -0.55820892  *  -2.57189581  *   0.07406459  *

                             CARTESIAN COORDINATES

   1    C       -2.431691141    -1.083996296    -0.847062811
   2    C       -1.139935787    -0.546651733    -0.298510066
   3    C       -1.053375894     0.759372221     0.003864853
   4    C        0.063520204     1.533387401     0.506297120
   5    C        1.340599121     1.174543157     0.694231246
   6    C        1.959910518    -0.164176623     0.450622508
   7    C        2.438698757    -0.241527546    -1.006256984
   8    C        1.013540710    -1.313556173     0.838483349
   9    C       -0.085804919    -1.597752147    -0.185450107
  10    H       -2.275729774    -1.573070234    -1.818929242
  11    H       -3.188319439    -0.303119783    -0.999724709
  12    H       -2.872822293    -1.826745442    -0.167477434
  13    H       -1.952230150     1.375794561    -0.142436179
  14    H       -0.213617447     2.571895807     0.742480227
  15    H        2.053205190     1.917642215     1.060928112
  16    H        2.864717895    -0.257419708     1.111318498
  17    H        3.188319439     0.529702980    -1.214620346
  18    H        1.608828021    -0.079868779    -1.705564010
  19    H        2.886867913    -1.214884397    -1.225927540
  20    H        0.551656639    -1.078916656     1.818929242
  21    H        1.607868736    -2.235620770     0.991645077
  22    H        0.365716799    -1.760212008    -1.189491387
  23    H       -0.558208919    -2.571895807     0.074064594


           Empirical Formula: C9 H14  =    23 atoms



      MOLECULAR POINT GROUP   :   C1  


                  EIGENVALUES  
 -30.13435 -28.03440 -26.70608 -24.90183 -23.46949 -22.39255 -20.95153 -18.06709
 -17.24536 -16.61246 -16.03122 -14.67640 -14.58972 -14.30502 -13.98961 -13.57582
 -13.23905 -12.71779 -12.37565 -12.05851 -11.69968 -11.15889 -11.07062 -11.00175
  -8.85539   0.30501   1.99713   3.80754   4.18664   4.25746   4.42838   4.48267
   4.94773   5.18402   5.47425   5.70027   5.71282   5.75945   5.85751   5.92849
   5.96483   6.06548   6.18997   6.33289   6.40510   6.46089   6.61901   6.68251
   6.93618   7.12543


              NET ATOMIC CHARGES AND DIPOLE CONTRIBUTIONS

  ATOM NO.   TYPE          CHARGE      No. of ELECS.   s-Pop       p-Pop       
    1          C          -0.488067        4.4881     1.05616     3.43190
    2          C           0.082399        3.9176     1.08308     2.83452
    3          C          -0.273969        4.2740     1.07357     3.20040
    4          C          -0.168461        4.1685     1.07857     3.08989
    5          C          -0.173531        4.1735     1.09606     3.07747
    6          C          -0.089171        4.0892     1.05356     3.03561
    7          C          -0.448335        4.4483     1.05566     3.39268
    8          C          -0.272861        4.2729     1.06026     3.21260
    9          C          -0.298263        4.2983     1.05604     3.24222
   10          H           0.167410        0.8326     0.83259
   11          H           0.161528        0.8385     0.83847
   12          H           0.168097        0.8319     0.83190
   13          H           0.153408        0.8466     0.84659
   14          H           0.145603        0.8544     0.85440
   15          H           0.144062        0.8559     0.85594
   16          H           0.138662        0.8613     0.86134
   17          H           0.146727        0.8533     0.85327
   18          H           0.151936        0.8481     0.84806
   19          H           0.148120        0.8519     0.85188
   20          H           0.144410        0.8556     0.85559
   21          H           0.139114        0.8609     0.86089
   22          H           0.166706        0.8333     0.83329
   23          H           0.154477        0.8455     0.84552
 DIPOLE           X         Y         Z       TOTAL
 POINT-CHG.     0.099    -1.410    -0.416     1.473
 HYBRID        -0.137    -0.071    -0.146     0.212
 SUM           -0.038    -1.480    -0.563     1.584


          ATOMIC ORBITAL ELECTRON POPULATIONS

     Atom    s        px        py        pz   
    1  C   1.05616   1.08257   1.17966   1.16968
    2  C   1.08308   0.94918   0.96824   0.91711
    3  C   1.07357   1.07023   1.02053   1.10965
    4  C   1.07857   0.99054   1.07463   1.02472
    5  C   1.09606   1.02615   1.03960   1.01171
    6  C   1.05356   1.04979   0.97260   1.01322
    7  C   1.05566   1.16397   1.17301   1.05570
    8  C   1.06026   1.04861   1.08208   1.08191
    9  C   1.05604   1.04512   1.07943   1.11767
   10  H   0.83259
   11  H   0.83847
   12  H   0.83190
   13  H   0.84659
   14  H   0.85440
   15  H   0.85594
   16  H   0.86134
   17  H   0.85327
   18  H   0.84806
   19  H   0.85188
   20  H   0.85559
   21  H   0.86089
   22  H   0.83329
   23  H   0.84552

 **********************
 *                    *
 * JOB ENDED NORMALLY *
 *                    *
 **********************



 TOTAL JOB TIME:             1.44 SECONDS

 == MOPAC DONE ==
