 *******************************************************************************
 **                                                                           **
 **                              MOPAC v23.2                                  **
 **                                                                           **
 *******************************************************************************
 **          Digital Object Identifier (DOI): 10.5281/zenodo.6511958          **
 **    Visit the DOI location for information on how to cite this program.    **
 *******************************************************************************

                              PM7 CALCULATION RESULTS

 *******************************************************************************
 *  CALCULATION DONE: (MAX THREADS = 40)             Fri Sep 19 21:33:51 2025  *
 *  PM7        - The PM7 Hamiltonian to be used
 *  1SCF       - DO 1 SCF AND THEN STOP 
 *  T=         - A TIME OF 172800.0 SECONDS REQUESTED
 *  DUMP=N     - RESTART FILE WRITTEN EVERY 7200.0 SECONDS REQUESTED
 *  RELSCF     - DEFAULT SCF CRITERION MULTIPLIED BY 0.0001
 *              (DEFAULT SCF CRITERION = 0.00010)
 *  GRADIENTS  - ALL GRADIENTS TO BE PRINTED
 *  DISP       - PRINT DISPERSION AND HYDROGEN BOND ENERGIES
 *******************************************************************************
PM7 1SCF GRADIENTS DISP RELSCF=0.0001
 Title: ASE calculation

   ATOM   CHEMICAL          X               Y               Z
  NUMBER   SYMBOL      (ANGSTROMS)     (ANGSTROMS)     (ANGSTROMS)

     1       O         -2.05167056  *   1.65864691  *  -0.96284254  *
     2       C         -1.02618063  *   1.04567567  *  -1.12660312  *
     3       C          0.01263637  *   1.00235039  *  -0.02397942  *
     4       O         -0.15723456  *   2.04265413  *   0.88797979  *
     5       C          1.52257263  *   1.04472410  *  -0.49981970  *
     6       N          2.05409542  *  -0.24942576  *   0.06970301  *
     7       C          1.42148993  *  -0.20897273  *   1.47665768  *
     8       C          0.05436019  *  -0.38200950  *   0.70810277  *
     9       C          0.91264058  *  -1.21279494  *  -0.31518516  *
    10       H         -0.81956380  *   0.50094337  *  -2.05376563  *
    11       H         -1.10246526  *   2.33377287  *   0.92064419  *
    12       H          2.05861097  *   1.90698705  *  -0.06392723  *
    13       H          1.64663042  *   1.07656676  *  -1.58955830  *
    14       H          1.73972086  *  -1.05806495  *   2.08786431  *
    15       H          1.56798987  *   0.72034542  *   2.03514353  *
    16       H         -0.83494995  *  -0.75326023  *   1.17935492  *
    17       H          1.14277309  *  -2.24138342  *  -0.01552116  *
    18       H          0.62483163  *  -1.21111759  *  -1.36510914  *



          CARTESIAN COORDINATES 

    NO.       ATOM           X           Y           Z

     1         O         -2.0517      1.6586     -0.9628
     2         C         -1.0262      1.0457     -1.1266
     3         C          0.0126      1.0024     -0.0240
     4         O         -0.1572      2.0427      0.8880
     5         C          1.5226      1.0447     -0.4998
     6         N          2.0541     -0.2494      0.0697
     7         C          1.4215     -0.2090      1.4767
     8         C          0.0544     -0.3820      0.7081
     9         C          0.9126     -1.2128     -0.3152
    10         H         -0.8196      0.5009     -2.0538
    11         H         -1.1025      2.3338      0.9206
    12         H          2.0586      1.9070     -0.0639
    13         H          1.6466      1.0766     -1.5896
    14         H          1.7397     -1.0581      2.0879
    15         H          1.5680      0.7203      2.0351
    16         H         -0.8349     -0.7533      1.1794
    17         H          1.1428     -2.2414     -0.0155
    18         H          0.6248     -1.2111     -1.3651

 General Reference for PM7:
 "Optimization of Parameters for Semiempirical Methods VI: More Modifications to the 
 NDDO Approximations and Re-optimization of Parameters", J. J. P. Stewart, J. Mol. Mod., 1:32, 19 (2013)
 https://link.springer.com/article/10.1007/s00894-012-1667-x

           Empirical Formula: C6 H9 N O2  =    18 atoms



      MOLECULAR POINT GROUP   :   C1  


      RHF CALCULATION, NO. OF DOUBLY OCCUPIED LEVELS = 25

  SCF CRITERION =    0.1000E-07

 -------------------------------------------------------------------------------
 PM7 1SCF GRADIENTS DISP RELSCF=0.0001
 Title: ASE calculation



     1SCF WAS SPECIFIED, SO BFGS WAS NOT USED                 
     SCF FIELD WAS ACHIEVED                                   


                              PM7 CALCULATION
                                                       MOPAC v23.2 Linux
                                                       Fri Sep 19 21:33:51 2025




          FINAL HEAT OF FORMATION =        -20.79693 KCAL/MOL =     -87.01436 KJ/MOL

          TOTAL ENERGY            =     -37657.97537 KCAL/MOL = ELECTRONIC ENERGY + CORE-CORE REPULSION
          ENERGY OF ATOMS         =      37638.97832 KCAL/MOL
                              SUM =        -18.99706 KCAL/MOL
          DISPERSION ENERGY       =         -1.58344 KCAL/MOL
          H-BOND ENERGY           =         -0.21644 KCAL/MOL
                              SUM =        -20.79693 KCAL/MOL = FINAL HEAT OF FORMATION



          TOTAL ENERGY            =      -1633.00437 EV
          ELECTRONIC ENERGY       =      -7821.56617 EV 
          CORE-CORE REPULSION     =       6188.56180 EV
          COSMO AREA              =        150.80 SQUARE ANGSTROMS
          COSMO VOLUME            =        152.76 CUBIC ANGSTROMS

          GRADIENT NORM           =          0.88399          =       0.20836 PER ATOM
          IONIZATION POTENTIAL    =         10.063821 EV
          HOMO LUMO ENERGIES (EV) =        -10.064 -0.085
          NO. OF FILLED LEVELS    =         25
          MOLECULAR WEIGHT        =        127.1426         POINT GROUP:  C1  

          MOLECULAR DIMENSIONS (Angstroms)

            Atom       Atom       Distance
            H    14    O     1     5.57333
            H    11    H    18     4.24805
            H    12    H    16     4.10581


          SCF CALCULATIONS        =          1

          WALL-CLOCK TIME         =      0.906 SECONDS
          COMPUTATION TIME        =      0.582 SECONDS

          LARGEST ATOMIC GRADIENTS

          Atom     Label                     Cartesian Gradients           Cartesian Coordinates       |Gradient|
                                           X          Y          Z        X          Y          Z

            10       H                   0.315     -0.215     -0.032   -0.81956    0.50094   -2.05377      0.383
             1       O                  -0.230     -0.028      0.206   -2.05167    1.65865   -0.96284      0.310
             6       N                   0.182     -0.218     -0.018    2.05410   -0.24943    0.06970      0.285
            16       H                  -0.233      0.141     -0.071   -0.83495   -0.75326    1.17935      0.281
             2       C                  -0.188     -0.032     -0.190   -1.02618    1.04568   -1.12660      0.269
             5       C                   0.201     -0.146      0.061    1.52257    1.04472   -0.49982      0.256
            12       H                   0.094     -0.140      0.114    2.05861    1.90699   -0.06393      0.204
             7       C                   0.182      0.045     -0.077    1.42149   -0.20897    1.47666      0.203
             3       C                  -0.150      0.111     -0.045    0.01264    1.00235   -0.02398      0.192
            17       H                  -0.039      0.157     -0.088    1.14277   -2.24138   -0.01552      0.184



       FINAL  POINT  AND  DERIVATIVES

   PARAMETER     ATOM    TYPE            VALUE        GRADIENT
      1          1  O    CARTESIAN X    -2.051671     -0.229643  KCAL/ANGSTROM
      2          1  O    CARTESIAN Y     1.658647     -0.027886  KCAL/ANGSTROM
      3          1  O    CARTESIAN Z    -0.962843      0.205794  KCAL/ANGSTROM
      4          2  C    CARTESIAN X    -1.026181     -0.187530  KCAL/ANGSTROM
      5          2  C    CARTESIAN Y     1.045676     -0.032376  KCAL/ANGSTROM
      6          2  C    CARTESIAN Z    -1.126603     -0.189890  KCAL/ANGSTROM
      7          3  C    CARTESIAN X     0.012636     -0.149775  KCAL/ANGSTROM
      8          3  C    CARTESIAN Y     1.002350      0.110801  KCAL/ANGSTROM
      9          3  C    CARTESIAN Z    -0.023979     -0.044633  KCAL/ANGSTROM
     10          4  O    CARTESIAN X    -0.157235     -0.035467  KCAL/ANGSTROM
     11          4  O    CARTESIAN Y     2.042654      0.057705  KCAL/ANGSTROM
     12          4  O    CARTESIAN Z     0.887980      0.083996  KCAL/ANGSTROM
     13          5  C    CARTESIAN X     1.522573      0.201130  KCAL/ANGSTROM
     14          5  C    CARTESIAN Y     1.044724     -0.146472  KCAL/ANGSTROM
     15          5  C    CARTESIAN Z    -0.499820      0.060678  KCAL/ANGSTROM
     16          6  N    CARTESIAN X     2.054095      0.182291  KCAL/ANGSTROM
     17          6  N    CARTESIAN Y    -0.249426     -0.218447  KCAL/ANGSTROM
     18          6  N    CARTESIAN Z     0.069703     -0.017703  KCAL/ANGSTROM
     19          7  C    CARTESIAN X     1.421490      0.182071  KCAL/ANGSTROM
     20          7  C    CARTESIAN Y    -0.208973      0.044966  KCAL/ANGSTROM
     21          7  C    CARTESIAN Z     1.476658     -0.077488  KCAL/ANGSTROM
     22          8  C    CARTESIAN X     0.054360     -0.006814  KCAL/ANGSTROM
     23          8  C    CARTESIAN Y    -0.382009      0.091105  KCAL/ANGSTROM
     24          8  C    CARTESIAN Z     0.708103      0.029262  KCAL/ANGSTROM
     25          9  C    CARTESIAN X     0.912641     -0.016966  KCAL/ANGSTROM
     26          9  C    CARTESIAN Y    -1.212795      0.141949  KCAL/ANGSTROM
     27          9  C    CARTESIAN Z    -0.315185     -0.032505  KCAL/ANGSTROM
     28         10  H    CARTESIAN X    -0.819564      0.315014  KCAL/ANGSTROM
     29         10  H    CARTESIAN Y     0.500943     -0.215128  KCAL/ANGSTROM
     30         10  H    CARTESIAN Z    -2.053766     -0.032499  KCAL/ANGSTROM
     31         11  H    CARTESIAN X    -1.102465     -0.050649  KCAL/ANGSTROM
     32         11  H    CARTESIAN Y     2.333773     -0.039502  KCAL/ANGSTROM
     33         11  H    CARTESIAN Z     0.920644      0.045372  KCAL/ANGSTROM
     34         12  H    CARTESIAN X     2.058611      0.094080  KCAL/ANGSTROM
     35         12  H    CARTESIAN Y     1.906987     -0.140202  KCAL/ANGSTROM
     36         12  H    CARTESIAN Z    -0.063927      0.114430  KCAL/ANGSTROM
     37         13  H    CARTESIAN X     1.646630     -0.123127  KCAL/ANGSTROM
     38         13  H    CARTESIAN Y     1.076567      0.049772  KCAL/ANGSTROM
     39         13  H    CARTESIAN Z    -1.589558      0.058919  KCAL/ANGSTROM
     40         14  H    CARTESIAN X     1.739721      0.019604  KCAL/ANGSTROM
     41         14  H    CARTESIAN Y    -1.058065      0.040756  KCAL/ANGSTROM
     42         14  H    CARTESIAN Z     2.087864      0.023094  KCAL/ANGSTROM
     43         15  H    CARTESIAN X     1.567990      0.044862  KCAL/ANGSTROM
     44         15  H    CARTESIAN Y     0.720345      0.063077  KCAL/ANGSTROM
     45         15  H    CARTESIAN Z     2.035144     -0.040350  KCAL/ANGSTROM
     46         16  H    CARTESIAN X    -0.834950     -0.232623  KCAL/ANGSTROM
     47         16  H    CARTESIAN Y    -0.753260      0.140619  KCAL/ANGSTROM
     48         16  H    CARTESIAN Z     1.179355     -0.070584  KCAL/ANGSTROM
     49         17  H    CARTESIAN X     1.142773     -0.039354  KCAL/ANGSTROM
     50         17  H    CARTESIAN Y    -2.241383      0.156789  KCAL/ANGSTROM
     51         17  H    CARTESIAN Z    -0.015521     -0.087619  KCAL/ANGSTROM
     52         18  H    CARTESIAN X     0.624832      0.032914  KCAL/ANGSTROM
     53         18  H    CARTESIAN Y    -1.211118     -0.077537  KCAL/ANGSTROM
     54         18  H    CARTESIAN Z    -1.365109     -0.028317  KCAL/ANGSTROM




   ATOM   CHEMICAL          X               Y               Z
  NUMBER   SYMBOL      (ANGSTROMS)     (ANGSTROMS)     (ANGSTROMS)

     1       O         -2.05167056  *   1.65864691  *  -0.96284254  *
     2       C         -1.02618063  *   1.04567567  *  -1.12660312  *
     3       C          0.01263637  *   1.00235039  *  -0.02397942  *
     4       O         -0.15723456  *   2.04265413  *   0.88797979  *
     5       C          1.52257263  *   1.04472410  *  -0.49981970  *
     6       N          2.05409542  *  -0.24942576  *   0.06970301  *
     7       C          1.42148993  *  -0.20897273  *   1.47665768  *
     8       C          0.05436019  *  -0.38200950  *   0.70810277  *
     9       C          0.91264058  *  -1.21279494  *  -0.31518516  *
    10       H         -0.81956380  *   0.50094337  *  -2.05376563  *
    11       H         -1.10246526  *   2.33377287  *   0.92064419  *
    12       H          2.05861097  *   1.90698705  *  -0.06392723  *
    13       H          1.64663042  *   1.07656676  *  -1.58955830  *
    14       H          1.73972086  *  -1.05806495  *   2.08786431  *
    15       H          1.56798987  *   0.72034542  *   2.03514353  *
    16       H         -0.83494995  *  -0.75326023  *   1.17935492  *
    17       H          1.14277309  *  -2.24138342  *  -0.01552116  *
    18       H          0.62483163  *  -1.21111759  *  -1.36510914  *

                             CARTESIAN COORDINATES

   1    O       -2.051670559     1.658646908    -0.962842536
   2    C       -1.026180628     1.045675667    -1.126603125
   3    C        0.012636370     1.002350391    -0.023979422
   4    O       -0.157234558     2.042654134     0.887979787
   5    C        1.522572627     1.044724105    -0.499819699
   6    N        2.054095415    -0.249425763     0.069703005
   7    C        1.421489933    -0.208972730     1.476657684
   8    C        0.054360187    -0.382009497     0.708102767
   9    C        0.912640584    -1.212794936    -0.315185157
  10    H       -0.819563795     0.500943371    -2.053765626
  11    H       -1.102465262     2.333772871     0.920644192
  12    H        2.058610967     1.906987051    -0.063927228
  13    H        1.646630416     1.076566761    -1.589558304
  14    H        1.739720861    -1.058064953     2.087864313
  15    H        1.567989870     0.720345418     2.035143532
  16    H       -0.834949949    -0.753260227     1.179354922
  17    H        1.142773088    -2.241383416    -0.015521157
  18    H        0.624831631    -1.211117594    -1.365109137


           Empirical Formula: C6 H9 N O2  =    18 atoms



      MOLECULAR POINT GROUP   :   C1  


                  EIGENVALUES  
 -36.56508 -31.84961 -29.67133 -26.70941 -25.79970 -23.85856 -22.37720 -20.60787
 -19.49430 -18.08757 -17.29338 -16.94903 -15.78735 -15.39259 -14.80710 -14.29240
 -13.63888 -13.44001 -13.17156 -12.89345 -12.65912 -12.19481 -11.31812 -10.52374
 -10.06382  -0.08466   1.86511   2.17023   2.68071   2.79137   2.83382   3.20852
   3.33621   3.60538   4.26060   4.30696   4.65892   5.12059   5.21442   5.50939
   5.58492   5.60231   5.70304   5.91803   5.97627


              NET ATOMIC CHARGES AND DIPOLE CONTRIBUTIONS

  ATOM NO.   TYPE          CHARGE      No. of ELECS.   s-Pop       p-Pop       
    1          O          -0.408140        6.4081     1.87901     4.52913
    2          C           0.279582        3.7204     1.16046     2.55996
    3          C           0.129089        3.8709     1.11328     2.75763
    4          O          -0.528618        6.5286     1.84871     4.67991
    5          C          -0.168021        4.1680     1.09388     3.07414
    6          N          -0.337692        5.3377     1.77945     3.55824
    7          C          -0.138237        4.1382     1.09629     3.04195
    8          C          -0.206108        4.2061     1.10676     3.09935
    9          C          -0.172098        4.1721     1.09341     3.07869
   10          H           0.124166        0.8758     0.87583
   11          H           0.341491        0.6585     0.65851
   12          H           0.174029        0.8260     0.82597
   13          H           0.146852        0.8531     0.85315
   14          H           0.148477        0.8515     0.85152
   15          H           0.162261        0.8377     0.83774
   16          H           0.158846        0.8412     0.84115
   17          H           0.156499        0.8435     0.84350
   18          H           0.137622        0.8624     0.86238
 DIPOLE           X         Y         Z       TOTAL
 POINT-CHG.     0.421    -2.105    -0.854     2.310
 HYBRID        -1.189     0.555     0.274     1.340
 SUM           -0.767    -1.549    -0.580     1.824


          ATOMIC ORBITAL ELECTRON POPULATIONS

     Atom    s        px        py        pz   
    1  O   1.87901   1.33201   1.37135   1.82577
    2  C   1.16046   0.83920   0.76093   0.95983
    3  C   1.11328   0.98383   0.87207   0.90174
    4  O   1.84871   1.44597   1.57260   1.66134
    5  C   1.09388   0.96491   0.99759   1.11164
    6  N   1.77945   1.35398   1.09436   1.10990
    7  C   1.09629   0.93218   1.16384   0.94593
    8  C   1.10676   1.06091   0.99783   1.04061
    9  C   1.09341   0.94206   1.05490   1.08173
   10  H   0.87583
   11  H   0.65851
   12  H   0.82597
   13  H   0.85315
   14  H   0.85152
   15  H   0.83774
   16  H   0.84115
   17  H   0.84350
   18  H   0.86238

 **********************
 *                    *
 * JOB ENDED NORMALLY *
 *                    *
 **********************



 TOTAL JOB TIME:             1.29 SECONDS

 == MOPAC DONE ==
