 *******************************************************************************
 **                                                                           **
 **                              MOPAC v23.2                                  **
 **                                                                           **
 *******************************************************************************
 **          Digital Object Identifier (DOI): 10.5281/zenodo.6511958          **
 **    Visit the DOI location for information on how to cite this program.    **
 *******************************************************************************

                              PM7 CALCULATION RESULTS

 *******************************************************************************
 *  CALCULATION DONE: (MAX THREADS = 40)             Fri Sep 19 21:34:27 2025  *
 *  PM7        - The PM7 Hamiltonian to be used
 *
 *
 *
 *                 CHARGE ON SYSTEM = +1
 *
 *
 *
 *  1SCF       - DO 1 SCF AND THEN STOP 
 *  T=         - A TIME OF 172800.0 SECONDS REQUESTED
 *  DUMP=N     - RESTART FILE WRITTEN EVERY 7200.0 SECONDS REQUESTED
 *  RELSCF     - DEFAULT SCF CRITERION MULTIPLIED BY 0.0001
 *              (DEFAULT SCF CRITERION = 0.00010)
 *  GRADIENTS  - ALL GRADIENTS TO BE PRINTED
 *  DISP       - PRINT DISPERSION AND HYDROGEN BOND ENERGIES
 *******************************************************************************
PM7 1SCF GRADIENTS DISP RELSCF=0.0001 CHARGE=1
 Title: ASE calculation

   ATOM   CHEMICAL          X               Y               Z
  NUMBER   SYMBOL      (ANGSTROMS)     (ANGSTROMS)     (ANGSTROMS)

     1       N         -0.73712675  *  -1.26920459  *   1.17280850  *
     2       C         -0.66893857  *  -0.48647058  *   0.10092751  *
     3       N         -1.59251233  *  -0.45927761  *  -0.96218847  *
     4       N         -1.23401214  *   0.44513327  *  -1.88921495  *
     5       C         -0.07040352  *   1.04592104  *  -1.48017836  *
     6       C          0.34808593  *   0.51936841  *  -0.24562244  *
     7       C          1.53067545  *   0.87129185  *   0.55798532  *
     8       O          1.46825584  *   0.07800343  *   1.72994503  *
     9       H         -1.48012339  *  -1.93485003  *   1.33386033  *
    10       H         -0.00320616  *  -1.19541631  *   1.89063556  *
    11       H         -2.43640842  *  -1.00633174  *  -1.10185066  *
    12       H          0.39726068  *   1.81621602  *  -2.08969798  *
    13       H          1.52077834  *   1.94892272  *   0.86067357  *
    14       H          2.48180970  *   0.65669631  *   0.01245357  *
    15       H          2.29583080  *   0.15522328  *   2.26006517  *



          CARTESIAN COORDINATES 

    NO.       ATOM           X           Y           Z

     1         N         -0.7371     -1.2692      1.1728
     2         C         -0.6689     -0.4865      0.1009
     3         N         -1.5925     -0.4593     -0.9622
     4         N         -1.2340      0.4451     -1.8892
     5         C         -0.0704      1.0459     -1.4802
     6         C          0.3481      0.5194     -0.2456
     7         C          1.5307      0.8713      0.5580
     8         O          1.4683      0.0780      1.7299
     9         H         -1.4801     -1.9349      1.3339
    10         H         -0.0032     -1.1954      1.8906
    11         H         -2.4364     -1.0063     -1.1019
    12         H          0.3973      1.8162     -2.0897
    13         H          1.5208      1.9489      0.8607
    14         H          2.4818      0.6567      0.0125
    15         H          2.2958      0.1552      2.2601

 General Reference for PM7:
 "Optimization of Parameters for Semiempirical Methods VI: More Modifications to the 
 NDDO Approximations and Re-optimization of Parameters", J. J. P. Stewart, J. Mol. Mod., 1:32, 19 (2013)
 https://link.springer.com/article/10.1007/s00894-012-1667-x

           Empirical Formula: C4 H7 N3 O  =    15 atoms



      MOLECULAR POINT GROUP   :   C1  


          UHF CALCULATION, NO. OF ALPHA ELECTRONS =   22
                           NO. OF BETA  ELECTRONS =   21
  SCF CRITERION =    0.1000E-07

 -------------------------------------------------------------------------------
 PM7 1SCF GRADIENTS DISP RELSCF=0.0001 CHARGE=1
 Title: ASE calculation



     1SCF WAS SPECIFIED, SO BFGS WAS NOT USED                 
     SCF FIELD WAS ACHIEVED                                   


                              PM7 CALCULATION
                                                       MOPAC v23.2 Linux
                                                       Fri Sep 19 21:34:28 2025




          FINAL HEAT OF FORMATION =        177.81232 KCAL/MOL =     743.96673 KJ/MOL

          TOTAL ENERGY            =     -33003.21329 KCAL/MOL = ELECTRONIC ENERGY + CORE-CORE REPULSION
          ENERGY OF ATOMS         =      33183.33343 KCAL/MOL
                              SUM =        180.12015 KCAL/MOL
          DISPERSION ENERGY       =         -1.50018 KCAL/MOL
          H-BOND ENERGY           =         -0.80765 KCAL/MOL
                              SUM =        177.81232 KCAL/MOL = FINAL HEAT OF FORMATION



          TOTAL ENERGY            =      -1431.15478 EV
          ELECTRONIC ENERGY       =      -6189.54487 EV 
          CORE-CORE REPULSION     =       4758.39008 EV
          COSMO AREA              =        140.52 SQUARE ANGSTROMS
          COSMO VOLUME            =        130.56 CUBIC ANGSTROMS

          GRADIENT NORM           =          0.97795          =       0.25251 PER ATOM
          IONIZATION POTENTIAL    =         14.532639 EV
          ALPHA SOMO LUMO (EV)    =        -14.533 -5.093
          BETA  SOMO LUMO (EV)    =        -14.946 -6.944
          NO. OF ALPHA ELECTRONS  =         22
          NO. OF BETA  ELECTRONS  =         21
          MOLECULAR WEIGHT        =        113.1188         POINT GROUP:  C1  

          MOLECULAR DIMENSIONS (Angstroms)

            Atom       Atom       Distance
            H    15    H    11     5.91995
            H    12    H     9     5.40650
            H    14    H    13     1.81963


          SCF CALCULATIONS        =          1

          WALL-CLOCK TIME         =      0.898 SECONDS
          COMPUTATION TIME        =      0.544 SECONDS

          LARGEST ATOMIC GRADIENTS

          Atom     Label                     Cartesian Gradients           Cartesian Coordinates       |Gradient|
                                           X          Y          Z        X          Y          Z

             8       O                  -0.067     -0.271     -0.290    1.46826    0.07800    1.72995      0.403
            11       H                  -0.032      0.107     -0.354   -2.43641   -1.00633   -1.10185      0.371
            13       H                  -0.220      0.222      0.023    1.52078    1.94892    0.86067      0.313
             1       N                   0.203      0.057      0.211   -0.73713   -1.26920    1.17281      0.298
             9       H                   0.176      0.188     -0.146   -1.48012   -1.93485    1.33386      0.296
            10       H                   0.112      0.229      0.125   -0.00321   -1.19542    1.89064      0.284
            12       H                   0.065     -0.134      0.241    0.39726    1.81622   -2.08970      0.283
            14       H                  -0.082     -0.202     -0.043    2.48181    0.65670    0.01245      0.222
             4       N                  -0.138     -0.008      0.158   -1.23401    0.44513   -1.88921      0.210
            15       H                  -0.127     -0.103      0.101    2.29583    0.15522    2.26007      0.192



       FINAL  POINT  AND  DERIVATIVES

   PARAMETER     ATOM    TYPE            VALUE        GRADIENT
      1          1  N    CARTESIAN X    -0.737127      0.202549  KCAL/ANGSTROM
      2          1  N    CARTESIAN Y    -1.269205      0.057036  KCAL/ANGSTROM
      3          1  N    CARTESIAN Z     1.172809      0.211227  KCAL/ANGSTROM
      4          2  C    CARTESIAN X    -0.668939      0.162197  KCAL/ANGSTROM
      5          2  C    CARTESIAN Y    -0.486471     -0.044938  KCAL/ANGSTROM
      6          2  C    CARTESIAN Z     0.100928     -0.059741  KCAL/ANGSTROM
      7          3  N    CARTESIAN X    -1.592512     -0.107509  KCAL/ANGSTROM
      8          3  N    CARTESIAN Y    -0.459278     -0.026390  KCAL/ANGSTROM
      9          3  N    CARTESIAN Z    -0.962188      0.027713  KCAL/ANGSTROM
     10          4  N    CARTESIAN X    -1.234012     -0.138246  KCAL/ANGSTROM
     11          4  N    CARTESIAN Y     0.445133     -0.007894  KCAL/ANGSTROM
     12          4  N    CARTESIAN Z    -1.889215      0.158292  KCAL/ANGSTROM
     13          5  C    CARTESIAN X    -0.070404     -0.002831  KCAL/ANGSTROM
     14          5  C    CARTESIAN Y     1.045921     -0.118685  KCAL/ANGSTROM
     15          5  C    CARTESIAN Z    -1.480178      0.074584  KCAL/ANGSTROM
     16          6  C    CARTESIAN X     0.348086      0.026985  KCAL/ANGSTROM
     17          6  C    CARTESIAN Y     0.519368     -0.025783  KCAL/ANGSTROM
     18          6  C    CARTESIAN Z    -0.245622      0.013205  KCAL/ANGSTROM
     19          7  C    CARTESIAN X     1.530675      0.032325  KCAL/ANGSTROM
     20          7  C    CARTESIAN Y     0.871292      0.129455  KCAL/ANGSTROM
     21          7  C    CARTESIAN Z     0.557985     -0.082270  KCAL/ANGSTROM
     22          8  O    CARTESIAN X     1.468256     -0.067275  KCAL/ANGSTROM
     23          8  O    CARTESIAN Y     0.078003     -0.271111  KCAL/ANGSTROM
     24          8  O    CARTESIAN Z     1.729945     -0.290443  KCAL/ANGSTROM
     25          9  H    CARTESIAN X    -1.480123      0.176007  KCAL/ANGSTROM
     26          9  H    CARTESIAN Y    -1.934850      0.188022  KCAL/ANGSTROM
     27          9  H    CARTESIAN Z     1.333860     -0.145745  KCAL/ANGSTROM
     28         10  H    CARTESIAN X    -0.003206      0.112057  KCAL/ANGSTROM
     29         10  H    CARTESIAN Y    -1.195416      0.229098  KCAL/ANGSTROM
     30         10  H    CARTESIAN Z     1.890636      0.124906  KCAL/ANGSTROM
     31         11  H    CARTESIAN X    -2.436408     -0.032270  KCAL/ANGSTROM
     32         11  H    CARTESIAN Y    -1.006332      0.107283  KCAL/ANGSTROM
     33         11  H    CARTESIAN Z    -1.101851     -0.353755  KCAL/ANGSTROM
     34         12  H    CARTESIAN X     0.397261      0.064923  KCAL/ANGSTROM
     35         12  H    CARTESIAN Y     1.816216     -0.133694  KCAL/ANGSTROM
     36         12  H    CARTESIAN Z    -2.089698      0.241025  KCAL/ANGSTROM
     37         13  H    CARTESIAN X     1.520778     -0.220252  KCAL/ANGSTROM
     38         13  H    CARTESIAN Y     1.948923      0.221777  KCAL/ANGSTROM
     39         13  H    CARTESIAN Z     0.860674      0.022871  KCAL/ANGSTROM
     40         14  H    CARTESIAN X     2.481810     -0.081997  KCAL/ANGSTROM
     41         14  H    CARTESIAN Y     0.656696     -0.201521  KCAL/ANGSTROM
     42         14  H    CARTESIAN Z     0.012454     -0.042582  KCAL/ANGSTROM
     43         15  H    CARTESIAN X     2.295831     -0.126617  KCAL/ANGSTROM
     44         15  H    CARTESIAN Y     0.155223     -0.102623  KCAL/ANGSTROM
     45         15  H    CARTESIAN Z     2.260065      0.100685  KCAL/ANGSTROM




   ATOM   CHEMICAL          X               Y               Z
  NUMBER   SYMBOL      (ANGSTROMS)     (ANGSTROMS)     (ANGSTROMS)

     1       N         -0.73712675  *  -1.26920459  *   1.17280850  *
     2       C         -0.66893857  *  -0.48647058  *   0.10092751  *
     3       N         -1.59251233  *  -0.45927761  *  -0.96218847  *
     4       N         -1.23401214  *   0.44513327  *  -1.88921495  *
     5       C         -0.07040352  *   1.04592104  *  -1.48017836  *
     6       C          0.34808593  *   0.51936841  *  -0.24562244  *
     7       C          1.53067545  *   0.87129185  *   0.55798532  *
     8       O          1.46825584  *   0.07800343  *   1.72994503  *
     9       H         -1.48012339  *  -1.93485003  *   1.33386033  *
    10       H         -0.00320616  *  -1.19541631  *   1.89063556  *
    11       H         -2.43640842  *  -1.00633174  *  -1.10185066  *
    12       H          0.39726068  *   1.81621602  *  -2.08969798  *
    13       H          1.52077834  *   1.94892272  *   0.86067357  *
    14       H          2.48180970  *   0.65669631  *   0.01245357  *
    15       H          2.29583080  *   0.15522328  *   2.26006517  *

                             CARTESIAN COORDINATES

   1    N       -0.737126753    -1.269204593     1.172808504
   2    C       -0.668938574    -0.486470578     0.100927511
   3    N       -1.592512326    -0.459277611    -0.962188474
   4    N       -1.234012136     0.445133271    -1.889214955
   5    C       -0.070403518     1.045921040    -1.480178359
   6    C        0.348085931     0.519368413    -0.245622443
   7    C        1.530675449     0.871291850     0.557985322
   8    O        1.468255843     0.078003428     1.729945033
   9    H       -1.480123392    -1.934850034     1.333860332
  10    H       -0.003206160    -1.195416314     1.890635556
  11    H       -2.436408419    -1.006331739    -1.101850659
  12    H        0.397260684     1.816216016    -2.089697982
  13    H        1.520778337     1.948922719     0.860673570
  14    H        2.481809698     0.656696315     0.012453567
  15    H        2.295830803     0.155223280     2.260065165


           Empirical Formula: C4 H7 N3 O  =    15 atoms



      MOLECULAR POINT GROUP   :   C1  


          ALPHA EIGENVALUES  
 -45.51524 -43.07917 -35.57614 -34.23489 -32.55255 -29.12914 -26.91877 -25.71752
 -24.50508 -22.66340 -22.25627 -21.53570 -20.77859 -19.96542 -19.88328 -19.22078
 -18.55952 -17.38765 -16.83593 -16.02384 -14.99021 -14.53264  -5.09298  -4.21271
  -4.11221  -3.21643  -2.69182  -2.02532  -1.66702  -1.02925  -0.54882   0.03486
   0.06968   0.73088   0.83061   0.96378   1.04909   1.23010   1.50811


           BETA EIGENVALUES 
 -45.27494 -42.22393 -35.28421 -34.12927 -32.26783 -29.04465 -26.81687 -25.52484
 -24.42301 -22.54777 -22.09502 -20.97302 -20.68238 -19.85400 -19.69274 -19.18473
 -17.33173 -16.91211 -16.41490 -15.86420 -14.94591  -6.94438  -4.11738  -3.99777
  -3.59559  -2.95952  -2.64070  -1.85536  -1.59291  -0.87718  -0.47980   0.19481
   0.24073   0.79051   0.85633   1.03363   1.13422   1.19340   1.52165


              NET ATOMIC CHARGES AND DIPOLE CONTRIBUTIONS

  ATOM NO.   TYPE          CHARGE      No. of ELECS.   s-Pop       p-Pop       
    1          N          -0.303398        5.3034     1.50088     3.80252
    2          C           0.240479        3.7595     1.06692     2.69260
    3          N          -0.251155        5.2512     1.53011     3.72105
    4          N          -0.030059        5.0301     1.78872     3.24134
    5          C          -0.084577        4.0846     1.10793     2.97665
    6          C          -0.030896        4.0309     1.10066     2.93023
    7          C           0.025870        3.9741     1.07792     2.89621
    8          O          -0.612294        6.6123     1.84059     4.77171
    9          H           0.332064        0.6679     0.66794
   10          H           0.371020        0.6290     0.62898
   11          H           0.373572        0.6264     0.62643
   12          H           0.235072        0.7649     0.76493
   13          H           0.180955        0.8190     0.81905
   14          H           0.176045        0.8240     0.82395
   15          H           0.377300        0.6227     0.62270
 DIPOLE           X         Y         Z       TOTAL
 POINT-CHG.    -0.037    -1.590     1.707     2.333
 HYBRID        -0.188    -1.016     1.225     1.602
 SUM           -0.225    -2.605     2.931     3.928


          ATOMIC ORBITAL ELECTRON POPULATIONS

     Atom    s        px        py        pz   
    1  N   1.50088   1.30402   1.28900   1.20950
    2  C   1.06692   0.92257   0.93779   0.83224
    3  N   1.53011   1.25871   1.31773   1.14461
    4  N   1.78872   1.16019   0.98514   1.09600
    5  C   1.10793   0.93747   1.05070   0.98848
    6  C   1.10066   0.98164   0.95464   0.99395
    7  C   1.07792   1.02107   1.02883   0.84630
    8  O   1.84059   1.56614   1.74497   1.46059
    9  H   0.66794
   10  H   0.62898
   11  H   0.62643
   12  H   0.76493
   13  H   0.81905
   14  H   0.82395
   15  H   0.62270


                    (SZ)    =    0.500000
                    (S**2)  =    0.881619


          ATOMIC ORBITAL SPIN POPULATIONS

    Atom   Total    s     px     py     pz   
         Atomic
    1  N  0.4672  0.020  0.130  0.211  0.107
    2  C -0.0209 -0.009 -0.002 -0.003 -0.007
    3  N -0.0873 -0.007 -0.021 -0.038 -0.022
    4  N  0.4708  0.007  0.135  0.217  0.112
    5  C -0.3055 -0.012 -0.089 -0.132 -0.072
    6  C  0.4830  0.014  0.134  0.222  0.114
    7  C -0.0165 -0.003 -0.010 -0.001 -0.003
    8  O  0.0015 -0.000  0.000  0.001  0.001
    9  H -0.0199 -0.020
   10  H -0.0196 -0.020
   11  H  0.0024  0.002
   12  H  0.0078  0.008
   13  H  0.0187  0.019
   14  H  0.0189  0.019
   15  H -0.0006 -0.001

 **********************
 *                    *
 * JOB ENDED NORMALLY *
 *                    *
 **********************



 TOTAL JOB TIME:             1.38 SECONDS

 == MOPAC DONE ==
