 *******************************************************************************
 **                                                                           **
 **                              MOPAC v23.2                                  **
 **                                                                           **
 *******************************************************************************
 **          Digital Object Identifier (DOI): 10.5281/zenodo.6511958          **
 **    Visit the DOI location for information on how to cite this program.    **
 *******************************************************************************

                              PM7 CALCULATION RESULTS

 *******************************************************************************
 *  CALCULATION DONE: (MAX THREADS = 40)             Fri Sep 19 21:36:00 2025  *
 *  PM7        - The PM7 Hamiltonian to be used
 *
 *
 *
 *                 CHARGE ON SYSTEM = +1
 *
 *
 *
 *  1SCF       - DO 1 SCF AND THEN STOP 
 *  T=         - A TIME OF 172800.0 SECONDS REQUESTED
 *  DUMP=N     - RESTART FILE WRITTEN EVERY 7200.0 SECONDS REQUESTED
 *  RELSCF     - DEFAULT SCF CRITERION MULTIPLIED BY 0.0001
 *              (DEFAULT SCF CRITERION = 0.00010)
 *  GRADIENTS  - ALL GRADIENTS TO BE PRINTED
 *  DISP       - PRINT DISPERSION AND HYDROGEN BOND ENERGIES
 *******************************************************************************
PM7 1SCF GRADIENTS DISP RELSCF=0.0001 CHARGE=1
 Title: ASE calculation

   ATOM   CHEMICAL          X               Y               Z
  NUMBER   SYMBOL      (ANGSTROMS)     (ANGSTROMS)     (ANGSTROMS)

     1       C          1.41616419  *  -1.50263337  *  -1.02176334  *
     2       C          1.11787226  *  -0.34445063  *  -0.16139067  *
     3       C          1.55884069  *  -0.41653380  *   1.24348487  *
     4       C          0.96484720  *   0.98966891  *  -0.79663005  *
     5       C         -0.19060617  *   1.80117652  *  -0.19067327  *
     6       C         -1.20380581  *   0.89921099  *   0.53078178  *
     7       C         -1.12913237  *  -0.51440765  *   0.08033615  *
     8       C         -1.53683980  *  -0.84368419  *  -1.29755286  *
     9       C         -1.24321329  *  -1.58121015  *   1.09000776  *
    10       H          1.15766001  *  -2.47788313  *  -0.57572228  *
    11       H          2.51241296  *  -1.56340371  *  -1.21642215  *
    12       H          0.95630165  *  -1.46441805  *  -2.02302545  *
    13       H          1.42994164  *  -1.40740260  *   1.71050784  *
    14       H          1.09390201  *   0.33186650  *   1.90638403  *
    15       H          2.65191416  *  -0.21357453  *   1.31429989  *
    16       H          0.83371287  *   0.91260406  *  -1.89954879  *
    17       H          1.91975001  *   1.56608702  *  -0.68723639  *
    18       H          0.19732132  *   2.56336247  *   0.51736337  *
    19       H         -0.69044203  *   2.38793126  *  -0.98973211  *
    20       H         -2.23908070  *   1.29143470  *   0.35644753  *
    21       H         -1.07376452  *   0.99212724  *   1.63262009  *
    22       H         -1.24221549  *  -1.85312422  *  -1.63033666  *
    23       H         -2.64756272  *  -0.83392056  *  -1.38249586  *
    24       H         -1.19378877  *  -0.12402641  *  -2.05918990  *
    25       H         -2.31684695  *  -1.79395525  *   1.30316323  *
    26       H         -0.80655002  *  -1.33576637  *   2.07217049  *
    27       H         -0.82401384  *  -2.55153972  *   0.77440509  *



          CARTESIAN COORDINATES 

    NO.       ATOM           X           Y           Z

     1         C          1.4162     -1.5026     -1.0218
     2         C          1.1179     -0.3445     -0.1614
     3         C          1.5588     -0.4165      1.2435
     4         C          0.9648      0.9897     -0.7966
     5         C         -0.1906      1.8012     -0.1907
     6         C         -1.2038      0.8992      0.5308
     7         C         -1.1291     -0.5144      0.0803
     8         C         -1.5368     -0.8437     -1.2976
     9         C         -1.2432     -1.5812      1.0900
    10         H          1.1577     -2.4779     -0.5757
    11         H          2.5124     -1.5634     -1.2164
    12         H          0.9563     -1.4644     -2.0230
    13         H          1.4299     -1.4074      1.7105
    14         H          1.0939      0.3319      1.9064
    15         H          2.6519     -0.2136      1.3143
    16         H          0.8337      0.9126     -1.8995
    17         H          1.9198      1.5661     -0.6872
    18         H          0.1973      2.5634      0.5174
    19         H         -0.6904      2.3879     -0.9897
    20         H         -2.2391      1.2914      0.3564
    21         H         -1.0738      0.9921      1.6326
    22         H         -1.2422     -1.8531     -1.6303
    23         H         -2.6476     -0.8339     -1.3825
    24         H         -1.1938     -0.1240     -2.0592
    25         H         -2.3168     -1.7940      1.3032
    26         H         -0.8066     -1.3358      2.0722
    27         H         -0.8240     -2.5515      0.7744

 General Reference for PM7:
 "Optimization of Parameters for Semiempirical Methods VI: More Modifications to the 
 NDDO Approximations and Re-optimization of Parameters", J. J. P. Stewart, J. Mol. Mod., 1:32, 19 (2013)
 https://link.springer.com/article/10.1007/s00894-012-1667-x

           Empirical Formula: C9 H18  =    27 atoms



      MOLECULAR POINT GROUP   :   C2  


          UHF CALCULATION, NO. OF ALPHA ELECTRONS =   27
                           NO. OF BETA  ELECTRONS =   26
  SCF CRITERION =    0.1000E-07

 -------------------------------------------------------------------------------
 PM7 1SCF GRADIENTS DISP RELSCF=0.0001 CHARGE=1
 Title: ASE calculation



     1SCF WAS SPECIFIED, SO BFGS WAS NOT USED                 
     SCF FIELD WAS ACHIEVED                                   


                              PM7 CALCULATION
                                                       MOPAC v23.2 Linux
                                                       Fri Sep 19 21:36:01 2025




          FINAL HEAT OF FORMATION =        152.75594 KCAL/MOL =     639.13085 KJ/MOL

          TOTAL ENERGY            =     -30925.83436 KCAL/MOL = ELECTRONIC ENERGY + CORE-CORE REPULSION
          ENERGY OF ATOMS         =      31081.95326 KCAL/MOL
                              SUM =        156.11890 KCAL/MOL
          DISPERSION ENERGY       =         -3.36296 KCAL/MOL
                              SUM =        152.75594 KCAL/MOL = FINAL HEAT OF FORMATION



          TOTAL ENERGY            =      -1341.07110 EV
          ELECTRONIC ENERGY       =      -8267.36967 EV 
          CORE-CORE REPULSION     =       6926.29856 EV
          COSMO AREA              =        176.59 SQUARE ANGSTROMS
          COSMO VOLUME            =        196.25 CUBIC ANGSTROMS

          GRADIENT NORM           =          1.13921          =       0.21924 PER ATOM
          IONIZATION POTENTIAL    =         13.105963 EV
          ALPHA SOMO LUMO (EV)    =        -13.106 -5.334
          BETA  SOMO LUMO (EV)    =        -15.483 -5.782
          NO. OF ALPHA ELECTRONS  =         27
          NO. OF BETA  ELECTRONS  =         26
          MOLECULAR WEIGHT        =        126.2412         POINT GROUP:  C2  

          MOLECULAR DIMENSIONS (Angstroms)

            Atom       Atom       Distance
            H    23    H    15     5.97846
            H    10    H    18     5.24443
            H    16    H    25     4.81143


          SCF CALCULATIONS        =          1

          WALL-CLOCK TIME         =      1.070 SECONDS
          COMPUTATION TIME        =      0.676 SECONDS

          LARGEST ATOMIC GRADIENTS

          Atom     Label                     Cartesian Gradients           Cartesian Coordinates       |Gradient|
                                           X          Y          Z        X          Y          Z

            11       H                  -0.122      0.212     -0.273    2.51241   -1.56340   -1.21642      0.366
            25       H                   0.082      0.264      0.238   -2.31685   -1.79396    1.30316      0.365
            15       H                  -0.235     -0.161      0.190    2.65191   -0.21357    1.31430      0.342
            23       H                   0.261     -0.141     -0.169   -2.64756   -0.83392   -1.38250      0.342
            24       H                  -0.105     -0.249     -0.118   -1.19379   -0.12403   -2.05919      0.295
            14       H                   0.143     -0.209      0.148    1.09390    0.33187    1.90638      0.293
            27       H                  -0.088     -0.145      0.236   -0.82401   -2.55154    0.77441      0.291
            10       H                   0.114     -0.160     -0.214    1.15766   -2.47788   -0.57572      0.291
             8       C                   0.191     -0.070      0.043   -1.53684   -0.84368   -1.29755      0.208
             3       C                  -0.176     -0.106     -0.030    1.55884   -0.41653    1.24348      0.208



       FINAL  POINT  AND  DERIVATIVES

   PARAMETER     ATOM    TYPE            VALUE        GRADIENT
      1          1  C    CARTESIAN X     1.416164     -0.127433  KCAL/ANGSTROM
      2          1  C    CARTESIAN Y    -1.502633      0.089610  KCAL/ANGSTROM
      3          1  C    CARTESIAN Z    -1.021763      0.020423  KCAL/ANGSTROM
      4          2  C    CARTESIAN X     1.117872     -0.088020  KCAL/ANGSTROM
      5          2  C    CARTESIAN Y    -0.344451      0.125635  KCAL/ANGSTROM
      6          2  C    CARTESIAN Z    -0.161391     -0.007061  KCAL/ANGSTROM
      7          3  C    CARTESIAN X     1.558841     -0.176074  KCAL/ANGSTROM
      8          3  C    CARTESIAN Y    -0.416534     -0.106325  KCAL/ANGSTROM
      9          3  C    CARTESIAN Z     1.243485     -0.030215  KCAL/ANGSTROM
     10          4  C    CARTESIAN X     0.964847      0.053717  KCAL/ANGSTROM
     11          4  C    CARTESIAN Y     0.989669      0.141339  KCAL/ANGSTROM
     12          4  C    CARTESIAN Z    -0.796630     -0.031857  KCAL/ANGSTROM
     13          5  C    CARTESIAN X    -0.190606      0.002947  KCAL/ANGSTROM
     14          5  C    CARTESIAN Y     1.801177     -0.018102  KCAL/ANGSTROM
     15          5  C    CARTESIAN Z    -0.190673      0.002281  KCAL/ANGSTROM
     16          6  C    CARTESIAN X    -1.203806     -0.076681  KCAL/ANGSTROM
     17          6  C    CARTESIAN Y     0.899211      0.134225  KCAL/ANGSTROM
     18          6  C    CARTESIAN Z     0.530782      0.011737  KCAL/ANGSTROM
     19          7  C    CARTESIAN X    -1.129132      0.066292  KCAL/ANGSTROM
     20          7  C    CARTESIAN Y    -0.514408      0.138707  KCAL/ANGSTROM
     21          7  C    CARTESIAN Z     0.080336     -0.010167  KCAL/ANGSTROM
     22          8  C    CARTESIAN X    -1.536840      0.191127  KCAL/ANGSTROM
     23          8  C    CARTESIAN Y    -0.843684     -0.069892  KCAL/ANGSTROM
     24          8  C    CARTESIAN Z    -1.297553      0.043108  KCAL/ANGSTROM
     25          9  C    CARTESIAN X    -1.243213      0.110327  KCAL/ANGSTROM
     26          9  C    CARTESIAN Y    -1.581210      0.106794  KCAL/ANGSTROM
     27          9  C    CARTESIAN Z     1.090008     -0.033183  KCAL/ANGSTROM
     28         10  H    CARTESIAN X     1.157660      0.114311  KCAL/ANGSTROM
     29         10  H    CARTESIAN Y    -2.477883     -0.159653  KCAL/ANGSTROM
     30         10  H    CARTESIAN Z    -0.575722     -0.214128  KCAL/ANGSTROM
     31         11  H    CARTESIAN X     2.512413     -0.122269  KCAL/ANGSTROM
     32         11  H    CARTESIAN Y    -1.563404      0.211652  KCAL/ANGSTROM
     33         11  H    CARTESIAN Z    -1.216422     -0.272945  KCAL/ANGSTROM
     34         12  H    CARTESIAN X     0.956302     -0.001509  KCAL/ANGSTROM
     35         12  H    CARTESIAN Y    -1.464418      0.154019  KCAL/ANGSTROM
     36         12  H    CARTESIAN Z    -2.023025     -0.016038  KCAL/ANGSTROM
     37         13  H    CARTESIAN X     1.429942      0.060895  KCAL/ANGSTROM
     38         13  H    CARTESIAN Y    -1.407403     -0.049544  KCAL/ANGSTROM
     39         13  H    CARTESIAN Z     1.710508      0.089463  KCAL/ANGSTROM
     40         14  H    CARTESIAN X     1.093902      0.143428  KCAL/ANGSTROM
     41         14  H    CARTESIAN Y     0.331866     -0.208847  KCAL/ANGSTROM
     42         14  H    CARTESIAN Z     1.906384      0.148139  KCAL/ANGSTROM
     43         15  H    CARTESIAN X     2.651914     -0.234597  KCAL/ANGSTROM
     44         15  H    CARTESIAN Y    -0.213575     -0.160901  KCAL/ANGSTROM
     45         15  H    CARTESIAN Z     1.314300      0.190427  KCAL/ANGSTROM
     46         16  H    CARTESIAN X     0.833713      0.132518  KCAL/ANGSTROM
     47         16  H    CARTESIAN Y     0.912604     -0.047643  KCAL/ANGSTROM
     48         16  H    CARTESIAN Z    -1.899549     -0.018043  KCAL/ANGSTROM
     49         17  H    CARTESIAN X     1.919750      0.127518  KCAL/ANGSTROM
     50         17  H    CARTESIAN Y     1.566087      0.078844  KCAL/ANGSTROM
     51         17  H    CARTESIAN Z    -0.687236     -0.122883  KCAL/ANGSTROM
     52         18  H    CARTESIAN X     0.197321     -0.016416  KCAL/ANGSTROM
     53         18  H    CARTESIAN Y     2.563362     -0.102372  KCAL/ANGSTROM
     54         18  H    CARTESIAN Z     0.517363     -0.068881  KCAL/ANGSTROM
     55         19  H    CARTESIAN X    -0.690442      0.037622  KCAL/ANGSTROM
     56         19  H    CARTESIAN Y     2.387931     -0.085024  KCAL/ANGSTROM
     57         19  H    CARTESIAN Z    -0.989732      0.084847  KCAL/ANGSTROM
     58         20  H    CARTESIAN X    -2.239081     -0.138638  KCAL/ANGSTROM
     59         20  H    CARTESIAN Y     1.291435      0.074299  KCAL/ANGSTROM
     60         20  H    CARTESIAN Z     0.356448      0.107738  KCAL/ANGSTROM
     61         21  H    CARTESIAN X    -1.073765     -0.127348  KCAL/ANGSTROM
     62         21  H    CARTESIAN Y     0.992127     -0.063207  KCAL/ANGSTROM
     63         21  H    CARTESIAN Z     1.632620      0.023353  KCAL/ANGSTROM
     64         22  H    CARTESIAN X    -1.242215     -0.053651  KCAL/ANGSTROM
     65         22  H    CARTESIAN Y    -1.853124     -0.069006  KCAL/ANGSTROM
     66         22  H    CARTESIAN Z    -1.630337     -0.079845  KCAL/ANGSTROM
     67         23  H    CARTESIAN X    -2.647563      0.261154  KCAL/ANGSTROM
     68         23  H    CARTESIAN Y    -0.833921     -0.141115  KCAL/ANGSTROM
     69         23  H    CARTESIAN Z    -1.382496     -0.169161  KCAL/ANGSTROM
     70         24  H    CARTESIAN X    -1.193789     -0.105044  KCAL/ANGSTROM
     71         24  H    CARTESIAN Y    -0.124026     -0.248705  KCAL/ANGSTROM
     72         24  H    CARTESIAN Z    -2.059190     -0.117745  KCAL/ANGSTROM
     73         25  H    CARTESIAN X    -2.316847      0.081832  KCAL/ANGSTROM
     74         25  H    CARTESIAN Y    -1.793955      0.264276  KCAL/ANGSTROM
     75         25  H    CARTESIAN Z     1.303163      0.237826  KCAL/ANGSTROM
     76         26  H    CARTESIAN X    -0.806550     -0.027863  KCAL/ANGSTROM
     77         26  H    CARTESIAN Y    -1.335766      0.155443  KCAL/ANGSTROM
     78         26  H    CARTESIAN Z     2.072170     -0.003548  KCAL/ANGSTROM
     79         27  H    CARTESIAN X    -0.824014     -0.088141  KCAL/ANGSTROM
     80         27  H    CARTESIAN Y    -2.551540     -0.144509  KCAL/ANGSTROM
     81         27  H    CARTESIAN Z     0.774405      0.236359  KCAL/ANGSTROM




   ATOM   CHEMICAL          X               Y               Z
  NUMBER   SYMBOL      (ANGSTROMS)     (ANGSTROMS)     (ANGSTROMS)

     1       C          1.41616419  *  -1.50263337  *  -1.02176334  *
     2       C          1.11787226  *  -0.34445063  *  -0.16139067  *
     3       C          1.55884069  *  -0.41653380  *   1.24348487  *
     4       C          0.96484720  *   0.98966891  *  -0.79663005  *
     5       C         -0.19060617  *   1.80117652  *  -0.19067327  *
     6       C         -1.20380581  *   0.89921099  *   0.53078178  *
     7       C         -1.12913237  *  -0.51440765  *   0.08033615  *
     8       C         -1.53683980  *  -0.84368419  *  -1.29755286  *
     9       C         -1.24321329  *  -1.58121015  *   1.09000776  *
    10       H          1.15766001  *  -2.47788313  *  -0.57572228  *
    11       H          2.51241296  *  -1.56340371  *  -1.21642215  *
    12       H          0.95630165  *  -1.46441805  *  -2.02302545  *
    13       H          1.42994164  *  -1.40740260  *   1.71050784  *
    14       H          1.09390201  *   0.33186650  *   1.90638403  *
    15       H          2.65191416  *  -0.21357453  *   1.31429989  *
    16       H          0.83371287  *   0.91260406  *  -1.89954879  *
    17       H          1.91975001  *   1.56608702  *  -0.68723639  *
    18       H          0.19732132  *   2.56336247  *   0.51736337  *
    19       H         -0.69044203  *   2.38793126  *  -0.98973211  *
    20       H         -2.23908070  *   1.29143470  *   0.35644753  *
    21       H         -1.07376452  *   0.99212724  *   1.63262009  *
    22       H         -1.24221549  *  -1.85312422  *  -1.63033666  *
    23       H         -2.64756272  *  -0.83392056  *  -1.38249586  *
    24       H         -1.19378877  *  -0.12402641  *  -2.05918990  *
    25       H         -2.31684695  *  -1.79395525  *   1.30316323  *
    26       H         -0.80655002  *  -1.33576637  *   2.07217049  *
    27       H         -0.82401384  *  -2.55153972  *   0.77440509  *

                             CARTESIAN COORDINATES

   1    C        1.416164187    -1.502633369    -1.021763336
   2    C        1.117872264    -0.344450631    -0.161390671
   3    C        1.558840691    -0.416533798     1.243484866
   4    C        0.964847204     0.989668912    -0.796630053
   5    C       -0.190606173     1.801176524    -0.190673269
   6    C       -1.203805814     0.899210988     0.530781778
   7    C       -1.129132372    -0.514407652     0.080336155
   8    C       -1.536839801    -0.843684187    -1.297552860
   9    C       -1.243213289    -1.581210151     1.090007756
  10    H        1.157660014    -2.477883127    -0.575722280
  11    H        2.512412960    -1.563403714    -1.216422150
  12    H        0.956301654    -1.464418047    -2.023025452
  13    H        1.429941642    -1.407402605     1.710507837
  14    H        1.093902013     0.331866497     1.906384030
  15    H        2.651914162    -0.213574527     1.314299886
  16    H        0.833712870     0.912604060    -1.899548789
  17    H        1.919750008     1.566087022    -0.687236386
  18    H        0.197321325     2.563362470     0.517363372
  19    H       -0.690442031     2.387931263    -0.989732109
  20    H       -2.239080702     1.291434699     0.356447525
  21    H       -1.073764520     0.992127242     1.632620086
  22    H       -1.242215494    -1.853124223    -1.630336658
  23    H       -2.647562719    -0.833920560    -1.382495860
  24    H       -1.193788768    -0.124026415    -2.059189896
  25    H       -2.316846953    -1.793955249     1.303163229
  26    H       -0.806550018    -1.335766372     2.072170494
  27    H       -0.824013838    -2.551539720     0.774405091


           Empirical Formula: C9 H18  =    27 atoms



      MOLECULAR POINT GROUP   :   C2  


          ALPHA EIGENVALUES  
 -35.41985 -32.63764 -31.38950 -29.62694 -28.21933 -28.05722 -25.70185 -22.80398
 -22.76983 -21.13478 -20.84425 -19.93186 -19.90136 -19.20223 -18.54451 -18.28258
 -18.27214 -17.93218 -17.52796 -17.42390 -17.14478 -16.90424 -16.70354 -16.70254
 -16.16855 -15.50234 -13.10596  -5.33448  -0.89113  -0.73315  -0.50342  -0.48933
  -0.44425  -0.42966  -0.20434   0.28742   0.93321   1.03117   1.05226   1.08131
   1.12274   1.14315   1.22057   1.29905   1.36282   1.37111   1.78522   1.90979
   2.10637   2.30470   2.42726   2.46277   2.51709   2.60918


           BETA EIGENVALUES 
 -35.30310 -32.53998 -31.33826 -29.57755 -28.17107 -28.01343 -25.61347 -22.64022
 -22.55301 -20.88921 -20.80596 -19.83273 -19.80520 -19.13135 -18.45255 -18.18119
 -18.16076 -17.76401 -17.48310 -17.30030 -17.12408 -16.87892 -16.67679 -16.64781
 -16.10727 -15.48252  -5.78206  -3.66044  -0.74715  -0.65155  -0.38420  -0.34704
  -0.31623  -0.28972  -0.12504   0.35188   0.96235   1.08711   1.09831   1.15140
   1.16131   1.20666   1.23946   1.31790   1.37780   1.39200   1.79530   1.92462
   2.11967   2.32176   2.42983   2.48249   2.53396   2.62708


              NET ATOMIC CHARGES AND DIPOLE CONTRIBUTIONS

  ATOM NO.   TYPE          CHARGE      No. of ELECS.   s-Pop       p-Pop       
    1          C          -0.525305        4.5253     1.05798     3.46732
    2          C           0.284806        3.7152     1.13886     2.57633
    3          C          -0.520538        4.5205     1.05710     3.46344
    4          C          -0.357680        4.3577     1.06473     3.29295
    5          C          -0.234581        4.2346     1.06083     3.17376
    6          C          -0.357667        4.3577     1.06472     3.29295
    7          C           0.284784        3.7152     1.13885     2.57637
    8          C          -0.520574        4.5206     1.05709     3.46349
    9          C          -0.525295        4.5253     1.05798     3.46731
   10          H           0.190565        0.8094     0.80944
   11          H           0.217101        0.7829     0.78290
   12          H           0.188075        0.8119     0.81192
   13          H           0.189019        0.8110     0.81098
   14          H           0.190099        0.8099     0.80990
   15          H           0.214306        0.7857     0.78569
   16          H           0.178093        0.8219     0.82191
   17          H           0.201100        0.7989     0.79890
   18          H           0.167663        0.8323     0.83234
   19          H           0.167643        0.8324     0.83236
   20          H           0.201100        0.7989     0.79890
   21          H           0.178097        0.8219     0.82190
   22          H           0.189021        0.8110     0.81098
   23          H           0.214302        0.7857     0.78570
   24          H           0.190107        0.8099     0.80989
   25          H           0.217103        0.7829     0.78290
   26          H           0.188089        0.8119     0.81191
   27          H           0.190567        0.8094     0.80943
 DIPOLE           X         Y         Z       TOTAL
 POINT-CHG.     0.059    -0.719     0.049     0.723
 HYBRID         0.019    -0.226     0.015     0.227
 SUM            0.078    -0.945     0.064     0.950


          ATOMIC ORBITAL ELECTRON POPULATIONS

     Atom    s        px        py        pz   
    1  C   1.05798   1.20762   1.10496   1.15474
    2  C   1.13886   0.66889   0.95113   0.95631
    3  C   1.05710   1.19320   1.21846   1.05178
    4  C   1.06473   1.12186   1.02754   1.14355
    5  C   1.06083   0.99484   1.04897   1.12995
    6  C   1.06472   1.13707   1.00145   1.15444
    7  C   1.13885   0.65756   0.96204   0.95677
    8  C   1.05709   1.19628   1.20876   1.05845
    9  C   1.05798   1.21536   1.12138   1.13057
   10  H   0.80944
   11  H   0.78290
   12  H   0.81192
   13  H   0.81098
   14  H   0.80990
   15  H   0.78569
   16  H   0.82191
   17  H   0.79890
   18  H   0.83234
   19  H   0.83236
   20  H   0.79890
   21  H   0.82190
   22  H   0.81098
   23  H   0.78570
   24  H   0.80989
   25  H   0.78290
   26  H   0.81191
   27  H   0.80943


                    (SZ)    =    0.500000
                    (S**2)  =    0.752420


          ATOMIC ORBITAL SPIN POPULATIONS

    Atom   Total    s     px     py     pz   
         Atomic
    1  C -0.0068 -0.002  0.005 -0.008 -0.002
    2  C  0.4356  0.015  0.376  0.025  0.020
    3  C -0.0064 -0.002  0.006 -0.001 -0.009
    4  C -0.0107 -0.002 -0.004 -0.002 -0.002
    5  C  0.0226  0.008 -0.001  0.015  0.001
    6  C -0.0107 -0.002 -0.002 -0.005 -0.002
    7  C  0.4356  0.015  0.390  0.013  0.018
    8  C -0.0064 -0.002  0.006 -0.002 -0.009
    9  C -0.0068 -0.002  0.004 -0.006 -0.003
   10  H  0.0057  0.006
   11  H  0.0233  0.023
   12  H  0.0023  0.002
   13  H  0.0031  0.003
   14  H  0.0042  0.004
   15  H  0.0230  0.023
   16  H  0.0007  0.001
   17  H  0.0153  0.015
   18  H -0.0007 -0.001
   19  H -0.0007 -0.001
   20  H  0.0153  0.015
   21  H  0.0007  0.001
   22  H  0.0031  0.003
   23  H  0.0230  0.023
   24  H  0.0042  0.004
   25  H  0.0233  0.023
   26  H  0.0023  0.002
   27  H  0.0057  0.006

 **********************
 *                    *
 * JOB ENDED NORMALLY *
 *                    *
 **********************



 TOTAL JOB TIME:             1.53 SECONDS

 == MOPAC DONE ==
