 *******************************************************************************
 **                                                                           **
 **                              MOPAC v23.2                                  **
 **                                                                           **
 *******************************************************************************
 **          Digital Object Identifier (DOI): 10.5281/zenodo.6511958          **
 **    Visit the DOI location for information on how to cite this program.    **
 *******************************************************************************

                              PM7 CALCULATION RESULTS

 *******************************************************************************
 *  CALCULATION DONE: (MAX THREADS = 40)             Fri Sep 19 21:35:54 2025  *
 *  PM7        - The PM7 Hamiltonian to be used
 *  1SCF       - DO 1 SCF AND THEN STOP 
 *  T=         - A TIME OF 172800.0 SECONDS REQUESTED
 *  DUMP=N     - RESTART FILE WRITTEN EVERY 7200.0 SECONDS REQUESTED
 *  RELSCF     - DEFAULT SCF CRITERION MULTIPLIED BY 0.0001
 *              (DEFAULT SCF CRITERION = 0.00010)
 *  GRADIENTS  - ALL GRADIENTS TO BE PRINTED
 *  DISP       - PRINT DISPERSION AND HYDROGEN BOND ENERGIES
 *******************************************************************************
PM7 1SCF GRADIENTS DISP RELSCF=0.0001
 Title: ASE calculation

   ATOM   CHEMICAL          X               Y               Z
  NUMBER   SYMBOL      (ANGSTROMS)     (ANGSTROMS)     (ANGSTROMS)

     1       C         -1.18196239  *  -1.86291851  *   0.65354899  *
     2       C         -0.81786271  *  -0.81246527  *  -0.38966263  *
     3       C         -1.67742634  *   0.45922171  *  -0.24448693  *
     4       C         -0.69726092  *   1.56306130  *   0.04767754  *
     5       O         -0.88963400  *   2.72446425  *   0.25937058  *
     6       O          0.59231825  *   1.08137568  *   0.05605556  *
     7       C          0.60772639  *  -0.30238943  *  -0.22633099  *
     8       C          1.78208163  *  -0.72665786  *  -1.07206920  *
     9       C          1.76429722  *  -1.02144265  *   0.41465777  *
    10       H         -0.96407047  *  -1.51492075  *   1.67198775  *
    11       H         -2.24851004  *  -2.11553520  *   0.60968387  *
    12       H         -0.62307222  *  -2.79411920  *   0.50035229  *
    13       H         -0.94577164  *  -1.24692431  *  -1.40967273  *
    14       H         -2.25542493  *   0.68081509  *  -1.16061806  *
    15       H         -2.42518601  *   0.37895836  *   0.56832401  *
    16       H          1.67813305  *  -1.53431963  *  -1.78811479  *
    17       H          2.46165660  *   0.03207676  *  -1.45870639  *
    18       H          2.42883626  *  -0.46370573  *   1.07381941  *
    19       H          1.65732084  *  -2.04049313  *   0.76962656  *



          CARTESIAN COORDINATES 

    NO.       ATOM           X           Y           Z

     1         C         -1.1820     -1.8629      0.6535
     2         C         -0.8179     -0.8125     -0.3897
     3         C         -1.6774      0.4592     -0.2445
     4         C         -0.6973      1.5631      0.0477
     5         O         -0.8896      2.7245      0.2594
     6         O          0.5923      1.0814      0.0561
     7         C          0.6077     -0.3024     -0.2263
     8         C          1.7821     -0.7267     -1.0721
     9         C          1.7643     -1.0214      0.4147
    10         H         -0.9641     -1.5149      1.6720
    11         H         -2.2485     -2.1155      0.6097
    12         H         -0.6231     -2.7941      0.5004
    13         H         -0.9458     -1.2469     -1.4097
    14         H         -2.2554      0.6808     -1.1606
    15         H         -2.4252      0.3790      0.5683
    16         H          1.6781     -1.5343     -1.7881
    17         H          2.4617      0.0321     -1.4587
    18         H          2.4288     -0.4637      1.0738
    19         H          1.6573     -2.0405      0.7696

 General Reference for PM7:
 "Optimization of Parameters for Semiempirical Methods VI: More Modifications to the 
 NDDO Approximations and Re-optimization of Parameters", J. J. P. Stewart, J. Mol. Mod., 1:32, 19 (2013)
 https://link.springer.com/article/10.1007/s00894-012-1667-x

           Empirical Formula: C7 H10 O2  =    19 atoms



      MOLECULAR POINT GROUP   :   C1  


      RHF CALCULATION, NO. OF DOUBLY OCCUPIED LEVELS = 25

  SCF CRITERION =    0.1000E-07

 -------------------------------------------------------------------------------
 PM7 1SCF GRADIENTS DISP RELSCF=0.0001
 Title: ASE calculation



     1SCF WAS SPECIFIED, SO BFGS WAS NOT USED                 
     SCF FIELD WAS ACHIEVED                                   


                              PM7 CALCULATION
                                                       MOPAC v23.2 Linux
                                                       Fri Sep 19 21:35:55 2025




          FINAL HEAT OF FORMATION =        -71.49652 KCAL/MOL =    -299.14142 KJ/MOL

          TOTAL ENERGY            =     -36552.17396 KCAL/MOL = ELECTRONIC ENERGY + CORE-CORE REPULSION
          ENERGY OF ATOMS         =      36482.50324 KCAL/MOL
                              SUM =        -69.67072 KCAL/MOL
          DISPERSION ENERGY       =         -1.82580 KCAL/MOL
                              SUM =        -71.49652 KCAL/MOL = FINAL HEAT OF FORMATION



          TOTAL ENERGY            =      -1585.05228 EV
          ELECTRONIC ENERGY       =      -7636.16786 EV 
          CORE-CORE REPULSION     =       6051.11558 EV
          COSMO AREA              =        159.86 SQUARE ANGSTROMS
          COSMO VOLUME            =        158.74 CUBIC ANGSTROMS

          GRADIENT NORM           =          1.24634          =       0.28593 PER ATOM
          IONIZATION POTENTIAL    =         10.493640 EV
          HOMO LUMO ENERGIES (EV) =        -10.494  1.002
          NO. OF FILLED LEVELS    =         25
          MOLECULAR WEIGHT        =        126.1548         POINT GROUP:  C1  

          MOLECULAR DIMENSIONS (Angstroms)

            Atom       Atom       Distance
            H    17    H    11     5.57460
            O     5    H    19     5.42550
            H    13    H    18     3.46812


          SCF CALCULATIONS        =          1

          WALL-CLOCK TIME         =      0.898 SECONDS
          COMPUTATION TIME        =      0.763 SECONDS

          LARGEST ATOMIC GRADIENTS

          Atom     Label                     Cartesian Gradients           Cartesian Coordinates       |Gradient|
                                           X          Y          Z        X          Y          Z

             9       C                  -0.374     -0.007      0.234    1.76430   -1.02144    0.41466      0.441
            19       H                   0.423      0.052      0.084    1.65732   -2.04049    0.76963      0.435
            15       H                  -0.257     -0.143      0.314   -2.42519    0.37896    0.56832      0.430
            17       H                   0.144      0.037     -0.360    2.46166    0.03208   -1.45871      0.390
            18       H                  -0.204     -0.164     -0.256    2.42884   -0.46371    1.07382      0.366
            11       H                  -0.137      0.269     -0.136   -2.24851   -2.11554    0.60968      0.331
             6       O                   0.244      0.151      0.107    0.59232    1.08138    0.05606      0.306
             3       C                   0.140     -0.198     -0.075   -1.67743    0.45922   -0.24449      0.254
             2       C                   0.129     -0.206     -0.071   -0.81786   -0.81247   -0.38966      0.253
             7       C                  -0.198     -0.023      0.141    0.60773   -0.30239   -0.22633      0.244



       FINAL  POINT  AND  DERIVATIVES

   PARAMETER     ATOM    TYPE            VALUE        GRADIENT
      1          1  C    CARTESIAN X    -1.181962     -0.057214  KCAL/ANGSTROM
      2          1  C    CARTESIAN Y    -1.862919     -0.125690  KCAL/ANGSTROM
      3          1  C    CARTESIAN Z     0.653549     -0.009102  KCAL/ANGSTROM
      4          2  C    CARTESIAN X    -0.817863      0.129050  KCAL/ANGSTROM
      5          2  C    CARTESIAN Y    -0.812465     -0.205954  KCAL/ANGSTROM
      6          2  C    CARTESIAN Z    -0.389663     -0.071408  KCAL/ANGSTROM
      7          3  C    CARTESIAN X    -1.677426      0.139543  KCAL/ANGSTROM
      8          3  C    CARTESIAN Y     0.459222     -0.198239  KCAL/ANGSTROM
      9          3  C    CARTESIAN Z    -0.244487     -0.074508  KCAL/ANGSTROM
     10          4  C    CARTESIAN X    -0.697261      0.126093  KCAL/ANGSTROM
     11          4  C    CARTESIAN Y     1.563061      0.032559  KCAL/ANGSTROM
     12          4  C    CARTESIAN Z     0.047678      0.013125  KCAL/ANGSTROM
     13          5  O    CARTESIAN X    -0.889634      0.019864  KCAL/ANGSTROM
     14          5  O    CARTESIAN Y     2.724464      0.143908  KCAL/ANGSTROM
     15          5  O    CARTESIAN Z     0.259371     -0.038410  KCAL/ANGSTROM
     16          6  O    CARTESIAN X     0.592318      0.243659  KCAL/ANGSTROM
     17          6  O    CARTESIAN Y     1.081376      0.150566  KCAL/ANGSTROM
     18          6  O    CARTESIAN Z     0.056056      0.106878  KCAL/ANGSTROM
     19          7  C    CARTESIAN X     0.607726     -0.197703  KCAL/ANGSTROM
     20          7  C    CARTESIAN Y    -0.302389     -0.023491  KCAL/ANGSTROM
     21          7  C    CARTESIAN Z    -0.226331      0.141337  KCAL/ANGSTROM
     22          8  C    CARTESIAN X     1.782082     -0.033899  KCAL/ANGSTROM
     23          8  C    CARTESIAN Y    -0.726658      0.225626  KCAL/ANGSTROM
     24          8  C    CARTESIAN Z    -1.072069      0.068768  KCAL/ANGSTROM
     25          9  C    CARTESIAN X     1.764297     -0.374044  KCAL/ANGSTROM
     26          9  C    CARTESIAN Y    -1.021443     -0.007152  KCAL/ANGSTROM
     27          9  C    CARTESIAN Z     0.414658      0.233735  KCAL/ANGSTROM
     28         10  H    CARTESIAN X    -0.964070      0.146957  KCAL/ANGSTROM
     29         10  H    CARTESIAN Y    -1.514921      0.186210  KCAL/ANGSTROM
     30         10  H    CARTESIAN Z     1.671988     -0.050797  KCAL/ANGSTROM
     31         11  H    CARTESIAN X    -2.248510     -0.137353  KCAL/ANGSTROM
     32         11  H    CARTESIAN Y    -2.115535      0.269438  KCAL/ANGSTROM
     33         11  H    CARTESIAN Z     0.609684     -0.135668  KCAL/ANGSTROM
     34         12  H    CARTESIAN X    -0.623072     -0.150407  KCAL/ANGSTROM
     35         12  H    CARTESIAN Y    -2.794119     -0.106395  KCAL/ANGSTROM
     36         12  H    CARTESIAN Z     0.500352     -0.099554  KCAL/ANGSTROM
     37         13  H    CARTESIAN X    -0.945772     -0.107875  KCAL/ANGSTROM
     38         13  H    CARTESIAN Y    -1.246924      0.020989  KCAL/ANGSTROM
     39         13  H    CARTESIAN Z    -1.409673      0.004686  KCAL/ANGSTROM
     40         14  H    CARTESIAN X    -2.255425      0.062700  KCAL/ANGSTROM
     41         14  H    CARTESIAN Y     0.680815     -0.171482  KCAL/ANGSTROM
     42         14  H    CARTESIAN Z    -1.160618     -0.052917  KCAL/ANGSTROM
     43         15  H    CARTESIAN X    -2.425186     -0.256815  KCAL/ANGSTROM
     44         15  H    CARTESIAN Y     0.378958     -0.142692  KCAL/ANGSTROM
     45         15  H    CARTESIAN Z     0.568324      0.314099  KCAL/ANGSTROM
     46         16  H    CARTESIAN X     1.678133      0.083497  KCAL/ANGSTROM
     47         16  H    CARTESIAN Y    -1.534320      0.027359  KCAL/ANGSTROM
     48         16  H    CARTESIAN Z    -1.788115      0.181593  KCAL/ANGSTROM
     49         17  H    CARTESIAN X     2.461657      0.144430  KCAL/ANGSTROM
     50         17  H    CARTESIAN Y     0.032077      0.036932  KCAL/ANGSTROM
     51         17  H    CARTESIAN Z    -1.458706     -0.360074  KCAL/ANGSTROM
     52         18  H    CARTESIAN X     2.428836     -0.203915  KCAL/ANGSTROM
     53         18  H    CARTESIAN Y    -0.463706     -0.164031  KCAL/ANGSTROM
     54         18  H    CARTESIAN Z     1.073819     -0.256187  KCAL/ANGSTROM
     55         19  H    CARTESIAN X     1.657321      0.423429  KCAL/ANGSTROM
     56         19  H    CARTESIAN Y    -2.040493      0.051532  KCAL/ANGSTROM
     57         19  H    CARTESIAN Z     0.769627      0.084398  KCAL/ANGSTROM




   ATOM   CHEMICAL          X               Y               Z
  NUMBER   SYMBOL      (ANGSTROMS)     (ANGSTROMS)     (ANGSTROMS)

     1       C         -1.18196239  *  -1.86291851  *   0.65354899  *
     2       C         -0.81786271  *  -0.81246527  *  -0.38966263  *
     3       C         -1.67742634  *   0.45922171  *  -0.24448693  *
     4       C         -0.69726092  *   1.56306130  *   0.04767754  *
     5       O         -0.88963400  *   2.72446425  *   0.25937058  *
     6       O          0.59231825  *   1.08137568  *   0.05605556  *
     7       C          0.60772639  *  -0.30238943  *  -0.22633099  *
     8       C          1.78208163  *  -0.72665786  *  -1.07206920  *
     9       C          1.76429722  *  -1.02144265  *   0.41465777  *
    10       H         -0.96407047  *  -1.51492075  *   1.67198775  *
    11       H         -2.24851004  *  -2.11553520  *   0.60968387  *
    12       H         -0.62307222  *  -2.79411920  *   0.50035229  *
    13       H         -0.94577164  *  -1.24692431  *  -1.40967273  *
    14       H         -2.25542493  *   0.68081509  *  -1.16061806  *
    15       H         -2.42518601  *   0.37895836  *   0.56832401  *
    16       H          1.67813305  *  -1.53431963  *  -1.78811479  *
    17       H          2.46165660  *   0.03207676  *  -1.45870639  *
    18       H          2.42883626  *  -0.46370573  *   1.07381941  *
    19       H          1.65732084  *  -2.04049313  *   0.76962656  *

                             CARTESIAN COORDINATES

   1    C       -1.181962389    -1.862918508     0.653548986
   2    C       -0.817862710    -0.812465273    -0.389662630
   3    C       -1.677426344     0.459221710    -0.244486925
   4    C       -0.697260916     1.563061304     0.047677543
   5    O       -0.889633996     2.724464247     0.259370581
   6    O        0.592318250     1.081375683     0.056055564
   7    C        0.607726387    -0.302389432    -0.226330991
   8    C        1.782081628    -0.726657865    -1.072069201
   9    C        1.764297224    -1.021442650     0.414657772
  10    H       -0.964070466    -1.514920749     1.671987755
  11    H       -2.248510040    -2.115535200     0.609683873
  12    H       -0.623072216    -2.794119205     0.500352291
  13    H       -0.945771641    -1.246924314    -1.409672733
  14    H       -2.255424931     0.680815086    -1.160618063
  15    H       -2.425186006     0.378958357     0.568324007
  16    H        1.678133051    -1.534319632    -1.788114795
  17    H        2.461656604     0.032076761    -1.458706389
  18    H        2.428836257    -0.463705732     1.073819413
  19    H        1.657320838    -2.040493131     0.769626560


           Empirical Formula: C7 H10 O2  =    19 atoms



      MOLECULAR POINT GROUP   :   C1  


                  EIGENVALUES  
 -32.12437 -31.28025 -29.70608 -28.61131 -25.19220 -22.25875 -21.30104 -20.90454
 -19.67775 -17.15688 -16.89409 -16.41382 -15.86519 -14.86618 -14.62656 -14.23402
 -13.96421 -13.60918 -13.02352 -12.70315 -12.60751 -12.14159 -11.92151 -10.79015
 -10.49364   1.00218   1.63490   2.07281   2.46013   2.85064   3.43387   3.62706
   3.89266   4.04582   4.48090   4.79039   5.10375   5.15779   5.22451   5.37002
   5.47766   5.71437   5.77480   6.15543   6.19466   6.44406


              NET ATOMIC CHARGES AND DIPOLE CONTRIBUTIONS

  ATOM NO.   TYPE          CHARGE      No. of ELECS.   s-Pop       p-Pop       
    1          C          -0.448570        4.4486     1.05468     3.39389
    2          C          -0.096575        4.0966     1.06328     3.03330
    3          C          -0.395316        4.3953     1.07742     3.31789
    4          C           0.594969        3.4050     1.12101     2.28402
    5          O          -0.434518        6.4345     1.87580     4.55872
    6          O          -0.375220        6.3752     1.87366     4.50156
    7          C           0.186746        3.8133     1.06282     2.75044
    8          C          -0.354560        4.3546     1.05751     3.29705
    9          C          -0.339403        4.3394     1.05652     3.28289
   10          H           0.159436        0.8406     0.84056
   11          H           0.151454        0.8485     0.84855
   12          H           0.150605        0.8494     0.84939
   13          H           0.153627        0.8464     0.84637
   14          H           0.181355        0.8186     0.81865
   15          H           0.186866        0.8131     0.81313
   16          H           0.161278        0.8387     0.83872
   17          H           0.178223        0.8218     0.82178
   18          H           0.177493        0.8225     0.82251
   19          H           0.162109        0.8379     0.83789
 DIPOLE           X         Y         Z       TOTAL
 POINT-CHG.    -1.354    -4.871    -0.897     5.134
 HYBRID         0.196     0.378     0.132     0.446
 SUM           -1.158    -4.492    -0.765     4.702


          ATOMIC ORBITAL ELECTRON POPULATIONS

     Atom    s        px        py        pz   
    1  C   1.05468   1.17129   1.10594   1.11666
    2  C   1.06328   0.95687   0.98483   1.09160
    3  C   1.07742   1.09263   1.02909   1.19618
    4  C   1.12101   0.78221   0.82151   0.68030
    5  O   1.87580   1.81142   1.26032   1.48698
    6  O   1.87366   1.39073   1.29371   1.81712
    7  C   1.06282   0.91510   0.77788   1.05745
    8  C   1.05751   1.11951   1.16919   1.00835
    9  C   1.05652   1.11075   1.14516   1.02697
   10  H   0.84056
   11  H   0.84855
   12  H   0.84939
   13  H   0.84637
   14  H   0.81865
   15  H   0.81313
   16  H   0.83872
   17  H   0.82178
   18  H   0.82251
   19  H   0.83789

 **********************
 *                    *
 * JOB ENDED NORMALLY *
 *                    *
 **********************



 TOTAL JOB TIME:             1.39 SECONDS

 == MOPAC DONE ==
