 *******************************************************************************
 **                                                                           **
 **                              MOPAC v23.2                                  **
 **                                                                           **
 *******************************************************************************
 **          Digital Object Identifier (DOI): 10.5281/zenodo.6511958          **
 **    Visit the DOI location for information on how to cite this program.    **
 *******************************************************************************

                              PM7 CALCULATION RESULTS

 *******************************************************************************
 *  CALCULATION DONE: (MAX THREADS = 40)             Fri Sep 19 22:01:08 2025  *
 *  PM7        - The PM7 Hamiltonian to be used
 *
 *
 *
 *                 CHARGE ON SYSTEM = +1
 *
 *
 *
 *  1SCF       - DO 1 SCF AND THEN STOP 
 *  T=         - A TIME OF 172800.0 SECONDS REQUESTED
 *  DUMP=N     - RESTART FILE WRITTEN EVERY 7200.0 SECONDS REQUESTED
 *  RELSCF     - DEFAULT SCF CRITERION MULTIPLIED BY 0.0001
 *              (DEFAULT SCF CRITERION = 0.00010)
 *  GRADIENTS  - ALL GRADIENTS TO BE PRINTED
 *  DISP       - PRINT DISPERSION AND HYDROGEN BOND ENERGIES
 *******************************************************************************
PM7 1SCF GRADIENTS DISP RELSCF=0.0001 CHARGE=1
 Title: ASE calculation

   ATOM   CHEMICAL          X               Y               Z
  NUMBER   SYMBOL      (ANGSTROMS)     (ANGSTROMS)     (ANGSTROMS)

     1       C         -2.84080778  *  -1.25376357  *  -0.06519311  *
     2       N         -1.41577546  *  -1.48325459  *   0.12453862  *
     3       C         -0.53113113  *  -0.49115223  *  -0.02876585  *
     4       N         -0.89131263  *   0.83587367  *  -0.34892085  *
     5       C          0.22080188  *   1.54719403  *  -0.42505322  *
     6       N          1.36814852  *   0.74238204  *  -0.16285326  *
     7       C          0.91567064  *  -0.53777027  *   0.08642310  *
     8       O          1.57476521  *  -1.63773952  *   0.37038884  *
     9       C          3.01094795  *  -1.57423670  *   0.40987412  *
    10       H         -3.08313490  *  -1.13982324  *  -1.14718575  *
    11       H         -3.17797043  *  -0.30906549  *   0.42227701  *
    12       H         -3.43471336  *  -2.09340895  *   0.34572071  *
    13       H         -1.10095058  *  -2.42129522  *   0.36148939  *
    14       H          0.29685328  *   2.60976186  *  -0.65986357  *
    15       H          2.32420203  *   1.05530794  *  -0.15634000  *
    16       H          3.41922114  *  -1.31056820  *  -0.57127166  *
    17       H          3.26190862  *  -2.62405425  *   0.65558036  *
    18       H          3.35264941  *  -0.90879640  *   1.20907924  *



          CARTESIAN COORDINATES 

    NO.       ATOM           X           Y           Z

     1         C         -2.8408     -1.2538     -0.0652
     2         N         -1.4158     -1.4833      0.1245
     3         C         -0.5311     -0.4912     -0.0288
     4         N         -0.8913      0.8359     -0.3489
     5         C          0.2208      1.5472     -0.4251
     6         N          1.3681      0.7424     -0.1629
     7         C          0.9157     -0.5378      0.0864
     8         O          1.5748     -1.6377      0.3704
     9         C          3.0109     -1.5742      0.4099
    10         H         -3.0831     -1.1398     -1.1472
    11         H         -3.1780     -0.3091      0.4223
    12         H         -3.4347     -2.0934      0.3457
    13         H         -1.1010     -2.4213      0.3615
    14         H          0.2969      2.6098     -0.6599
    15         H          2.3242      1.0553     -0.1563
    16         H          3.4192     -1.3106     -0.5713
    17         H          3.2619     -2.6241      0.6556
    18         H          3.3526     -0.9088      1.2091

 General Reference for PM7:
 "Optimization of Parameters for Semiempirical Methods VI: More Modifications to the 
 NDDO Approximations and Re-optimization of Parameters", J. J. P. Stewart, J. Mol. Mod., 1:32, 19 (2013)
 https://link.springer.com/article/10.1007/s00894-012-1667-x

           Empirical Formula: C5 H9 N3 O  =    18 atoms



      MOLECULAR POINT GROUP   :   C1  


          UHF CALCULATION, NO. OF ALPHA ELECTRONS =   25
                           NO. OF BETA  ELECTRONS =   24
  SCF CRITERION =    0.1000E-07

 -------------------------------------------------------------------------------
 PM7 1SCF GRADIENTS DISP RELSCF=0.0001 CHARGE=1
 Title: ASE calculation



     1SCF WAS SPECIFIED, SO BFGS WAS NOT USED                 
     SCF FIELD WAS ACHIEVED                                   


                              PM7 CALCULATION
                                                       MOPAC v23.2 Linux
                                                       Fri Sep 19 22:01:09 2025




          FINAL HEAT OF FORMATION =        160.99707 KCAL/MOL =     673.61174 KJ/MOL

          TOTAL ENERGY            =     -36473.86288 KCAL/MOL = ELECTRONIC ENERGY + CORE-CORE REPULSION
          ENERGY OF ATOMS         =      36636.88379 KCAL/MOL
                              SUM =        163.02092 KCAL/MOL
          DISPERSION ENERGY       =         -2.02170 KCAL/MOL
          H-BOND ENERGY           =         -0.00215 KCAL/MOL
                              SUM =        160.99707 KCAL/MOL = FINAL HEAT OF FORMATION



          TOTAL ENERGY            =      -1581.65639 EV
          ELECTRONIC ENERGY       =      -7433.48769 EV 
          CORE-CORE REPULSION     =       5851.83130 EV
          COSMO AREA              =        164.74 SQUARE ANGSTROMS
          COSMO VOLUME            =        156.11 CUBIC ANGSTROMS

          GRADIENT NORM           =          1.29688          =       0.30568 PER ATOM
          IONIZATION POTENTIAL    =         13.248571 EV
          ALPHA SOMO LUMO (EV)    =        -13.249 -4.627
          BETA  SOMO LUMO (EV)    =        -14.477 -5.928
          NO. OF ALPHA ELECTRONS  =         25
          NO. OF BETA  ELECTRONS  =         24
          MOLECULAR WEIGHT        =        127.1456         POINT GROUP:  C1  

          MOLECULAR DIMENSIONS (Angstroms)

            Atom       Atom       Distance
            H    16    H    12     6.95918
            H    17    H    14     5.76691
            H    18    H    10     2.91444


          SCF CALCULATIONS        =          1

          WALL-CLOCK TIME         =      0.609 SECONDS
          COMPUTATION TIME        =      0.505 SECONDS

          LARGEST ATOMIC GRADIENTS

          Atom     Label                     Cartesian Gradients           Cartesian Coordinates       |Gradient|
                                           X          Y          Z        X          Y          Z

             8       O                   0.148     -0.401      0.077    1.57477   -1.63774    0.37039      0.434
            18       H                  -0.102     -0.280     -0.297    3.35265   -0.90880    1.20908      0.421
             7       C                   0.372      0.054      0.139    0.91567   -0.53777    0.08642      0.401
            15       H                  -0.390      0.051      0.059    2.32420    1.05531   -0.15634      0.398
            11       H                  -0.372      0.117     -0.011   -3.17797   -0.30907    0.42228      0.390
            17       H                   0.113      0.340     -0.141    3.26191   -2.62405    0.65558      0.385
            14       H                  -0.242     -0.152     -0.250    0.29685    2.60976   -0.65986      0.380
             3       C                   0.304      0.160      0.155   -0.53113   -0.49115   -0.02877      0.377
            16       H                  -0.079     -0.214      0.279    3.41922   -1.31057   -0.57127      0.361
             2       N                   0.223      0.074     -0.099   -1.41578   -1.48325    0.12454      0.255



       FINAL  POINT  AND  DERIVATIVES

   PARAMETER     ATOM    TYPE            VALUE        GRADIENT
      1          1  C    CARTESIAN X    -2.840808     -0.006248  KCAL/ANGSTROM
      2          1  C    CARTESIAN Y    -1.253764      0.010243  KCAL/ANGSTROM
      3          1  C    CARTESIAN Z    -0.065193      0.069691  KCAL/ANGSTROM
      4          2  N    CARTESIAN X    -1.415775      0.223006  KCAL/ANGSTROM
      5          2  N    CARTESIAN Y    -1.483255      0.073952  KCAL/ANGSTROM
      6          2  N    CARTESIAN Z     0.124539     -0.099012  KCAL/ANGSTROM
      7          3  C    CARTESIAN X    -0.531131      0.304273  KCAL/ANGSTROM
      8          3  C    CARTESIAN Y    -0.491152      0.160284  KCAL/ANGSTROM
      9          3  C    CARTESIAN Z    -0.028766      0.155102  KCAL/ANGSTROM
     10          4  N    CARTESIAN X    -0.891313      0.057182  KCAL/ANGSTROM
     11          4  N    CARTESIAN Y     0.835874      0.172954  KCAL/ANGSTROM
     12          4  N    CARTESIAN Z    -0.348921     -0.131527  KCAL/ANGSTROM
     13          5  C    CARTESIAN X     0.220802      0.009782  KCAL/ANGSTROM
     14          5  C    CARTESIAN Y     1.547194      0.095514  KCAL/ANGSTROM
     15          5  C    CARTESIAN Z    -0.425053      0.177100  KCAL/ANGSTROM
     16          6  N    CARTESIAN X     1.368149      0.031004  KCAL/ANGSTROM
     17          6  N    CARTESIAN Y     0.742382      0.090108  KCAL/ANGSTROM
     18          6  N    CARTESIAN Z    -0.162853      0.065278  KCAL/ANGSTROM
     19          7  C    CARTESIAN X     0.915671      0.372292  KCAL/ANGSTROM
     20          7  C    CARTESIAN Y    -0.537770      0.054453  KCAL/ANGSTROM
     21          7  C    CARTESIAN Z     0.086423      0.139129  KCAL/ANGSTROM
     22          8  O    CARTESIAN X     1.574765      0.147955  KCAL/ANGSTROM
     23          8  O    CARTESIAN Y    -1.637740     -0.400655  KCAL/ANGSTROM
     24          8  O    CARTESIAN Z     0.370389      0.077356  KCAL/ANGSTROM
     25          9  C    CARTESIAN X     3.010948      0.090423  KCAL/ANGSTROM
     26          9  C    CARTESIAN Y    -1.574237     -0.045834  KCAL/ANGSTROM
     27          9  C    CARTESIAN Z     0.409874     -0.045626  KCAL/ANGSTROM
     28         10  H    CARTESIAN X    -3.083135     -0.099355  KCAL/ANGSTROM
     29         10  H    CARTESIAN Y    -1.139823      0.100701  KCAL/ANGSTROM
     30         10  H    CARTESIAN Z    -1.147186     -0.136824  KCAL/ANGSTROM
     31         11  H    CARTESIAN X    -3.177970     -0.371730  KCAL/ANGSTROM
     32         11  H    CARTESIAN Y    -0.309065      0.117098  KCAL/ANGSTROM
     33         11  H    CARTESIAN Z     0.422277     -0.011273  KCAL/ANGSTROM
     34         12  H    CARTESIAN X    -3.434713     -0.115894  KCAL/ANGSTROM
     35         12  H    CARTESIAN Y    -2.093409     -0.095837  KCAL/ANGSTROM
     36         12  H    CARTESIAN Z     0.345721     -0.050823  KCAL/ANGSTROM
     37         13  H    CARTESIAN X    -1.100951      0.058209  KCAL/ANGSTROM
     38         13  H    CARTESIAN Y    -2.421295     -0.077886  KCAL/ANGSTROM
     39         13  H    CARTESIAN Z     0.361489      0.141803  KCAL/ANGSTROM
     40         14  H    CARTESIAN X     0.296853     -0.242394  KCAL/ANGSTROM
     41         14  H    CARTESIAN Y     2.609762     -0.151526  KCAL/ANGSTROM
     42         14  H    CARTESIAN Z    -0.659864     -0.250165  KCAL/ANGSTROM
     43         15  H    CARTESIAN X     2.324202     -0.389823  KCAL/ANGSTROM
     44         15  H    CARTESIAN Y     1.055308      0.050667  KCAL/ANGSTROM
     45         15  H    CARTESIAN Z    -0.156340      0.059053  KCAL/ANGSTROM
     46         16  H    CARTESIAN X     3.419221     -0.079481  KCAL/ANGSTROM
     47         16  H    CARTESIAN Y    -1.310568     -0.214403  KCAL/ANGSTROM
     48         16  H    CARTESIAN Z    -0.571272      0.279031  KCAL/ANGSTROM
     49         17  H    CARTESIAN X     3.261909      0.112789  KCAL/ANGSTROM
     50         17  H    CARTESIAN Y    -2.624054      0.340235  KCAL/ANGSTROM
     51         17  H    CARTESIAN Z     0.655580     -0.141254  KCAL/ANGSTROM
     52         18  H    CARTESIAN X     3.352649     -0.101990  KCAL/ANGSTROM
     53         18  H    CARTESIAN Y    -0.908796     -0.280070  KCAL/ANGSTROM
     54         18  H    CARTESIAN Z     1.209079     -0.297041  KCAL/ANGSTROM




   ATOM   CHEMICAL          X               Y               Z
  NUMBER   SYMBOL      (ANGSTROMS)     (ANGSTROMS)     (ANGSTROMS)

     1       C         -2.84080778  *  -1.25376357  *  -0.06519311  *
     2       N         -1.41577546  *  -1.48325459  *   0.12453862  *
     3       C         -0.53113113  *  -0.49115223  *  -0.02876585  *
     4       N         -0.89131263  *   0.83587367  *  -0.34892085  *
     5       C          0.22080188  *   1.54719403  *  -0.42505322  *
     6       N          1.36814852  *   0.74238204  *  -0.16285326  *
     7       C          0.91567064  *  -0.53777027  *   0.08642310  *
     8       O          1.57476521  *  -1.63773952  *   0.37038884  *
     9       C          3.01094795  *  -1.57423670  *   0.40987412  *
    10       H         -3.08313490  *  -1.13982324  *  -1.14718575  *
    11       H         -3.17797043  *  -0.30906549  *   0.42227701  *
    12       H         -3.43471336  *  -2.09340895  *   0.34572071  *
    13       H         -1.10095058  *  -2.42129522  *   0.36148939  *
    14       H          0.29685328  *   2.60976186  *  -0.65986357  *
    15       H          2.32420203  *   1.05530794  *  -0.15634000  *
    16       H          3.41922114  *  -1.31056820  *  -0.57127166  *
    17       H          3.26190862  *  -2.62405425  *   0.65558036  *
    18       H          3.35264941  *  -0.90879640  *   1.20907924  *

                             CARTESIAN COORDINATES

   1    C       -2.840807778    -1.253763569    -0.065193109
   2    N       -1.415775459    -1.483254590     0.124538621
   3    C       -0.531131132    -0.491152226    -0.028765847
   4    N       -0.891312635     0.835873673    -0.348920849
   5    C        0.220801881     1.547194034    -0.425053222
   6    N        1.368148524     0.742382042    -0.162853257
   7    C        0.915670644    -0.537770271     0.086423099
   8    O        1.574765211    -1.637739516     0.370388838
   9    C        3.010947954    -1.574236698     0.409874117
  10    H       -3.083134895    -1.139823240    -1.147185746
  11    H       -3.177970431    -0.309065492     0.422277006
  12    H       -3.434713364    -2.093408954     0.345720709
  13    H       -1.100950584    -2.421295215     0.361489385
  14    H        0.296853282     2.609761856    -0.659863572
  15    H        2.324202025     1.055307938    -0.156340003
  16    H        3.419221142    -1.310568196    -0.571271658
  17    H        3.261908624    -2.624054248     0.655580365
  18    H        3.352649407    -0.908796404     1.209079236


           Empirical Formula: C5 H9 N3 O  =    18 atoms



      MOLECULAR POINT GROUP   :   C1  


          ALPHA EIGENVALUES  
 -43.73916 -42.25588 -38.53520 -36.34353 -31.11167 -29.16712 -28.52022 -26.74850
 -25.69073 -24.17944 -22.63876 -21.62197 -21.61694 -20.24938 -20.14267 -20.02248
 -19.06749 -18.78366 -17.68265 -17.59913 -17.11191 -16.60704 -15.80823 -15.07878
 -13.24857  -4.62735  -3.81368  -3.52378  -3.33510  -2.91246  -2.05346  -1.25885
  -0.84951  -0.62769   0.00756   0.39668   0.67795   0.97626   1.02477   1.05043
   1.17315   1.44143   1.53782   1.68699   2.04775


           BETA EIGENVALUES 
 -43.77266 -41.29864 -38.54945 -35.95532 -30.98530 -29.09645 -28.35994 -26.67697
 -25.55709 -24.07421 -22.50078 -21.50362 -21.22070 -20.00866 -19.96181 -19.72990
 -18.74621 -18.66540 -17.65265 -17.55030 -16.87781 -16.04552 -15.84656 -14.47725
  -5.92845  -3.70337  -3.66949  -3.18668  -3.07072  -2.60127  -2.00131  -1.24349
  -0.77728  -0.49846   0.27192   0.44230   0.73681   1.00895   1.04902   1.06058
   1.24567   1.44328   1.67688   1.69072   2.08827


              NET ATOMIC CHARGES AND DIPOLE CONTRIBUTIONS

  ATOM NO.   TYPE          CHARGE      No. of ELECS.   s-Pop       p-Pop       
    1          C          -0.275734        4.2757     1.07090     3.20483
    2          N          -0.159904        5.1599     1.49969     3.66021
    3          C           0.103501        3.8965     1.03458     2.86192
    4          N          -0.349000        5.3490     1.76552     3.58348
    5          C           0.216859        3.7831     1.12260     2.66054
    6          N          -0.429515        5.4295     1.54028     3.88924
    7          C           0.269497        3.7305     1.07943     2.65108
    8          O          -0.211117        6.2111     1.85984     4.35127
    9          C          -0.206656        4.2067     1.10369     3.10296
   10          H           0.200731        0.7993     0.79927
   11          H           0.207957        0.7920     0.79204
   12          H           0.187461        0.8125     0.81254
   13          H           0.331423        0.6686     0.66858
   14          H           0.236835        0.7632     0.76317
   15          H           0.354600        0.6454     0.64540
   16          H           0.161984        0.8380     0.83802
   17          H           0.199312        0.8007     0.80069
   18          H           0.161765        0.8382     0.83823
 DIPOLE           X         Y         Z       TOTAL
 POINT-CHG.     0.902    -0.598     0.066     1.084
 HYBRID         1.396    -0.719     0.270     1.593
 SUM            2.298    -1.317     0.336     2.669


          ATOMIC ORBITAL ELECTRON POPULATIONS

     Atom    s        px        py        pz   
    1  C   1.07090   0.78904   1.21033   1.20546
    2  N   1.49969   1.12781   1.15432   1.37809
    3  C   1.03458   0.86165   0.88315   1.11712
    4  N   1.76552   1.30052   1.05015   1.23281
    5  C   1.12260   0.73801   0.99978   0.92275
    6  N   1.54028   1.19573   1.13505   1.55846
    7  C   1.07943   0.91468   0.79091   0.94548
    8  O   1.85984   1.29567   1.28150   1.77411
    9  C   1.10369   0.72978   1.20581   1.16738
   10  H   0.79927
   11  H   0.79204
   12  H   0.81254
   13  H   0.66858
   14  H   0.76317
   15  H   0.64540
   16  H   0.83802
   17  H   0.80069
   18  H   0.83823


                    (SZ)    =    0.500000
                    (S**2)  =    0.807601


          ATOMIC ORBITAL SPIN POPULATIONS

    Atom   Total    s     px     py     pz   
         Atomic
    1  C -0.0338 -0.004 -0.027 -0.003  0.000
    2  N  0.5765  0.026  0.030  0.047  0.473
    3  C -0.0041 -0.006 -0.013 -0.006  0.022
    4  N -0.0623 -0.002 -0.005 -0.005 -0.051
    5  C  0.1470  0.004  0.006  0.011  0.126
    6  N -0.0522 -0.003 -0.004 -0.010 -0.035
    7  C  0.3093  0.007  0.008  0.019  0.276
    8  O  0.1123  0.005  0.005  0.000  0.102
    9  C -0.0074 -0.001 -0.005 -0.001 -0.001
   10  H  0.0229  0.023
   11  H  0.0126  0.013
   12  H  0.0023  0.002
   13  H -0.0247 -0.025
   14  H -0.0039 -0.004
   15  H  0.0016  0.002
   16  H  0.0022  0.002
   17  H -0.0003 -0.000
   18  H  0.0021  0.002

 **********************
 *                    *
 * JOB ENDED NORMALLY *
 *                    *
 **********************



 TOTAL JOB TIME:             0.90 SECONDS

 == MOPAC DONE ==
