 *******************************************************************************
 **                                                                           **
 **                              MOPAC v23.2                                  **
 **                                                                           **
 *******************************************************************************
 **          Digital Object Identifier (DOI): 10.5281/zenodo.6511958          **
 **    Visit the DOI location for information on how to cite this program.    **
 *******************************************************************************

                              PM7 CALCULATION RESULTS

 *******************************************************************************
 *  CALCULATION DONE: (MAX THREADS = 40)             Fri Sep 19 21:29:04 2025  *
 *  PM7        - The PM7 Hamiltonian to be used
 *
 *
 *
 *                 CHARGE ON SYSTEM = +1
 *
 *
 *
 *  1SCF       - DO 1 SCF AND THEN STOP 
 *  T=         - A TIME OF 172800.0 SECONDS REQUESTED
 *  DUMP=N     - RESTART FILE WRITTEN EVERY 7200.0 SECONDS REQUESTED
 *  RELSCF     - DEFAULT SCF CRITERION MULTIPLIED BY 0.0001
 *              (DEFAULT SCF CRITERION = 0.00010)
 *  GRADIENTS  - ALL GRADIENTS TO BE PRINTED
 *  DISP       - PRINT DISPERSION AND HYDROGEN BOND ENERGIES
 *******************************************************************************
PM7 1SCF GRADIENTS DISP RELSCF=0.0001 CHARGE=1
 Title: ASE calculation

   ATOM   CHEMICAL          X               Y               Z
  NUMBER   SYMBOL      (ANGSTROMS)     (ANGSTROMS)     (ANGSTROMS)

     1       C          2.29476738  *   1.53376256  *   0.18646961  *
     2       C          1.59459710  *   0.19509339  *   0.47150002  *
     3       C          0.40400087  *   0.11028078  *  -0.42261728  *
     4       C         -0.02633877  *  -1.72170931  *  -0.23872437  *
     5       O          0.19891904  *  -2.29652023  *  -1.22122257  *
     6       C         -0.86364681  *   0.79171804  *  -0.04878936  *
     7       C         -1.35362901  *   0.56590738  *   1.37545218  *
     8       C         -2.01152230  *   0.49679112  *  -1.05231718  *
     9       O         -3.14683787  *   1.21677027  *  -0.66096386  *
    10       H          2.54854850  *   1.66639710  *  -0.87354743  *
    11       H          3.24754073  *   1.59284522  *   0.74075424  *
    12       H          1.69315414  *   2.39450405  *   0.50680440  *
    13       H          2.32775344  *  -0.62475873  *   0.29459324  *
    14       H          1.33828410  *   0.13908084  *   1.55313882  *
    15       H          0.63835097  *   0.12046174  *  -1.50707352  *
    16       H         -0.39565173  *  -1.81960043  *   0.77594257  *
    17       H         -0.63206908  *   1.90848897  *  -0.13808477  *
    18       H         -1.64761407  *  -0.46736421  *   1.58431985  *
    19       H         -2.27626028  *   1.15875632  *   1.55873153  *
    20       H         -0.63431501  *   0.89291351  *   2.13632144  *
    21       H         -1.72648245  *   0.73086943  *  -2.09284167  *
    22       H         -2.35146051  *  -0.55588593  *  -0.98913026  *
    23       H         -3.15919845  *   2.11928452  *  -1.05390300  *



          CARTESIAN COORDINATES 

    NO.       ATOM           X           Y           Z

     1         C          2.2948      1.5338      0.1865
     2         C          1.5946      0.1951      0.4715
     3         C          0.4040      0.1103     -0.4226
     4         C         -0.0263     -1.7217     -0.2387
     5         O          0.1989     -2.2965     -1.2212
     6         C         -0.8636      0.7917     -0.0488
     7         C         -1.3536      0.5659      1.3755
     8         C         -2.0115      0.4968     -1.0523
     9         O         -3.1468      1.2168     -0.6610
    10         H          2.5485      1.6664     -0.8735
    11         H          3.2475      1.5928      0.7408
    12         H          1.6932      2.3945      0.5068
    13         H          2.3278     -0.6248      0.2946
    14         H          1.3383      0.1391      1.5531
    15         H          0.6384      0.1205     -1.5071
    16         H         -0.3957     -1.8196      0.7759
    17         H         -0.6321      1.9085     -0.1381
    18         H         -1.6476     -0.4674      1.5843
    19         H         -2.2763      1.1588      1.5587
    20         H         -0.6343      0.8929      2.1363
    21         H         -1.7265      0.7309     -2.0928
    22         H         -2.3515     -0.5559     -0.9891
    23         H         -3.1592      2.1193     -1.0539

 General Reference for PM7:
 "Optimization of Parameters for Semiempirical Methods VI: More Modifications to the 
 NDDO Approximations and Re-optimization of Parameters", J. J. P. Stewart, J. Mol. Mod., 1:32, 19 (2013)
 https://link.springer.com/article/10.1007/s00894-012-1667-x

           Empirical Formula: C7 H14 O2  =    23 atoms



      MOLECULAR POINT GROUP   :   C1  


          UHF CALCULATION, NO. OF ALPHA ELECTRONS =   27
                           NO. OF BETA  ELECTRONS =   26
  SCF CRITERION =    0.1000E-07

 -------------------------------------------------------------------------------
 PM7 1SCF GRADIENTS DISP RELSCF=0.0001 CHARGE=1
 Title: ASE calculation



     1SCF WAS SPECIFIED, SO BFGS WAS NOT USED                 
     SCF FIELD WAS ACHIEVED                                   


                              PM7 CALCULATION
                                                       MOPAC v23.2 Linux
                                                       Fri Sep 19 21:29:05 2025




          FINAL HEAT OF FORMATION =        113.53705 KCAL/MOL =     475.03900 KJ/MOL

          TOTAL ENERGY            =     -37595.93215 KCAL/MOL = ELECTRONIC ENERGY + CORE-CORE REPULSION
          ENERGY OF ATOMS         =      37712.04263 KCAL/MOL
                              SUM =        116.11048 KCAL/MOL
          DISPERSION ENERGY       =         -2.57343 KCAL/MOL
                              SUM =        113.53705 KCAL/MOL = FINAL HEAT OF FORMATION



          TOTAL ENERGY            =      -1630.31392 EV
          ELECTRONIC ENERGY       =      -8193.00223 EV 
          CORE-CORE REPULSION     =       6562.68831 EV
          COSMO AREA              =        178.36 SQUARE ANGSTROMS
          COSMO VOLUME            =        184.98 CUBIC ANGSTROMS

          GRADIENT NORM           =          1.13380          =       0.23641 PER ATOM
          IONIZATION POTENTIAL    =         14.491206 EV
          ALPHA SOMO LUMO (EV)    =        -14.491 -5.685
          BETA  SOMO LUMO (EV)    =        -14.506 -7.622
          NO. OF ALPHA ELECTRONS  =         27
          NO. OF BETA  ELECTRONS  =         26
          MOLECULAR WEIGHT        =        130.1864         POINT GROUP:  C1  

          MOLECULAR DIMENSIONS (Angstroms)

            Atom       Atom       Distance
            H    23    H    11     6.67415
            O     5    H    12     4.98865
            H    10    H    18     3.99001


          SCF CALCULATIONS        =          1

          WALL-CLOCK TIME         =      0.953 SECONDS
          COMPUTATION TIME        =      0.283 SECONDS

          LARGEST ATOMIC GRADIENTS

          Atom     Label                     Cartesian Gradients           Cartesian Coordinates       |Gradient|
                                           X          Y          Z        X          Y          Z

             5       O                   0.033     -0.213     -0.352    0.19892   -2.29652   -1.22122      0.413
            11       H                   0.069     -0.122     -0.278    3.24754    1.59285    0.74075      0.311
             2       C                   0.207      0.097      0.194    1.59460    0.19509    0.47150      0.299
            23       H                  -0.058     -0.286     -0.049   -3.15920    2.11928   -1.05390      0.296
            14       H                  -0.062     -0.143      0.247    1.33828    0.13908    1.55314      0.292
             9       O                  -0.026      0.254     -0.089   -3.14684    1.21677   -0.66096      0.270
            17       H                   0.074     -0.167      0.190   -0.63207    1.90849   -0.13808      0.264
             6       C                   0.182      0.174     -0.074   -0.86365    0.79172   -0.04879      0.262
            12       H                  -0.153      0.141      0.143    1.69315    2.39450    0.50680      0.253
            16       H                   0.108      0.169     -0.145   -0.39565   -1.81960    0.77594      0.247



       FINAL  POINT  AND  DERIVATIVES

   PARAMETER     ATOM    TYPE            VALUE        GRADIENT
      1          1  C    CARTESIAN X     2.294767      0.072778  KCAL/ANGSTROM
      2          1  C    CARTESIAN Y     1.533763      0.205625  KCAL/ANGSTROM
      3          1  C    CARTESIAN Z     0.186470     -0.018042  KCAL/ANGSTROM
      4          2  C    CARTESIAN X     1.594597      0.206775  KCAL/ANGSTROM
      5          2  C    CARTESIAN Y     0.195093      0.097009  KCAL/ANGSTROM
      6          2  C    CARTESIAN Z     0.471500      0.193606  KCAL/ANGSTROM
      7          3  C    CARTESIAN X     0.404001      0.198280  KCAL/ANGSTROM
      8          3  C    CARTESIAN Y     0.110281     -0.084343  KCAL/ANGSTROM
      9          3  C    CARTESIAN Z    -0.422617      0.056717  KCAL/ANGSTROM
     10          4  C    CARTESIAN X    -0.026339     -0.149238  KCAL/ANGSTROM
     11          4  C    CARTESIAN Y    -1.721709     -0.093335  KCAL/ANGSTROM
     12          4  C    CARTESIAN Z    -0.238724     -0.071629  KCAL/ANGSTROM
     13          5  O    CARTESIAN X     0.198919      0.033120  KCAL/ANGSTROM
     14          5  O    CARTESIAN Y    -2.296520     -0.212500  KCAL/ANGSTROM
     15          5  O    CARTESIAN Z    -1.221223     -0.352403  KCAL/ANGSTROM
     16          6  C    CARTESIAN X    -0.863647      0.181734  KCAL/ANGSTROM
     17          6  C    CARTESIAN Y     0.791718      0.173571  KCAL/ANGSTROM
     18          6  C    CARTESIAN Z    -0.048789     -0.074097  KCAL/ANGSTROM
     19          7  C    CARTESIAN X    -1.353629     -0.029727  KCAL/ANGSTROM
     20          7  C    CARTESIAN Y     0.565907      0.087958  KCAL/ANGSTROM
     21          7  C    CARTESIAN Z     1.375452      0.035543  KCAL/ANGSTROM
     22          8  C    CARTESIAN X    -2.011522      0.127211  KCAL/ANGSTROM
     23          8  C    CARTESIAN Y     0.496791      0.061421  KCAL/ANGSTROM
     24          8  C    CARTESIAN Z    -1.052317      0.141533  KCAL/ANGSTROM
     25          9  O    CARTESIAN X    -3.146838     -0.025968  KCAL/ANGSTROM
     26          9  O    CARTESIAN Y     1.216770      0.253521  KCAL/ANGSTROM
     27          9  O    CARTESIAN Z    -0.660964     -0.089415  KCAL/ANGSTROM
     28         10  H    CARTESIAN X     2.548549      0.013225  KCAL/ANGSTROM
     29         10  H    CARTESIAN Y     1.666397      0.029487  KCAL/ANGSTROM
     30         10  H    CARTESIAN Z    -0.873547     -0.156744  KCAL/ANGSTROM
     31         11  H    CARTESIAN X     3.247541      0.068997  KCAL/ANGSTROM
     32         11  H    CARTESIAN Y     1.592845     -0.122463  KCAL/ANGSTROM
     33         11  H    CARTESIAN Z     0.740754     -0.277770  KCAL/ANGSTROM
     34         12  H    CARTESIAN X     1.693154     -0.153294  KCAL/ANGSTROM
     35         12  H    CARTESIAN Y     2.394504      0.140967  KCAL/ANGSTROM
     36         12  H    CARTESIAN Z     0.506804      0.143498  KCAL/ANGSTROM
     37         13  H    CARTESIAN X     2.327753     -0.056856  KCAL/ANGSTROM
     38         13  H    CARTESIAN Y    -0.624759     -0.062561  KCAL/ANGSTROM
     39         13  H    CARTESIAN Z     0.294593      0.075815  KCAL/ANGSTROM
     40         14  H    CARTESIAN X     1.338284     -0.061685  KCAL/ANGSTROM
     41         14  H    CARTESIAN Y     0.139081     -0.142737  KCAL/ANGSTROM
     42         14  H    CARTESIAN Z     1.553139      0.247075  KCAL/ANGSTROM
     43         15  H    CARTESIAN X     0.638351     -0.153259  KCAL/ANGSTROM
     44         15  H    CARTESIAN Y     0.120462     -0.081468  KCAL/ANGSTROM
     45         15  H    CARTESIAN Z    -1.507074     -0.020227  KCAL/ANGSTROM
     46         16  H    CARTESIAN X    -0.395652      0.107796  KCAL/ANGSTROM
     47         16  H    CARTESIAN Y    -1.819600      0.169048  KCAL/ANGSTROM
     48         16  H    CARTESIAN Z     0.775943     -0.144877  KCAL/ANGSTROM
     49         17  H    CARTESIAN X    -0.632069      0.073913  KCAL/ANGSTROM
     50         17  H    CARTESIAN Y     1.908489     -0.167318  KCAL/ANGSTROM
     51         17  H    CARTESIAN Z    -0.138085      0.189706  KCAL/ANGSTROM
     52         18  H    CARTESIAN X    -1.647614     -0.184094  KCAL/ANGSTROM
     53         18  H    CARTESIAN Y    -0.467364      0.095635  KCAL/ANGSTROM
     54         18  H    CARTESIAN Z     1.584320      0.065323  KCAL/ANGSTROM
     55         19  H    CARTESIAN X    -2.276260      0.048734  KCAL/ANGSTROM
     56         19  H    CARTESIAN Y     1.158756     -0.084924  KCAL/ANGSTROM
     57         19  H    CARTESIAN Z     1.558732     -0.025897  KCAL/ANGSTROM
     58         20  H    CARTESIAN X    -0.634315     -0.182802  KCAL/ANGSTROM
     59         20  H    CARTESIAN Y     0.892914      0.128865  KCAL/ANGSTROM
     60         20  H    CARTESIAN Z     2.136321      0.079982  KCAL/ANGSTROM
     61         21  H    CARTESIAN X    -1.726482     -0.088920  KCAL/ANGSTROM
     62         21  H    CARTESIAN Y     0.730869     -0.164371  KCAL/ANGSTROM
     63         21  H    CARTESIAN Z    -2.092842      0.107277  KCAL/ANGSTROM
     64         22  H    CARTESIAN X    -2.351461      0.011435  KCAL/ANGSTROM
     65         22  H    CARTESIAN Y    -0.555886      0.058607  KCAL/ANGSTROM
     66         22  H    CARTESIAN Z    -0.989130     -0.055619  KCAL/ANGSTROM
     67         23  H    CARTESIAN X    -3.159198     -0.058155  KCAL/ANGSTROM
     68         23  H    CARTESIAN Y     2.119285     -0.285694  KCAL/ANGSTROM
     69         23  H    CARTESIAN Z    -1.053903     -0.049358  KCAL/ANGSTROM




   ATOM   CHEMICAL          X               Y               Z
  NUMBER   SYMBOL      (ANGSTROMS)     (ANGSTROMS)     (ANGSTROMS)

     1       C          2.29476738  *   1.53376256  *   0.18646961  *
     2       C          1.59459710  *   0.19509339  *   0.47150002  *
     3       C          0.40400087  *   0.11028078  *  -0.42261728  *
     4       C         -0.02633877  *  -1.72170931  *  -0.23872437  *
     5       O          0.19891904  *  -2.29652023  *  -1.22122257  *
     6       C         -0.86364681  *   0.79171804  *  -0.04878936  *
     7       C         -1.35362901  *   0.56590738  *   1.37545218  *
     8       C         -2.01152230  *   0.49679112  *  -1.05231718  *
     9       O         -3.14683787  *   1.21677027  *  -0.66096386  *
    10       H          2.54854850  *   1.66639710  *  -0.87354743  *
    11       H          3.24754073  *   1.59284522  *   0.74075424  *
    12       H          1.69315414  *   2.39450405  *   0.50680440  *
    13       H          2.32775344  *  -0.62475873  *   0.29459324  *
    14       H          1.33828410  *   0.13908084  *   1.55313882  *
    15       H          0.63835097  *   0.12046174  *  -1.50707352  *
    16       H         -0.39565173  *  -1.81960043  *   0.77594257  *
    17       H         -0.63206908  *   1.90848897  *  -0.13808477  *
    18       H         -1.64761407  *  -0.46736421  *   1.58431985  *
    19       H         -2.27626028  *   1.15875632  *   1.55873153  *
    20       H         -0.63431501  *   0.89291351  *   2.13632144  *
    21       H         -1.72648245  *   0.73086943  *  -2.09284167  *
    22       H         -2.35146051  *  -0.55588593  *  -0.98913026  *
    23       H         -3.15919845  *   2.11928452  *  -1.05390300  *

                             CARTESIAN COORDINATES

   1    C        2.294767383     1.533762562     0.186469613
   2    C        1.594597104     0.195093390     0.471500017
   3    C        0.404000866     0.110280783    -0.422617277
   4    C       -0.026338766    -1.721709307    -0.238724374
   5    O        0.198919036    -2.296520226    -1.221222574
   6    C       -0.863646814     0.791718043    -0.048789364
   7    C       -1.353629010     0.565907377     1.375452181
   8    C       -2.011522301     0.496791115    -1.052317182
   9    O       -3.146837868     1.216770269    -0.660963855
  10    H        2.548548500     1.666397097    -0.873547427
  11    H        3.247540732     1.592845223     0.740754242
  12    H        1.693154140     2.394504045     0.506804402
  13    H        2.327753438    -0.624758731     0.294593241
  14    H        1.338284096     0.139080838     1.553138820
  15    H        0.638350969     0.120461742    -1.507073524
  16    H       -0.395651730    -1.819600429     0.775942570
  17    H       -0.632069083     1.908488972    -0.138084769
  18    H       -1.647614067    -0.467364206     1.584319854
  19    H       -2.276260284     1.158756318     1.558731528
  20    H       -0.634315007     0.892913511     2.136321438
  21    H       -1.726482452     0.730869426    -2.092841672
  22    H       -2.351460513    -0.555885934    -0.989130261
  23    H       -3.159198452     2.119284516    -1.053903005


           Empirical Formula: C7 H14 O2  =    23 atoms



      MOLECULAR POINT GROUP   :   C1  


          ALPHA EIGENVALUES  
 -40.26438 -35.11867 -33.32626 -31.29923 -29.18998 -28.39733 -27.27376 -25.53496
 -23.84230 -22.57013 -21.76141 -21.39475 -21.29831 -20.92891 -20.09629 -19.36778
 -18.95733 -18.37373 -18.15855 -17.53509 -17.02061 -16.97546 -16.48953 -16.35532
 -15.95029 -15.19369 -14.49121  -5.68502  -5.03723  -2.43749  -1.54978  -1.47949
  -0.91843  -0.89328  -0.67568  -0.41177  -0.35946   0.04981   0.69631   0.91446
   1.17423   1.45085   1.54834   1.57257   1.71394   1.74078   1.81271   2.45058
   2.84236   2.93333


           BETA EIGENVALUES 
 -38.87231 -35.00555 -33.29692 -31.26868 -28.83896 -28.29591 -27.09784 -25.48321
 -23.57975 -21.97024 -21.39012 -21.24959 -20.95300 -20.73671 -19.69042 -19.31419
 -18.93013 -18.19641 -17.77375 -17.47427 -16.98008 -16.84052 -16.45055 -16.22618
 -15.89278 -14.50591  -7.62185  -5.49985  -4.04894  -2.09722  -1.45674  -1.38195
  -0.84863  -0.63069  -0.56353  -0.36511  -0.30372   0.11272   0.71555   0.95856
   1.18753   1.46563   1.55014   1.58151   1.72058   1.74797   1.81653   2.45144
   2.84519   2.93573


              NET ATOMIC CHARGES AND DIPOLE CONTRIBUTIONS

  ATOM NO.   TYPE          CHARGE      No. of ELECS.   s-Pop       p-Pop       
    1          C          -0.416769        4.4168     1.05446     3.36231
    2          C          -0.330592        4.3306     1.06270     3.26789
    3          C           0.049042        3.9510     1.16916     2.78180
    4          C           0.236038        3.7640     1.25424     2.50972
    5          O           0.007175        5.9928     1.87410     4.11872
    6          C          -0.224012        4.2240     1.07341     3.15060
    7          C          -0.444492        4.4445     1.05273     3.39176
    8          C          -0.015217        4.0152     1.08858     2.92663
    9          O          -0.491565        6.4916     1.85061     4.64096
   10          H           0.164536        0.8355     0.83546
   11          H           0.186132        0.8139     0.81387
   12          H           0.163171        0.8368     0.83683
   13          H           0.177870        0.8221     0.82213
   14          H           0.181184        0.8188     0.81882
   15          H           0.171027        0.8290     0.82897
   16          H           0.253968        0.7460     0.74603
   17          H           0.217993        0.7820     0.78201
   18          H           0.145647        0.8544     0.85435
   19          H           0.206914        0.7931     0.79309
   20          H           0.162618        0.8374     0.83738
   21          H           0.130184        0.8698     0.86982
   22          H           0.143146        0.8569     0.85685
   23          H           0.326003        0.6740     0.67400
 DIPOLE           X         Y         Z       TOTAL
 POINT-CHG.     3.328    -1.937     0.341     3.866
 HYBRID        -0.026    -0.128    -0.320     0.345
 SUM            3.303    -2.065     0.021     3.895


          ATOMIC ORBITAL ELECTRON POPULATIONS

     Atom    s        px        py        pz   
    1  C   1.05446   1.15785   1.00957   1.19489
    2  C   1.06270   1.03309   1.10841   1.12639
    3  C   1.16916   1.00221   0.67417   1.10543
    4  C   1.25424   0.68714   0.88806   0.93453
    5  O   1.87410   1.37963   1.41342   1.32567
    6  C   1.07341   0.98050   1.11385   1.05626
    7  C   1.05273   1.19810   1.18868   1.00498
    8  C   1.08858   0.86412   1.04191   1.02061
    9  O   1.85061   1.45365   1.41445   1.77286
   10  H   0.83546
   11  H   0.81387
   12  H   0.83683
   13  H   0.82213
   14  H   0.81882
   15  H   0.82897
   16  H   0.74603
   17  H   0.78201
   18  H   0.85435
   19  H   0.79309
   20  H   0.83738
   21  H   0.86982
   22  H   0.85685
   23  H   0.67400


                    (SZ)    =    0.500000
                    (S**2)  =    0.766670


          ATOMIC ORBITAL SPIN POPULATIONS

    Atom   Total    s     px     py     pz   
         Atomic
    1  C  0.0315  0.004  0.009  0.018  0.001
    2  C  0.0038 -0.001 -0.001  0.008 -0.002
    3  C  0.3378  0.002  0.027  0.297  0.012
    4  C  0.0668 -0.010 -0.023  0.102 -0.002
    5  O  0.4347  0.012  0.059  0.330  0.034
    6  C  0.0129 -0.002 -0.008  0.024 -0.001
    7  C  0.0069  0.000  0.000  0.003  0.003
    8  C  0.0042  0.000  0.002  0.000  0.001
    9  O  0.0003  0.000 -0.001  0.000  0.001
   10  H -0.0007 -0.001
   11  H  0.0022  0.002
   12  H -0.0009 -0.001
   13  H  0.0057  0.006
   14  H  0.0001  0.000
   15  H -0.0023 -0.002
   16  H  0.0569  0.057
   17  H  0.0379  0.038
   18  H  0.0018  0.002
   19  H -0.0000 -0.000
   20  H -0.0002 -0.000
   21  H -0.0002 -0.000
   22  H  0.0010  0.001
   23  H -0.0000 -0.000

 **********************
 *                    *
 * JOB ENDED NORMALLY *
 *                    *
 **********************



 TOTAL JOB TIME:             1.46 SECONDS

 == MOPAC DONE ==
