 *******************************************************************************
 **                                                                           **
 **                              MOPAC v23.2                                  **
 **                                                                           **
 *******************************************************************************
 **          Digital Object Identifier (DOI): 10.5281/zenodo.6511958          **
 **    Visit the DOI location for information on how to cite this program.    **
 *******************************************************************************

                              PM7 CALCULATION RESULTS

 *******************************************************************************
 *  CALCULATION DONE: (MAX THREADS = 40)             Fri Sep 19 21:32:57 2025  *
 *  PM7        - The PM7 Hamiltonian to be used
 *
 *
 *
 *                 CHARGE ON SYSTEM = +1
 *
 *
 *
 *  1SCF       - DO 1 SCF AND THEN STOP 
 *  T=         - A TIME OF 172800.0 SECONDS REQUESTED
 *  DUMP=N     - RESTART FILE WRITTEN EVERY 7200.0 SECONDS REQUESTED
 *  RELSCF     - DEFAULT SCF CRITERION MULTIPLIED BY 0.0001
 *              (DEFAULT SCF CRITERION = 0.00010)
 *  GRADIENTS  - ALL GRADIENTS TO BE PRINTED
 *  DISP       - PRINT DISPERSION AND HYDROGEN BOND ENERGIES
 *******************************************************************************
PM7 1SCF GRADIENTS DISP RELSCF=0.0001 CHARGE=1
 Title: ASE calculation

   ATOM   CHEMICAL          X               Y               Z
  NUMBER   SYMBOL      (ANGSTROMS)     (ANGSTROMS)     (ANGSTROMS)

     1       O          2.19945722  *  -1.75035403  *  -1.44204816  *
     2       C          1.66315599  *  -1.58425296  *  -0.13632374  *
     3       C          1.03746372  *  -0.18547439  *  -0.06784405  *
     4       C          0.13885272  *   0.04352968  *   1.15911098  *
     5       C         -1.05400175  *   0.92671458  *   0.67226376  *
     6       C         -1.11684037  *   0.76323478  *  -0.87256730  *
     7       C          0.11795023  *   0.05531478  *  -1.22160751  *
     8       O          0.35532162  *  -0.34682872  *  -2.40469239  *
     9       C         -2.28754999  *   0.52323010  *   1.35159267  *
    10       H          3.16270337  *  -1.53777589  *  -1.49189315  *
    11       H          0.91352382  *  -2.40222049  *  -0.06085887  *
    12       H          2.44145529  *  -1.74145388  *   0.63463464  *
    13       H          1.85883852  *   0.58831629  *  -0.07947031  *
    14       H          0.67932631  *   0.53532267  *   1.98904510  *
    15       H         -0.23122266  *  -0.91218085  *   1.58000285  *
    16       H         -0.83358419  *   2.00253184  *   0.91467266  *
    17       H         -1.24098126  *   1.74335117  *  -1.39494766  *
    18       H         -2.03426372  *   0.20991136  *  -1.20203700  *
    19       H          1.24263213  *  -0.98128869  *  -2.44490896  *
    20       H         -3.11472673  *   0.08416012  *   0.84044666  *
    21       H         -2.40068208  *   0.67827114  *   2.40499717  *



          CARTESIAN COORDINATES 

    NO.       ATOM           X           Y           Z

     1         O          2.1995     -1.7504     -1.4420
     2         C          1.6632     -1.5843     -0.1363
     3         C          1.0375     -0.1855     -0.0678
     4         C          0.1389      0.0435      1.1591
     5         C         -1.0540      0.9267      0.6723
     6         C         -1.1168      0.7632     -0.8726
     7         C          0.1180      0.0553     -1.2216
     8         O          0.3553     -0.3468     -2.4047
     9         C         -2.2875      0.5232      1.3516
    10         H          3.1627     -1.5378     -1.4919
    11         H          0.9135     -2.4022     -0.0609
    12         H          2.4415     -1.7415      0.6346
    13         H          1.8588      0.5883     -0.0795
    14         H          0.6793      0.5353      1.9890
    15         H         -0.2312     -0.9122      1.5800
    16         H         -0.8336      2.0025      0.9147
    17         H         -1.2410      1.7434     -1.3949
    18         H         -2.0343      0.2099     -1.2020
    19         H          1.2426     -0.9813     -2.4449
    20         H         -3.1147      0.0842      0.8404
    21         H         -2.4007      0.6783      2.4050

 General Reference for PM7:
 "Optimization of Parameters for Semiempirical Methods VI: More Modifications to the 
 NDDO Approximations and Re-optimization of Parameters", J. J. P. Stewart, J. Mol. Mod., 1:32, 19 (2013)
 https://link.springer.com/article/10.1007/s00894-012-1667-x

           Empirical Formula: C7 H12 O2  =    21 atoms



      MOLECULAR POINT GROUP   :   C1  


          UHF CALCULATION, NO. OF ALPHA ELECTRONS =   26
                           NO. OF BETA  ELECTRONS =   25
  SCF CRITERION =    0.1000E-07

 -------------------------------------------------------------------------------
 PM7 1SCF GRADIENTS DISP RELSCF=0.0001 CHARGE=1
 Title: ASE calculation



     1SCF WAS SPECIFIED, SO BFGS WAS NOT USED                 
     SCF FIELD WAS ACHIEVED                                   


                              PM7 CALCULATION
                                                       MOPAC v23.2 Linux
                                                       Fri Sep 19 21:32:58 2025




          FINAL HEAT OF FORMATION =         95.76670 KCAL/MOL =     400.68788 KJ/MOL

          TOTAL ENERGY            =     -36997.14532 KCAL/MOL = ELECTRONIC ENERGY + CORE-CORE REPULSION
          ENERGY OF ATOMS         =      37097.27293 KCAL/MOL
                              SUM =        100.12762 KCAL/MOL
          DISPERSION ENERGY       =         -2.04264 KCAL/MOL
          H-BOND ENERGY           =         -2.31828 KCAL/MOL
                              SUM =         95.76670 KCAL/MOL = FINAL HEAT OF FORMATION

          No. OF HYDROGEN BONDS   =          1       (H-bond Energy < -1.0 Kcal/mol)


          TOTAL ENERGY            =      -1604.34807 EV
          ELECTRONIC ENERGY       =      -7983.31205 EV 
          CORE-CORE REPULSION     =       6378.96399 EV
          COSMO AREA              =        166.46 SQUARE ANGSTROMS
          COSMO VOLUME            =        165.08 CUBIC ANGSTROMS

          GRADIENT NORM           =          1.01695          =       0.22192 PER ATOM
          IONIZATION POTENTIAL    =         13.136046 EV
          ALPHA SOMO LUMO (EV)    =        -13.136 -5.655
          BETA  SOMO LUMO (EV)    =        -15.921 -5.655
          NO. OF ALPHA ELECTRONS  =         26
          NO. OF BETA  ELECTRONS  =         25
          MOLECULAR WEIGHT        =        128.1706         POINT GROUP:  C1  

          MOLECULAR DIMENSIONS (Angstroms)

            Atom       Atom       Distance
            H    21    H    10     7.14478
            H    17    H    12     4.66375
            H    14    H    11     2.82409


          SCF CALCULATIONS        =          1

          WALL-CLOCK TIME         =      1.438 SECONDS
          COMPUTATION TIME        =      1.106 SECONDS

          LARGEST ATOMIC GRADIENTS

          Atom     Label                     Cartesian Gradients           Cartesian Coordinates       |Gradient|
                                           X          Y          Z        X          Y          Z

            21       H                   0.055      0.314     -0.240   -2.40068    0.67827    2.40500      0.399
             1       O                  -0.264      0.161      0.083    2.19946   -1.75035   -1.44205      0.320
            20       H                  -0.025     -0.297     -0.079   -3.11473    0.08416    0.84045      0.308
            13       H                   0.132     -0.195      0.149    1.85884    0.58832   -0.07947      0.279
            16       H                   0.153     -0.226      0.051   -0.83358    2.00253    0.91467      0.278
             9       C                  -0.005     -0.219      0.161   -2.28755    0.52323    1.35159      0.271
            15       H                   0.083      0.137     -0.171   -0.23122   -0.91218    1.58000      0.235
            17       H                  -0.182     -0.053     -0.125   -1.24098    1.74335   -1.39495      0.227
             2       C                  -0.100      0.161      0.101    1.66316   -1.58425   -0.13632      0.215
             5       C                  -0.027      0.138      0.152   -1.05400    0.92671    0.67226      0.207



       FINAL  POINT  AND  DERIVATIVES

   PARAMETER     ATOM    TYPE            VALUE        GRADIENT
      1          1  O    CARTESIAN X     2.199457     -0.263818  KCAL/ANGSTROM
      2          1  O    CARTESIAN Y    -1.750354      0.161026  KCAL/ANGSTROM
      3          1  O    CARTESIAN Z    -1.442048      0.083306  KCAL/ANGSTROM
      4          2  C    CARTESIAN X     1.663156     -0.100394  KCAL/ANGSTROM
      5          2  C    CARTESIAN Y    -1.584253      0.161186  KCAL/ANGSTROM
      6          2  C    CARTESIAN Z    -0.136324      0.100959  KCAL/ANGSTROM
      7          3  C    CARTESIAN X     1.037464     -0.055185  KCAL/ANGSTROM
      8          3  C    CARTESIAN Y    -0.185474      0.123320  KCAL/ANGSTROM
      9          3  C    CARTESIAN Z    -0.067844      0.004699  KCAL/ANGSTROM
     10          4  C    CARTESIAN X     0.138853      0.109068  KCAL/ANGSTROM
     11          4  C    CARTESIAN Y     0.043530      0.065262  KCAL/ANGSTROM
     12          4  C    CARTESIAN Z     1.159111     -0.029605  KCAL/ANGSTROM
     13          5  C    CARTESIAN X    -1.054002     -0.026645  KCAL/ANGSTROM
     14          5  C    CARTESIAN Y     0.926715      0.137596  KCAL/ANGSTROM
     15          5  C    CARTESIAN Z     0.672264      0.151978  KCAL/ANGSTROM
     16          6  C    CARTESIAN X    -1.116840     -0.000184  KCAL/ANGSTROM
     17          6  C    CARTESIAN Y     0.763235     -0.083670  KCAL/ANGSTROM
     18          6  C    CARTESIAN Z    -0.872567      0.142527  KCAL/ANGSTROM
     19          7  C    CARTESIAN X     0.117950     -0.087281  KCAL/ANGSTROM
     20          7  C    CARTESIAN Y     0.055315     -0.001971  KCAL/ANGSTROM
     21          7  C    CARTESIAN Z    -1.221608     -0.003529  KCAL/ANGSTROM
     22          8  O    CARTESIAN X     0.355322      0.002007  KCAL/ANGSTROM
     23          8  O    CARTESIAN Y    -0.346829     -0.179447  KCAL/ANGSTROM
     24          8  O    CARTESIAN Z    -2.404692     -0.066132  KCAL/ANGSTROM
     25          9  C    CARTESIAN X    -2.287550     -0.005116  KCAL/ANGSTROM
     26          9  C    CARTESIAN Y     0.523230     -0.218522  KCAL/ANGSTROM
     27          9  C    CARTESIAN Z     1.351593      0.160748  KCAL/ANGSTROM
     28         10  H    CARTESIAN X     3.162703      0.052925  KCAL/ANGSTROM
     29         10  H    CARTESIAN Y    -1.537776      0.000870  KCAL/ANGSTROM
     30         10  H    CARTESIAN Z    -1.491893      0.015055  KCAL/ANGSTROM
     31         11  H    CARTESIAN X     0.913524     -0.064164  KCAL/ANGSTROM
     32         11  H    CARTESIAN Y    -2.402220      0.161554  KCAL/ANGSTROM
     33         11  H    CARTESIAN Z    -0.060859     -0.042902  KCAL/ANGSTROM
     34         12  H    CARTESIAN X     2.441455     -0.002230  KCAL/ANGSTROM
     35         12  H    CARTESIAN Y    -1.741454     -0.175965  KCAL/ANGSTROM
     36         12  H    CARTESIAN Z     0.634635      0.073675  KCAL/ANGSTROM
     37         13  H    CARTESIAN X     1.858839      0.132190  KCAL/ANGSTROM
     38         13  H    CARTESIAN Y     0.588316     -0.194662  KCAL/ANGSTROM
     39         13  H    CARTESIAN Z    -0.079470      0.148988  KCAL/ANGSTROM
     40         14  H    CARTESIAN X     0.679326      0.124706  KCAL/ANGSTROM
     41         14  H    CARTESIAN Y     0.535323     -0.089652  KCAL/ANGSTROM
     42         14  H    CARTESIAN Z     1.989045     -0.049897  KCAL/ANGSTROM
     43         15  H    CARTESIAN X    -0.231223      0.082616  KCAL/ANGSTROM
     44         15  H    CARTESIAN Y    -0.912181      0.137257  KCAL/ANGSTROM
     45         15  H    CARTESIAN Z     1.580003     -0.171403  KCAL/ANGSTROM
     46         16  H    CARTESIAN X    -0.833584      0.152871  KCAL/ANGSTROM
     47         16  H    CARTESIAN Y     2.002532     -0.226266  KCAL/ANGSTROM
     48         16  H    CARTESIAN Z     0.914673      0.050733  KCAL/ANGSTROM
     49         17  H    CARTESIAN X    -1.240981     -0.181935  KCAL/ANGSTROM
     50         17  H    CARTESIAN Y     1.743351     -0.052610  KCAL/ANGSTROM
     51         17  H    CARTESIAN Z    -1.394948     -0.124843  KCAL/ANGSTROM
     52         18  H    CARTESIAN X    -2.034264      0.018893  KCAL/ANGSTROM
     53         18  H    CARTESIAN Y     0.209911      0.144716  KCAL/ANGSTROM
     54         18  H    CARTESIAN Z    -1.202037     -0.071652  KCAL/ANGSTROM
     55         19  H    CARTESIAN X     1.242632      0.082169  KCAL/ANGSTROM
     56         19  H    CARTESIAN Y    -0.981289      0.113060  KCAL/ANGSTROM
     57         19  H    CARTESIAN Z    -2.444909     -0.054014  KCAL/ANGSTROM
     58         20  H    CARTESIAN X    -3.114727     -0.025323  KCAL/ANGSTROM
     59         20  H    CARTESIAN Y     0.084160     -0.297179  KCAL/ANGSTROM
     60         20  H    CARTESIAN Z     0.840447     -0.078521  KCAL/ANGSTROM
     61         21  H    CARTESIAN X    -2.400682      0.055023  KCAL/ANGSTROM
     62         21  H    CARTESIAN Y     0.678271      0.314272  KCAL/ANGSTROM
     63         21  H    CARTESIAN Z     2.404997     -0.240210  KCAL/ANGSTROM




   ATOM   CHEMICAL          X               Y               Z
  NUMBER   SYMBOL      (ANGSTROMS)     (ANGSTROMS)     (ANGSTROMS)

     1       O          2.19945722  *  -1.75035403  *  -1.44204816  *
     2       C          1.66315599  *  -1.58425296  *  -0.13632374  *
     3       C          1.03746372  *  -0.18547439  *  -0.06784405  *
     4       C          0.13885272  *   0.04352968  *   1.15911098  *
     5       C         -1.05400175  *   0.92671458  *   0.67226376  *
     6       C         -1.11684037  *   0.76323478  *  -0.87256730  *
     7       C          0.11795023  *   0.05531478  *  -1.22160751  *
     8       O          0.35532162  *  -0.34682872  *  -2.40469239  *
     9       C         -2.28754999  *   0.52323010  *   1.35159267  *
    10       H          3.16270337  *  -1.53777589  *  -1.49189315  *
    11       H          0.91352382  *  -2.40222049  *  -0.06085887  *
    12       H          2.44145529  *  -1.74145388  *   0.63463464  *
    13       H          1.85883852  *   0.58831629  *  -0.07947031  *
    14       H          0.67932631  *   0.53532267  *   1.98904510  *
    15       H         -0.23122266  *  -0.91218085  *   1.58000285  *
    16       H         -0.83358419  *   2.00253184  *   0.91467266  *
    17       H         -1.24098126  *   1.74335117  *  -1.39494766  *
    18       H         -2.03426372  *   0.20991136  *  -1.20203700  *
    19       H          1.24263213  *  -0.98128869  *  -2.44490896  *
    20       H         -3.11472673  *   0.08416012  *   0.84044666  *
    21       H         -2.40068208  *   0.67827114  *   2.40499717  *

                             CARTESIAN COORDINATES

   1    O        2.199457218    -1.750354029    -1.442048161
   2    C        1.663155988    -1.584252963    -0.136323738
   3    C        1.037463721    -0.185474387    -0.067844047
   4    C        0.138852716     0.043529684     1.159110980
   5    C       -1.054001748     0.926714580     0.672263759
   6    C       -1.116840368     0.763234778    -0.872567304
   7    C        0.117950234     0.055314783    -1.221607505
   8    O        0.355321621    -0.346828724    -2.404692388
   9    C       -2.287549989     0.523230095     1.351592671
  10    H        3.162703366    -1.537775893    -1.491893152
  11    H        0.913523822    -2.402220487    -0.060858873
  12    H        2.441455289    -1.741453883     0.634634641
  13    H        1.858838518     0.588316291    -0.079470306
  14    H        0.679326311     0.535322674     1.989045101
  15    H       -0.231222661    -0.912180851     1.580002850
  16    H       -0.833584194     2.002531836     0.914672663
  17    H       -1.240981256     1.743351173    -1.394947664
  18    H       -2.034263717     0.209911356    -1.202037003
  19    H        1.242632134    -0.981288689    -2.444908955
  20    H       -3.114726729     0.084160122     0.840446664
  21    H       -2.400682080     0.678271142     2.404997172


           Empirical Formula: C7 H12 O2  =    21 atoms



      MOLECULAR POINT GROUP   :   C1  


          ALPHA EIGENVALUES  
 -37.79301 -35.58676 -34.52331 -31.47121 -30.11177 -27.92834 -26.25629 -25.34993
 -23.96432 -23.42645 -22.08224 -21.51788 -20.84594 -20.17871 -19.87938 -19.59365
 -18.92990 -18.58138 -17.81292 -17.74587 -17.40805 -16.77378 -16.70989 -16.16910
 -16.01993 -13.13605  -5.65482  -3.56569  -2.85067  -2.10116  -2.06408  -1.37767
  -1.07471  -0.94561  -0.44175  -0.12506   0.12968   0.21900   0.52775   0.64617
   0.98926   1.12873   1.17708   1.30199   1.60870   1.95977   2.56381   2.83639


           BETA EIGENVALUES 
 -37.79181 -35.56452 -34.51709 -31.43536 -30.02473 -27.87210 -26.10968 -25.32059
 -23.89217 -23.35846 -22.07539 -21.48342 -20.82880 -20.14158 -19.81382 -19.57399
 -18.89183 -18.51358 -17.73749 -17.71682 -17.21837 -16.73849 -16.60516 -16.13444
 -15.92073  -5.65481  -3.57363  -3.23624  -2.81649  -2.09041  -2.04489  -1.37569
  -1.06121  -0.91214  -0.34358  -0.11481   0.20460   0.22617   0.52844   0.82233
   0.98931   1.12945   1.21945   1.31583   1.68094   1.97114   2.73846   3.09565


              NET ATOMIC CHARGES AND DIPOLE CONTRIBUTIONS

  ATOM NO.   TYPE          CHARGE      No. of ELECS.   s-Pop       p-Pop       
    1          O          -0.585475        6.5855     1.83237     4.75310
    2          C           0.016863        3.9831     1.09682     2.88631
    3          C          -0.294728        4.2947     1.08627     3.20846
    4          C          -0.276552        4.2766     1.07194     3.20461
    5          C          -0.079152        4.0792     1.06169     3.01746
    6          C          -0.390427        4.3904     1.07573     3.31469
    7          C           0.538628        3.4614     1.17678     2.28460
    8          O          -0.318045        6.3180     1.84425     4.47379
    9          C          -0.303468        4.3035     1.12736     3.17611
   10          H           0.375586        0.6244     0.62441
   11          H           0.176458        0.8235     0.82354
   12          H           0.168902        0.8311     0.83110
   13          H           0.215340        0.7847     0.78466
   14          H           0.181020        0.8190     0.81898
   15          H           0.177441        0.8226     0.82256
   16          H           0.178735        0.8213     0.82126
   17          H           0.229504        0.7705     0.77050
   18          H           0.233321        0.7667     0.76668
   19          H           0.431784        0.5682     0.56822
   20          H           0.157965        0.8420     0.84204
   21          H           0.166298        0.8337     0.83370
 DIPOLE           X         Y         Z       TOTAL
 POINT-CHG.     1.725     0.724     0.523     1.943
 HYBRID         0.779    -0.128    -1.073     1.332
 SUM            2.504     0.596    -0.550     2.632


          ATOMIC ORBITAL ELECTRON POPULATIONS

     Atom    s        px        py        pz   
    1  O   1.83237   1.44404   1.90074   1.40832
    2  C   1.09682   1.07555   0.98251   0.82825
    3  C   1.08627   1.08421   1.10443   1.01983
    4  C   1.07194   1.01835   1.15785   1.02842
    5  C   1.06169   1.00537   1.10505   0.90704
    6  C   1.07573   1.04868   1.17311   1.09289
    7  C   1.17678   0.87192   0.61609   0.79658
    8  O   1.84425   1.58257   1.54908   1.34214
    9  C   1.12736   1.01820   1.03219   1.12572
   10  H   0.62441
   11  H   0.82354
   12  H   0.83110
   13  H   0.78466
   14  H   0.81898
   15  H   0.82256
   16  H   0.82126
   17  H   0.77050
   18  H   0.76668
   19  H   0.56822
   20  H   0.84204
   21  H   0.83370


                    (SZ)    =    0.500000
                    (S**2)  =    0.753531


          ATOMIC ORBITAL SPIN POPULATIONS

    Atom   Total    s     px     py     pz   
         Atomic
    1  O  0.0002  0.000  0.000  0.000  0.000
    2  C  0.0005  0.000  0.000  0.000 -0.000
    3  C -0.0003 -0.000 -0.000 -0.000  0.000
    4  C  0.0480  0.011  0.025  0.008  0.004
    5  C -0.0573 -0.007 -0.029 -0.014 -0.007
    6  C  0.0031  0.000  0.000  0.000  0.002
    7  C  0.0001 -0.000 -0.000 -0.000  0.000
    8  O -0.0000  0.000 -0.000 -0.000 -0.000
    9  C  1.0443  0.026  0.168  0.794  0.057
   10  H -0.0000 -0.000
   11  H -0.0000 -0.000
   12  H -0.0000 -0.000
   13  H  0.0001  0.000
   14  H -0.0012 -0.001
   15  H -0.0019 -0.002
   16  H  0.0235  0.023
   17  H -0.0004 -0.000
   18  H -0.0003 -0.000
   19  H -0.0000 -0.000
   20  H -0.0290 -0.029
   21  H -0.0292 -0.029

 **********************
 *                    *
 * JOB ENDED NORMALLY *
 *                    *
 **********************



 TOTAL JOB TIME:             1.89 SECONDS

 == MOPAC DONE ==
