 *******************************************************************************
 **                                                                           **
 **                              MOPAC v23.2                                  **
 **                                                                           **
 *******************************************************************************
 **          Digital Object Identifier (DOI): 10.5281/zenodo.6511958          **
 **    Visit the DOI location for information on how to cite this program.    **
 *******************************************************************************

                              PM7 CALCULATION RESULTS

 *******************************************************************************
 *  CALCULATION DONE: (MAX THREADS = 40)             Fri Sep 19 21:34:06 2025  *
 *  PM7        - The PM7 Hamiltonian to be used
 *
 *
 *
 *                 CHARGE ON SYSTEM = +1
 *
 *
 *
 *  EPS=37.5   - USE ANDREAS KLAMT'S COSMO IMPLICIT SOLVATION MODEL
 *  1SCF       - DO 1 SCF AND THEN STOP 
 *  T=         - A TIME OF 172800.0 SECONDS REQUESTED
 *  DUMP=N     - RESTART FILE WRITTEN EVERY 7200.0 SECONDS REQUESTED
 *  RELSCF     - DEFAULT SCF CRITERION MULTIPLIED BY 0.0001
 *              (DEFAULT SCF CRITERION = 0.00010)
 *  GRADIENTS  - ALL GRADIENTS TO BE PRINTED
 *  DISP       - PRINT DISPERSION AND HYDROGEN BOND ENERGIES
 *******************************************************************************
PM7 1SCF GRADIENTS EPS=37.5 DISP RELSCF=0.0001 CHARGE=1
 Title: ASE calculation

   ATOM   CHEMICAL          X               Y               Z
  NUMBER   SYMBOL      (ANGSTROMS)     (ANGSTROMS)     (ANGSTROMS)

     1       C         -3.29399046  *   0.04271525  *  -0.10618761  *
     2       N         -2.18477515  *   0.64639536  *   0.46204393  *
     3       C         -1.19940144  *   0.59092441  *   1.30421145  *
     4       O          0.06912763  *   0.52376289  *   1.00979087  *
     5       C          0.49046248  *   0.17022335  *  -0.33986792  *
     6       C          1.99330752  *   0.27860458  *  -0.31040809  *
     7       C          2.67720064  *  -0.07602948  *  -1.58271123  *
     8       N          2.55841180  *   0.67259194  *   0.78571175  *
     9       O          3.92301100  *   0.74866440  *   0.68802276  *
    10       H         -3.59128431  *   0.57380787  *  -1.05355399  *
    11       H         -3.17537680  *  -1.04742619  *  -0.31435670  *
    12       H         -4.19605833  *   0.14556806  *   0.57194361  *
    13       H         -1.33147884  *   0.84506420  *   2.39320432  *
    14       H          0.05060524  *   0.89214491  *  -1.05756596  *
    15       H          0.15956604  *  -0.86443760  *  -0.55446908  *
    16       H          2.00803225  *  -0.38602898  *  -2.39320432  *
    17       H          3.27548578  *   0.77822542  *  -1.95951998  *
    18       H          3.40455423  *  -0.89822191  *  -1.42712390  *
    19       H          4.19605833  *   1.04742619  *   1.61900320  *



          CARTESIAN COORDINATES 

    NO.       ATOM           X           Y           Z

     1         C         -3.2940      0.0427     -0.1062
     2         N         -2.1848      0.6464      0.4620
     3         C         -1.1994      0.5909      1.3042
     4         O          0.0691      0.5238      1.0098
     5         C          0.4905      0.1702     -0.3399
     6         C          1.9933      0.2786     -0.3104
     7         C          2.6772     -0.0760     -1.5827
     8         N          2.5584      0.6726      0.7857
     9         O          3.9230      0.7487      0.6880
    10         H         -3.5913      0.5738     -1.0536
    11         H         -3.1754     -1.0474     -0.3144
    12         H         -4.1961      0.1456      0.5719
    13         H         -1.3315      0.8451      2.3932
    14         H          0.0506      0.8921     -1.0576
    15         H          0.1596     -0.8644     -0.5545
    16         H          2.0080     -0.3860     -2.3932
    17         H          3.2755      0.7782     -1.9595
    18         H          3.4046     -0.8982     -1.4271
    19         H          4.1961      1.0474      1.6190

 General Reference for PM7:
 "Optimization of Parameters for Semiempirical Methods VI: More Modifications to the 
 NDDO Approximations and Re-optimization of Parameters", J. J. P. Stewart, J. Mol. Mod., 1:32, 19 (2013)
 https://link.springer.com/article/10.1007/s00894-012-1667-x

           Empirical Formula: C5 H10 N2 O2  =    19 atoms



      MOLECULAR POINT GROUP   :   C1  


          UHF CALCULATION, NO. OF ALPHA ELECTRONS =   26
                           NO. OF BETA  ELECTRONS =   25
  SCF CRITERION =    0.1000E-07

 -------------------------------------------------------------------------------
 PM7 1SCF GRADIENTS EPS=37.5 DISP RELSCF=0.0001 CHARGE=1
 Title: ASE calculation



     1SCF WAS SPECIFIED, SO BFGS WAS NOT USED                 
     SCF FIELD WAS ACHIEVED                                   


                              PM7 CALCULATION
                                                       MOPAC v23.2 Linux
                                                       Fri Sep 19 21:34:08 2025




          FINAL HEAT OF FORMATION =        106.04963 KCAL/MOL =     443.71166 KJ/MOL

          TOTAL ENERGY            =     -39302.29388 KCAL/MOL = ELECTRONIC ENERGY + CORE-CORE REPULSION + SOLVATION ENERGY
          ENERGY OF ATOMS         =      39410.22309 KCAL/MOL
                              SUM =        107.92921 KCAL/MOL
          DISPERSION ENERGY       =         -1.87958 KCAL/MOL
                              SUM =        106.04963 KCAL/MOL = FINAL HEAT OF FORMATION

          VAN DER WAALS AREA      =        177.19 SQUARE ANGSTROMS


          TOTAL ENERGY            =      -1704.30877 EV
          ELECTRONIC ENERGY       =      -2180.51285 EV 
          CORE-CORE REPULSION     =        476.20408 EV

          DIELECTRIC ENERGY       =         -2.68193 EV
          COSMO AREA              =        177.19 SQUARE ANGSTROMS
          COSMO VOLUME            =        165.87 CUBIC ANGSTROMS

          GRADIENT NORM           =         28.62394          =       6.56678 PER ATOM
          IONIZATION POTENTIAL    =         10.454546 EV
          ALPHA SOMO LUMO (EV)    =        -10.456 -1.118
          BETA  SOMO LUMO (EV)    =        -10.455 -2.406
          NO. OF ALPHA ELECTRONS  =         26
          NO. OF BETA  ELECTRONS  =         25
          MOLECULAR WEIGHT        =        130.1462         POINT GROUP:  C1  

          MOLECULAR DIMENSIONS (Angstroms)

            Atom       Atom       Distance
            H    19    H    12     8.50513
            H    16    H    13     5.38008
            H    11    H    14     1.85410


          SCF CALCULATIONS        =          2

          WALL-CLOCK TIME         =      1.648 SECONDS
          COMPUTATION TIME        =      1.879 SECONDS

          LARGEST ATOMIC GRADIENTS

          Atom     Label                     Cartesian Gradients           Cartesian Coordinates       |Gradient|
                                           X          Y          Z        X          Y          Z

             3       C                  16.318     -1.343      3.134   -1.19940    0.59092    1.30421     16.670
             9       O                 -11.321     -0.180      0.464    3.92301    0.74866    0.68802     11.332
             4       O                  -8.010      0.950      6.742    0.06913    0.52376    1.00979     10.512
             8       N                   9.504      0.348     -0.989    2.55841    0.67259    0.78571      9.561
             5       C                  -2.337     -2.425     -6.731    0.49046    0.17022   -0.33987      7.527
             7       C                  -5.307     -1.316     -2.588    2.67720   -0.07603   -1.58271      6.050
             2       N                  -4.331      3.692     -1.933   -2.18478    0.64640    0.46204      6.010
             1       C                  -3.314     -4.274      1.166   -3.29399    0.04272   -0.10619      5.533
             6       C                   3.591      0.980      3.209    1.99331    0.27860   -0.31041      4.915
            10       H                  -0.480      1.289     -1.481   -3.59128    0.57381   -1.05355      2.021



       FINAL  POINT  AND  DERIVATIVES

   PARAMETER     ATOM    TYPE            VALUE        GRADIENT
      1          1  C    CARTESIAN X    -3.293990     -3.313942  KCAL/ANGSTROM
      2          1  C    CARTESIAN Y     0.042715     -4.274308  KCAL/ANGSTROM
      3          1  C    CARTESIAN Z    -0.106188      1.166486  KCAL/ANGSTROM
      4          2  N    CARTESIAN X    -2.184775     -4.330551  KCAL/ANGSTROM
      5          2  N    CARTESIAN Y     0.646395      3.692107  KCAL/ANGSTROM
      6          2  N    CARTESIAN Z     0.462044     -1.932703  KCAL/ANGSTROM
      7          3  C    CARTESIAN X    -1.199401     16.317681  KCAL/ANGSTROM
      8          3  C    CARTESIAN Y     0.590924     -1.342871  KCAL/ANGSTROM
      9          3  C    CARTESIAN Z     1.304211      3.134283  KCAL/ANGSTROM
     10          4  O    CARTESIAN X     0.069128     -8.009709  KCAL/ANGSTROM
     11          4  O    CARTESIAN Y     0.523763      0.949896  KCAL/ANGSTROM
     12          4  O    CARTESIAN Z     1.009791      6.741915  KCAL/ANGSTROM
     13          5  C    CARTESIAN X     0.490462     -2.336599  KCAL/ANGSTROM
     14          5  C    CARTESIAN Y     0.170223     -2.425467  KCAL/ANGSTROM
     15          5  C    CARTESIAN Z    -0.339868     -6.731286  KCAL/ANGSTROM
     16          6  C    CARTESIAN X     1.993308      3.591077  KCAL/ANGSTROM
     17          6  C    CARTESIAN Y     0.278605      0.980121  KCAL/ANGSTROM
     18          6  C    CARTESIAN Z    -0.310408      3.208767  KCAL/ANGSTROM
     19          7  C    CARTESIAN X     2.677201     -5.307399  KCAL/ANGSTROM
     20          7  C    CARTESIAN Y    -0.076029     -1.315671  KCAL/ANGSTROM
     21          7  C    CARTESIAN Z    -1.582711     -2.588260  KCAL/ANGSTROM
     22          8  N    CARTESIAN X     2.558412      9.503535  KCAL/ANGSTROM
     23          8  N    CARTESIAN Y     0.672592      0.347854  KCAL/ANGSTROM
     24          8  N    CARTESIAN Z     0.785712     -0.989051  KCAL/ANGSTROM
     25          9  O    CARTESIAN X     3.923011    -11.320594  KCAL/ANGSTROM
     26          9  O    CARTESIAN Y     0.748664     -0.180165  KCAL/ANGSTROM
     27          9  O    CARTESIAN Z     0.688023      0.464352  KCAL/ANGSTROM
     28         10  H    CARTESIAN X    -3.591284     -0.479890  KCAL/ANGSTROM
     29         10  H    CARTESIAN Y     0.573808      1.289122  KCAL/ANGSTROM
     30         10  H    CARTESIAN Z    -1.053554     -1.481019  KCAL/ANGSTROM
     31         11  H    CARTESIAN X    -3.175377     -0.077963  KCAL/ANGSTROM
     32         11  H    CARTESIAN Y    -1.047426     -0.163643  KCAL/ANGSTROM
     33         11  H    CARTESIAN Z    -0.314357     -1.092878  KCAL/ANGSTROM
     34         12  H    CARTESIAN X    -4.196058     -0.663083  KCAL/ANGSTROM
     35         12  H    CARTESIAN Y     0.145568      0.418287  KCAL/ANGSTROM
     36         12  H    CARTESIAN Z     0.571944     -0.162174  KCAL/ANGSTROM
     37         13  H    CARTESIAN X    -1.331479      0.096491  KCAL/ANGSTROM
     38         13  H    CARTESIAN Y     0.845064      0.584693  KCAL/ANGSTROM
     39         13  H    CARTESIAN Z     2.393204     -1.904751  KCAL/ANGSTROM
     40         14  H    CARTESIAN X     0.050605      1.389451  KCAL/ANGSTROM
     41         14  H    CARTESIAN Y     0.892145      0.236526  KCAL/ANGSTROM
     42         14  H    CARTESIAN Z    -1.057566      0.697132  KCAL/ANGSTROM
     43         15  H    CARTESIAN X     0.159566      1.522837  KCAL/ANGSTROM
     44         15  H    CARTESIAN Y    -0.864438      0.938276  KCAL/ANGSTROM
     45         15  H    CARTESIAN Z    -0.554469      0.695893  KCAL/ANGSTROM
     46         16  H    CARTESIAN X     2.008032      1.840708  KCAL/ANGSTROM
     47         16  H    CARTESIAN Y    -0.386029      0.212590  KCAL/ANGSTROM
     48         16  H    CARTESIAN Z    -2.393204      0.193584  KCAL/ANGSTROM
     49         17  H    CARTESIAN X     3.275486      1.343257  KCAL/ANGSTROM
     50         17  H    CARTESIAN Y     0.778225      0.673530  KCAL/ANGSTROM
     51         17  H    CARTESIAN Z    -1.959520      0.538690  KCAL/ANGSTROM
     52         18  H    CARTESIAN X     3.404554      1.540778  KCAL/ANGSTROM
     53         18  H    CARTESIAN Y    -0.898222     -0.089566  KCAL/ANGSTROM
     54         18  H    CARTESIAN Z    -1.427124      0.514506  KCAL/ANGSTROM
     55         19  H    CARTESIAN X     4.196058     -1.306086  KCAL/ANGSTROM
     56         19  H    CARTESIAN Y     1.047426     -0.531314  KCAL/ANGSTROM
     57         19  H    CARTESIAN Z     1.619003     -0.473489  KCAL/ANGSTROM




   ATOM   CHEMICAL          X               Y               Z
  NUMBER   SYMBOL      (ANGSTROMS)     (ANGSTROMS)     (ANGSTROMS)

     1       C         -3.29399046  *   0.04271525  *  -0.10618761  *
     2       N         -2.18477515  *   0.64639536  *   0.46204393  *
     3       C         -1.19940144  *   0.59092441  *   1.30421145  *
     4       O          0.06912763  *   0.52376289  *   1.00979087  *
     5       C          0.49046248  *   0.17022335  *  -0.33986792  *
     6       C          1.99330752  *   0.27860458  *  -0.31040809  *
     7       C          2.67720064  *  -0.07602948  *  -1.58271123  *
     8       N          2.55841180  *   0.67259194  *   0.78571175  *
     9       O          3.92301100  *   0.74866440  *   0.68802276  *
    10       H         -3.59128431  *   0.57380787  *  -1.05355399  *
    11       H         -3.17537680  *  -1.04742619  *  -0.31435670  *
    12       H         -4.19605833  *   0.14556806  *   0.57194361  *
    13       H         -1.33147884  *   0.84506420  *   2.39320432  *
    14       H          0.05060524  *   0.89214491  *  -1.05756596  *
    15       H          0.15956604  *  -0.86443760  *  -0.55446908  *
    16       H          2.00803225  *  -0.38602898  *  -2.39320432  *
    17       H          3.27548578  *   0.77822542  *  -1.95951998  *
    18       H          3.40455423  *  -0.89822191  *  -1.42712390  *
    19       H          4.19605833  *   1.04742619  *   1.61900320  *

                             CARTESIAN COORDINATES

   1    C       -3.293990462     0.042715246    -0.106187612
   2    N       -2.184775147     0.646395359     0.462043925
   3    C       -1.199401439     0.590924414     1.304211450
   4    O        0.069127634     0.523762893     1.009790870
   5    C        0.490462484     0.170223351    -0.339867920
   6    C        1.993307516     0.278604577    -0.310408085
   7    C        2.677200639    -0.076029480    -1.582711233
   8    N        2.558411801     0.672591937     0.785711747
   9    O        3.923011005     0.748664399     0.688022757
  10    H       -3.591284311     0.573807865    -1.053553988
  11    H       -3.175376803    -1.047426188    -0.314356704
  12    H       -4.196058334     0.145568059     0.571943608
  13    H       -1.331478842     0.845064200     2.393204318
  14    H        0.050605242     0.892144909    -1.057565960
  15    H        0.159566042    -0.864437602    -0.554469080
  16    H        2.008032248    -0.386028979    -2.393204318
  17    H        3.275485780     0.778225424    -1.959519976
  18    H        3.404554235    -0.898221911    -1.427123904
  19    H        4.196058334     1.047426188     1.619003196


           Empirical Formula: C5 H10 N2 O2  =    19 atoms



      MOLECULAR POINT GROUP   :   C1  


          ALPHA EIGENVALUES  
 -38.02347 -35.18151 -32.82484 -29.48943 -27.43645 -26.94772 -25.32331 -22.16971
 -20.21401 -19.13805 -18.57212 -17.84540 -17.59055 -16.62842 -16.52317 -15.78510
 -15.25405 -14.97341 -14.47097 -13.68778 -13.63763 -13.31893 -12.10796 -11.97624
 -11.45394 -10.45563  -1.11811  -0.07550   0.16915   0.51575   1.27886   2.70195
   3.27335   3.57645   3.69286   4.08748   4.27604   4.47423   4.52181   4.62373
   4.81309   5.19466   5.20990   5.25199   5.34796   6.42621


           BETA EIGENVALUES 
 -36.19179 -35.18102 -32.62057 -29.47958 -27.29946 -26.84299 -25.26033 -21.85423
 -20.11557 -18.74253 -18.12823 -17.75746 -17.42881 -16.54913 -16.23322 -15.27461
 -15.07703 -14.74066 -14.42413 -13.69497 -13.64205 -13.28884 -11.49304 -11.42621
 -10.45455  -2.40589  -1.02219   0.16647   0.27261   1.07757   1.31672   2.77560
   3.38268   3.58344   3.83690   4.43345   4.47594   4.51545   4.54212   4.80546
   4.81474   5.19500   5.21028   5.34814   5.39970   6.42637


              NET ATOMIC CHARGES AND DIPOLE CONTRIBUTIONS

  ATOM NO.   TYPE          CHARGE      No. of ELECS.   s-Pop       p-Pop       
    1          C          -0.231443        4.2314     1.06383     3.16762
    2          N          -0.208293        5.2083     1.61488     3.59342
    3          C           0.388551        3.6114     1.15045     2.46100
    4          O          -0.226052        6.2261     1.86068     4.36537
    5          C          -0.078629        4.0786     1.11655     2.96208
    6          C           0.138176        3.8618     1.08272     2.77911
    7          C          -0.478000        4.4780     1.05228     3.42572
    8          N          -0.245376        5.2454     1.79515     3.45023
    9          O          -0.342392        6.3424     1.90142     4.44097
   10          H           0.223905        0.7761     0.77610
   11          H           0.211357        0.7886     0.78864
   12          H           0.249775        0.7502     0.75022
   13          H           0.289031        0.7110     0.71097
   14          H           0.192622        0.8074     0.80738
   15          H           0.192841        0.8072     0.80716
   16          H           0.179547        0.8205     0.82045
   17          H           0.196750        0.8032     0.80325
   18          H           0.196177        0.8038     0.80382
   19          H           0.351451        0.6485     0.64855
 DIPOLE           X         Y         Z       TOTAL
 POINT-CHG.   -12.473    -1.558    -0.004    12.570
 HYBRID         0.705    -0.068    -0.287     0.764
 SUM          -11.768    -1.626    -0.291    11.884


          ATOMIC ORBITAL ELECTRON POPULATIONS

     Atom    s        px        py        pz   
    1  C   1.06383   0.90930   1.12995   1.12836
    2  N   1.61488   1.10932   1.37180   1.11229
    3  C   1.15045   0.76766   0.73676   0.95658
    4  O   1.86068   1.24388   1.73702   1.38447
    5  C   1.11655   0.98424   1.16085   0.81699
    6  C   1.08272   0.93363   0.92243   0.92305
    7  C   1.05228   1.16776   1.20519   1.05277
    8  N   1.79515   0.95895   1.20183   1.28944
    9  O   1.90142   1.10678   1.88247   1.45172
   10  H   0.77610
   11  H   0.78864
   12  H   0.75022
   13  H   0.71097
   14  H   0.80738
   15  H   0.80716
   16  H   0.82045
   17  H   0.80325
   18  H   0.80382
   19  H   0.64855


                    (SZ)    =    0.500000
                    (S**2)  =    0.792298


          ATOMIC ORBITAL SPIN POPULATIONS

    Atom   Total    s     px     py     pz   
         Atomic
    1  C -0.0274 -0.007 -0.022 -0.005  0.006
    2  N  1.0185  0.045  0.286  0.157  0.530
    3  C -0.1733 -0.009 -0.033 -0.107 -0.024
    4  O  0.0187  0.000  0.060 -0.041 -0.001
    5  C  0.0034 -0.000  0.001 -0.000  0.003
    6  C  0.0012  0.000  0.001  0.000 -0.000
    7  C  0.0010  0.000  0.000  0.000  0.000
    8  N  0.0001  0.000  0.000  0.000 -0.000
    9  O -0.0001 -0.000 -0.000  0.000  0.000
   10  H  0.0223  0.022
   11  H  0.0212  0.021
   12  H  0.0790  0.079
   13  H  0.0374  0.037
   14  H -0.0009 -0.001
   15  H -0.0011 -0.001
   16  H -0.0000 -0.000
   17  H  0.0000  0.000
   18  H  0.0000  0.000
   19  H  0.0000  0.000

 **********************
 *                    *
 * JOB ENDED NORMALLY *
 *                    *
 **********************



 TOTAL JOB TIME:             2.01 SECONDS

 == MOPAC DONE ==
