 *******************************************************************************
 **                                                                           **
 **                              MOPAC v23.2                                  **
 **                                                                           **
 *******************************************************************************
 **          Digital Object Identifier (DOI): 10.5281/zenodo.6511958          **
 **    Visit the DOI location for information on how to cite this program.    **
 *******************************************************************************

                              PM7 CALCULATION RESULTS

 *******************************************************************************
 *  CALCULATION DONE: (MAX THREADS = 40)             Fri Sep 19 22:06:42 2025  *
 *  PM7        - The PM7 Hamiltonian to be used
 *
 *
 *
 *                 CHARGE ON SYSTEM = +1
 *
 *
 *
 *  EPS=37.5   - USE ANDREAS KLAMT'S COSMO IMPLICIT SOLVATION MODEL
 *  1SCF       - DO 1 SCF AND THEN STOP 
 *  T=         - A TIME OF 172800.0 SECONDS REQUESTED
 *  DUMP=N     - RESTART FILE WRITTEN EVERY 7200.0 SECONDS REQUESTED
 *  RELSCF     - DEFAULT SCF CRITERION MULTIPLIED BY 0.0001
 *              (DEFAULT SCF CRITERION = 0.00010)
 *  GRADIENTS  - ALL GRADIENTS TO BE PRINTED
 *  DISP       - PRINT DISPERSION AND HYDROGEN BOND ENERGIES
 *******************************************************************************
PM7 1SCF GRADIENTS EPS=37.5 DISP RELSCF=0.0001 CHARGE=1
 Title: ASE calculation

   ATOM   CHEMICAL          X               Y               Z
  NUMBER   SYMBOL      (ANGSTROMS)     (ANGSTROMS)     (ANGSTROMS)

     1       O         -2.23273568  *  -0.19004370  *   1.01490402  *
     2       C         -1.43058135  *  -1.35906988  *   0.86539721  *
     3       C         -0.17454372  *  -0.86563534  *   0.30016706  *
     4       C          0.88790362  *  -0.00552221  *   0.92681160  *
     5       C          0.53892643  *   1.35243758  *   0.24736184  *
     6       C          0.10953776  *   0.94142847  *  -1.17944987  *
     7       C          0.18681716  *  -0.68392686  *  -1.15576608  *
     8       C          1.63904232  *  -0.84567150  *  -1.15021532  *
     9       C          2.15994470  *  -0.54951516  *   0.18434493  *
    10       H         -3.03320097  *  -0.39801637  *   1.55112009  *
    11       H         -1.96535793  *  -2.06678902  *   0.19624951  *
    12       H         -1.28375994  *  -1.84101725  *   1.85732524  *
    13       H          0.96385604  *   0.02458111  *   2.02040171  *
    14       H         -0.29790660  *   1.84560717  *   0.78927363  *
    15       H          1.37464311  *   2.06678902  *   0.26521579  *
    16       H         -0.95156782  *   1.19753603  *  -1.38076458  *
    17       H          0.70652386  *   1.38624996  *  -1.98420475  *
    18       H         -0.43257911  *  -1.15692153  *  -1.93008239  *
    19       H          2.25003298  *  -1.09224549  *  -2.02040171  *
    20       H          3.03320097  *   0.14263958  *   0.21877463  *
    21       H          2.56579688  *  -1.45767155  *   0.70926367  *



          CARTESIAN COORDINATES 

    NO.       ATOM           X           Y           Z

     1         O         -2.2327     -0.1900      1.0149
     2         C         -1.4306     -1.3591      0.8654
     3         C         -0.1745     -0.8656      0.3002
     4         C          0.8879     -0.0055      0.9268
     5         C          0.5389      1.3524      0.2474
     6         C          0.1095      0.9414     -1.1794
     7         C          0.1868     -0.6839     -1.1558
     8         C          1.6390     -0.8457     -1.1502
     9         C          2.1599     -0.5495      0.1843
    10         H         -3.0332     -0.3980      1.5511
    11         H         -1.9654     -2.0668      0.1962
    12         H         -1.2838     -1.8410      1.8573
    13         H          0.9639      0.0246      2.0204
    14         H         -0.2979      1.8456      0.7893
    15         H          1.3746      2.0668      0.2652
    16         H         -0.9516      1.1975     -1.3808
    17         H          0.7065      1.3862     -1.9842
    18         H         -0.4326     -1.1569     -1.9301
    19         H          2.2500     -1.0922     -2.0204
    20         H          3.0332      0.1426      0.2188
    21         H          2.5658     -1.4577      0.7093

 General Reference for PM7:
 "Optimization of Parameters for Semiempirical Methods VI: More Modifications to the 
 NDDO Approximations and Re-optimization of Parameters", J. J. P. Stewart, J. Mol. Mod., 1:32, 19 (2013)
 https://link.springer.com/article/10.1007/s00894-012-1667-x

           Empirical Formula: C8 H12 O  =    21 atoms



      MOLECULAR POINT GROUP   :   C1  


          UHF CALCULATION, NO. OF ALPHA ELECTRONS =   25
                           NO. OF BETA  ELECTRONS =   24
  SCF CRITERION =    0.1000E-07

 -------------------------------------------------------------------------------
 PM7 1SCF GRADIENTS EPS=37.5 DISP RELSCF=0.0001 CHARGE=1
 Title: ASE calculation



     1SCF WAS SPECIFIED, SO BFGS WAS NOT USED                 
     SCF FIELD WAS ACHIEVED                                   


                              PM7 CALCULATION
                                                       MOPAC v23.2 Linux
                                                       Fri Sep 19 22:06:43 2025




          FINAL HEAT OF FORMATION =        133.67146 KCAL/MOL =     559.28140 KJ/MOL

          TOTAL ENERGY            =     -33031.76734 KCAL/MOL = ELECTRONIC ENERGY + CORE-CORE REPULSION + SOLVATION ENERGY
          ENERGY OF ATOMS         =      33167.45855 KCAL/MOL
                              SUM =        135.69121 KCAL/MOL
          DISPERSION ENERGY       =         -2.01975 KCAL/MOL
                              SUM =        133.67146 KCAL/MOL = FINAL HEAT OF FORMATION

          VAN DER WAALS AREA      =        161.87 SQUARE ANGSTROMS


          TOTAL ENERGY            =      -1432.39300 EV
          ELECTRONIC ENERGY       =      -2367.04889 EV 
          CORE-CORE REPULSION     =        934.65589 EV

          DIELECTRIC ENERGY       =         -2.52859 EV
          COSMO AREA              =        161.87 SQUARE ANGSTROMS
          COSMO VOLUME            =        164.43 CUBIC ANGSTROMS

          GRADIENT NORM           =         21.00720          =       4.58415 PER ATOM
          IONIZATION POTENTIAL    =          9.770960 EV
          ALPHA SOMO LUMO (EV)    =         -9.771 -2.198
          BETA  SOMO LUMO (EV)    =        -10.994 -2.167
          NO. OF ALPHA ELECTRONS  =         25
          NO. OF BETA  ELECTRONS  =         24
          MOLECULAR WEIGHT        =        124.1822         POINT GROUP:  C1  

          MOLECULAR DIMENSIONS (Angstroms)

            Atom       Atom       Distance
            H    19    H    10     6.41485
            H    15    H    11     4.80794
            H    16    H    21     4.37354


          SCF CALCULATIONS        =          2

          WALL-CLOCK TIME         =      0.250 SECONDS
          COMPUTATION TIME        =      3.112 SECONDS

          LARGEST ATOMIC GRADIENTS

          Atom     Label                     Cartesian Gradients           Cartesian Coordinates       |Gradient|
                                           X          Y          Z        X          Y          Z

             7       C                   7.424     -8.054     -4.154    0.18682   -0.68393   -1.15577     11.715
             8       C                  -8.119      2.325     -2.258    1.63904   -0.84567   -1.15022      8.742
             9       C                   6.571     -2.243     -2.363    2.15994   -0.54952    0.18434      7.334
             6       C                   5.409      3.860      0.452    0.10954    0.94143   -1.17945      6.660
             2       C                  -4.675      1.714      1.353   -1.43058   -1.35907    0.86540      5.160
             1       O                   4.022     -1.841     -1.710   -2.23274   -0.19004    1.01490      4.742
             5       C                   3.307     -2.459     -2.327    0.53893    1.35244    0.24736      4.733
            14       H                  -2.626      1.195      1.687   -0.29791    1.84561    0.78927      3.342
             3       C                  -0.196     -1.193      2.720   -0.17454   -0.86564    0.30017      2.977
            16       H                  -2.730     -0.147      0.457   -0.95157    1.19754   -1.38076      2.772



       FINAL  POINT  AND  DERIVATIVES

   PARAMETER     ATOM    TYPE            VALUE        GRADIENT
      1          1  O    CARTESIAN X    -2.232736      4.021647  KCAL/ANGSTROM
      2          1  O    CARTESIAN Y    -0.190044     -1.840783  KCAL/ANGSTROM
      3          1  O    CARTESIAN Z     1.014904     -1.710034  KCAL/ANGSTROM
      4          2  C    CARTESIAN X    -1.430581     -4.674994  KCAL/ANGSTROM
      5          2  C    CARTESIAN Y    -1.359070      1.714149  KCAL/ANGSTROM
      6          2  C    CARTESIAN Z     0.865397      1.352922  KCAL/ANGSTROM
      7          3  C    CARTESIAN X    -0.174544     -0.195587  KCAL/ANGSTROM
      8          3  C    CARTESIAN Y    -0.865635     -1.193216  KCAL/ANGSTROM
      9          3  C    CARTESIAN Z     0.300167      2.720089  KCAL/ANGSTROM
     10          4  C    CARTESIAN X     0.887904     -1.677173  KCAL/ANGSTROM
     11          4  C    CARTESIAN Y    -0.005522      1.144785  KCAL/ANGSTROM
     12          4  C    CARTESIAN Z     0.926812     -0.364539  KCAL/ANGSTROM
     13          5  C    CARTESIAN X     0.538926      3.307237  KCAL/ANGSTROM
     14          5  C    CARTESIAN Y     1.352438     -2.459279  KCAL/ANGSTROM
     15          5  C    CARTESIAN Z     0.247362     -2.327008  KCAL/ANGSTROM
     16          6  C    CARTESIAN X     0.109538      5.408527  KCAL/ANGSTROM
     17          6  C    CARTESIAN Y     0.941428      3.860251  KCAL/ANGSTROM
     18          6  C    CARTESIAN Z    -1.179450      0.451567  KCAL/ANGSTROM
     19          7  C    CARTESIAN X     0.186817      7.424460  KCAL/ANGSTROM
     20          7  C    CARTESIAN Y    -0.683927     -8.054113  KCAL/ANGSTROM
     21          7  C    CARTESIAN Z    -1.155766     -4.154207  KCAL/ANGSTROM
     22          8  C    CARTESIAN X     1.639042     -8.119007  KCAL/ANGSTROM
     23          8  C    CARTESIAN Y    -0.845671      2.324514  KCAL/ANGSTROM
     24          8  C    CARTESIAN Z    -1.150215     -2.257852  KCAL/ANGSTROM
     25          9  C    CARTESIAN X     2.159945      6.571118  KCAL/ANGSTROM
     26          9  C    CARTESIAN Y    -0.549515     -2.242972  KCAL/ANGSTROM
     27          9  C    CARTESIAN Z     0.184345     -2.362723  KCAL/ANGSTROM
     28         10  H    CARTESIAN X    -3.033201      0.178482  KCAL/ANGSTROM
     29         10  H    CARTESIAN Y    -0.398016      1.003934  KCAL/ANGSTROM
     30         10  H    CARTESIAN Z     1.551120     -0.319328  KCAL/ANGSTROM
     31         11  H    CARTESIAN X    -1.965358     -0.174432  KCAL/ANGSTROM
     32         11  H    CARTESIAN Y    -2.066789     -0.446459  KCAL/ANGSTROM
     33         11  H    CARTESIAN Z     0.196250     -0.367135  KCAL/ANGSTROM
     34         12  H    CARTESIAN X    -1.283760      0.630987  KCAL/ANGSTROM
     35         12  H    CARTESIAN Y    -1.841017     -0.478933  KCAL/ANGSTROM
     36         12  H    CARTESIAN Z     1.857325      0.396553  KCAL/ANGSTROM
     37         13  H    CARTESIAN X     0.963856     -0.426466  KCAL/ANGSTROM
     38         13  H    CARTESIAN Y     0.024581      0.496486  KCAL/ANGSTROM
     39         13  H    CARTESIAN Z     2.020402      1.421302  KCAL/ANGSTROM
     40         14  H    CARTESIAN X    -0.297907     -2.625563  KCAL/ANGSTROM
     41         14  H    CARTESIAN Y     1.845607      1.194848  KCAL/ANGSTROM
     42         14  H    CARTESIAN Z     0.789274      1.687385  KCAL/ANGSTROM
     43         15  H    CARTESIAN X     1.374643     -0.730949  KCAL/ANGSTROM
     44         15  H    CARTESIAN Y     2.066789      1.262927  KCAL/ANGSTROM
     45         15  H    CARTESIAN Z     0.265216      0.886557  KCAL/ANGSTROM
     46         16  H    CARTESIAN X    -0.951568     -2.730157  KCAL/ANGSTROM
     47         16  H    CARTESIAN Y     1.197536     -0.146533  KCAL/ANGSTROM
     48         16  H    CARTESIAN Z    -1.380765      0.457181  KCAL/ANGSTROM
     49         17  H    CARTESIAN X     0.706524     -1.359297  KCAL/ANGSTROM
     50         17  H    CARTESIAN Y     1.386250      0.891928  KCAL/ANGSTROM
     51         17  H    CARTESIAN Z    -1.984205     -0.278778  KCAL/ANGSTROM
     52         18  H    CARTESIAN X    -0.432579     -1.660645  KCAL/ANGSTROM
     53         18  H    CARTESIAN Y    -1.156922      0.863715  KCAL/ANGSTROM
     54         18  H    CARTESIAN Z    -1.930082      0.365994  KCAL/ANGSTROM
     55         19  H    CARTESIAN X     2.250033     -1.165508  KCAL/ANGSTROM
     56         19  H    CARTESIAN Y    -1.092245      0.588234  KCAL/ANGSTROM
     57         19  H    CARTESIAN Z    -2.020402      1.506818  KCAL/ANGSTROM
     58         20  H    CARTESIAN X     3.033201     -0.584460  KCAL/ANGSTROM
     59         20  H    CARTESIAN Y     0.142640      0.873577  KCAL/ANGSTROM
     60         20  H    CARTESIAN Z     0.218775      1.064668  KCAL/ANGSTROM
     61         21  H    CARTESIAN X     2.565797     -1.418225  KCAL/ANGSTROM
     62         21  H    CARTESIAN Y    -1.457672      0.642937  KCAL/ANGSTROM
     63         21  H    CARTESIAN Z     0.709264      1.830563  KCAL/ANGSTROM




   ATOM   CHEMICAL          X               Y               Z
  NUMBER   SYMBOL      (ANGSTROMS)     (ANGSTROMS)     (ANGSTROMS)

     1       O         -2.23273568  *  -0.19004370  *   1.01490402  *
     2       C         -1.43058135  *  -1.35906988  *   0.86539721  *
     3       C         -0.17454372  *  -0.86563534  *   0.30016706  *
     4       C          0.88790362  *  -0.00552221  *   0.92681160  *
     5       C          0.53892643  *   1.35243758  *   0.24736184  *
     6       C          0.10953776  *   0.94142847  *  -1.17944987  *
     7       C          0.18681716  *  -0.68392686  *  -1.15576608  *
     8       C          1.63904232  *  -0.84567150  *  -1.15021532  *
     9       C          2.15994470  *  -0.54951516  *   0.18434493  *
    10       H         -3.03320097  *  -0.39801637  *   1.55112009  *
    11       H         -1.96535793  *  -2.06678902  *   0.19624951  *
    12       H         -1.28375994  *  -1.84101725  *   1.85732524  *
    13       H          0.96385604  *   0.02458111  *   2.02040171  *
    14       H         -0.29790660  *   1.84560717  *   0.78927363  *
    15       H          1.37464311  *   2.06678902  *   0.26521579  *
    16       H         -0.95156782  *   1.19753603  *  -1.38076458  *
    17       H          0.70652386  *   1.38624996  *  -1.98420475  *
    18       H         -0.43257911  *  -1.15692153  *  -1.93008239  *
    19       H          2.25003298  *  -1.09224549  *  -2.02040171  *
    20       H          3.03320097  *   0.14263958  *   0.21877463  *
    21       H          2.56579688  *  -1.45767155  *   0.70926367  *

                             CARTESIAN COORDINATES

   1    O       -2.232735678    -0.190043699     1.014904022
   2    C       -1.430581355    -1.359069883     0.865397207
   3    C       -0.174543716    -0.865635341     0.300167058
   4    C        0.887903624    -0.005522206     0.926811595
   5    C        0.538926428     1.352437576     0.247361835
   6    C        0.109537764     0.941428473    -1.179449867
   7    C        0.186817155    -0.683926859    -1.155766084
   8    C        1.639042318    -0.845671498    -1.150215319
   9    C        2.159944700    -0.549515157     0.184344934
  10    H       -3.033200966    -0.398016372     1.551120092
  11    H       -1.965357931    -2.066789021     0.196249513
  12    H       -1.283759935    -1.841017254     1.857325245
  13    H        0.963856036     0.024581111     2.020401709
  14    H       -0.297906602     1.845607169     0.789273629
  15    H        1.374643107     2.066789021     0.265215791
  16    H       -0.951567824     1.197536031    -1.380764580
  17    H        0.706523856     1.386249964    -1.984204748
  18    H       -0.432579111    -1.156921534    -1.930082391
  19    H        2.250032979    -1.092245485    -2.020401709
  20    H        3.033200966     0.142639578     0.218774632
  21    H        2.565796878    -1.457671549     0.709263669


           Empirical Formula: C8 H12 O  =    21 atoms



      MOLECULAR POINT GROUP   :   C1  


          ALPHA EIGENVALUES  
 -33.55908 -29.68713 -27.09729 -26.25594 -25.95657 -22.95440 -21.33349 -19.35036
 -19.16794 -18.29924 -17.62461 -16.50284 -16.08318 -15.63572 -14.82831 -14.39941
 -13.94370 -13.73684 -13.23594 -12.99862 -12.78399 -12.61667 -12.06973 -11.06275
  -9.77096  -2.19762   1.91021   2.03465   2.44854   2.48292   2.71232   2.91961
   3.03824   3.55956   3.88398   4.15490   4.32568   4.47727   4.83327   5.13712
   5.25563   5.36350   5.46483   5.54178   5.60840   5.69997   5.81359   6.08242


           BETA EIGENVALUES 
 -33.48223 -29.46156 -27.04414 -26.22263 -25.76006 -22.89065 -21.30944 -19.29201
 -19.10217 -18.22562 -17.39269 -16.31044 -15.95590 -15.59463 -14.80606 -14.37140
 -13.88401 -13.64426 -13.17568 -12.96431 -12.69192 -12.51229 -12.02301 -10.99430
  -2.16665  -0.54106   2.02386   2.13312   2.49033   2.72271   2.97379   3.04830
   3.10962   3.70236   4.06078   4.30656   4.35325   4.47957   4.84679   5.13634
   5.27113   5.36899   5.47226   5.56381   5.61738   5.70708   5.83887   6.08839


              NET ATOMIC CHARGES AND DIPOLE CONTRIBUTIONS

  ATOM NO.   TYPE          CHARGE      No. of ELECS.   s-Pop       p-Pop       
    1          O          -0.598857        6.5989     1.85335     4.74551
    2          C           0.000178        3.9998     1.07577     2.92405
    3          C          -0.044584        4.0446     1.12726     2.91732
    4          C          -0.091521        4.0915     1.07861     3.01291
    5          C          -0.294006        4.2940     1.07314     3.22087
    6          C          -0.218333        4.2183     1.08727     3.13106
    7          C          -0.250664        4.2507     1.09067     3.15999
    8          C           0.438909        3.5611     1.21394     2.34715
    9          C          -0.408940        4.4089     1.08101     3.32793
   10          H           0.352735        0.6473     0.64727
   11          H           0.150710        0.8493     0.84929
   12          H           0.155068        0.8449     0.84493
   13          H           0.178799        0.8212     0.82120
   14          H           0.175096        0.8249     0.82490
   15          H           0.167637        0.8324     0.83236
   16          H           0.187625        0.8124     0.81237
   17          H           0.170300        0.8297     0.82970
   18          H           0.216096        0.7839     0.78390
   19          H           0.207076        0.7929     0.79292
   20          H           0.242841        0.7572     0.75716
   21          H           0.263834        0.7362     0.73617
 DIPOLE           X         Y         Z       TOTAL
 POINT-CHG.     6.093    -2.996    -3.051     7.444
 HYBRID        -0.189     0.072    -0.114     0.232
 SUM            5.904    -2.924    -3.165     7.309


          ATOMIC ORBITAL ELECTRON POPULATIONS

     Atom    s        px        py        pz   
    1  O   1.85335   1.49713   1.42741   1.82098
    2  C   1.07577   0.91135   0.88806   1.12464
    3  C   1.12726   0.99572   0.99944   0.92216
    4  C   1.07861   0.93414   0.98100   1.09778
    5  C   1.07314   1.17640   1.04036   1.00411
    6  C   1.08727   1.19181   0.87686   1.06239
    7  C   1.09067   1.01246   1.04861   1.09892
    8  C   1.21394   1.01007   0.33410   1.00298
    9  C   1.08101   1.11605   1.18779   1.02409
   10  H   0.64727
   11  H   0.84929
   12  H   0.84493
   13  H   0.82120
   14  H   0.82490
   15  H   0.83236
   16  H   0.81237
   17  H   0.82970
   18  H   0.78390
   19  H   0.79292
   20  H   0.75716
   21  H   0.73617


                    (SZ)    =    0.500000
                    (S**2)  =    0.755090


          ATOMIC ORBITAL SPIN POPULATIONS

    Atom   Total    s     px     py     pz   
         Atomic
    1  O  0.0546  0.005  0.013  0.035  0.002
    2  C -0.0526 -0.002 -0.027 -0.017 -0.007
    3  C  0.9738  0.036  0.228  0.665  0.044
    4  C -0.0514 -0.005 -0.020 -0.021 -0.005
    5  C  0.0340  0.007  0.001  0.022  0.005
    6  C  0.0402  0.007  0.001  0.032  0.001
    7  C -0.0466 -0.005 -0.008 -0.013 -0.021
    8  C  0.0131  0.004  0.010 -0.002  0.001
    9  C  0.0190  0.003  0.009  0.001  0.005
   10  H  0.0030  0.003
   11  H  0.0025  0.002
   12  H  0.0098  0.010
   13  H  0.0017  0.002
   14  H -0.0008 -0.001
   15  H  0.0007  0.001
   16  H -0.0010 -0.001
   17  H  0.0010  0.001
   18  H  0.0013  0.001
   19  H -0.0001 -0.000
   20  H -0.0011 -0.001
   21  H -0.0013 -0.001

 **********************
 *                    *
 * JOB ENDED NORMALLY *
 *                    *
 **********************



 TOTAL JOB TIME:             0.40 SECONDS

 == MOPAC DONE ==
