 *******************************************************************************
 **                                                                           **
 **                              MOPAC v23.2                                  **
 **                                                                           **
 *******************************************************************************
 **          Digital Object Identifier (DOI): 10.5281/zenodo.6511958          **
 **    Visit the DOI location for information on how to cite this program.    **
 *******************************************************************************

                              PM7 CALCULATION RESULTS

 *******************************************************************************
 *  CALCULATION DONE: (MAX THREADS = 40)             Fri Sep 19 21:41:31 2025  *
 *  PM7        - The PM7 Hamiltonian to be used
 *  1SCF       - DO 1 SCF AND THEN STOP 
 *  T=         - A TIME OF 172800.0 SECONDS REQUESTED
 *  DUMP=N     - RESTART FILE WRITTEN EVERY 7200.0 SECONDS REQUESTED
 *  RELSCF     - DEFAULT SCF CRITERION MULTIPLIED BY 0.0001
 *              (DEFAULT SCF CRITERION = 0.00010)
 *  GRADIENTS  - ALL GRADIENTS TO BE PRINTED
 *  DISP       - PRINT DISPERSION AND HYDROGEN BOND ENERGIES
 *******************************************************************************
PM7 1SCF GRADIENTS DISP RELSCF=0.0001
 Title: ASE calculation

   ATOM   CHEMICAL          X               Y               Z
  NUMBER   SYMBOL      (ANGSTROMS)     (ANGSTROMS)     (ANGSTROMS)

     1       C          2.49328989  *  -1.59748445  *   0.53541448  *
     2       O          1.73244550  *  -0.40880897  *   0.44264743  *
     3       C          0.82483077  *  -0.38855744  *  -0.64694290  *
     4       C          0.31509672  *   1.01815697  *  -0.64617016  *
     5       C         -0.95286940  *   1.44028396  *  -0.57785622  *
     6       C         -2.15689320  *   0.63988257  *  -0.43223246  *
     7       C         -2.21853515  *  -0.58588878  *   0.10505905  *
     8       C         -1.00884605  *  -1.32548189  *   0.56980191  *
     9       O         -0.10266976  *  -1.42374345  *  -0.51749364  *
    10       H          3.02485029  *  -1.48069487  *   1.48800181  *
    11       H          3.20187127  *  -1.65619781  *  -0.29672385  *
    12       H          1.84801724  *  -2.48198593  *   0.56310286  *
    13       H          1.33059260  *  -0.67368284  *  -1.60253143  *
    14       H          1.13337163  *   1.74270468  *  -0.72258725  *
    15       H         -1.14816903  *   2.52064006  *  -0.63493257  *
    16       H         -3.07170861  *   1.12865000  *  -0.78299171  *
    17       H         -3.16251727  *  -1.11731036  *   0.20670589  *
    18       H         -0.52720123  *  -0.84238990  *   1.44391380  *
    19       H         -1.21457358  *  -2.38630182  *   0.81165736  *



          CARTESIAN COORDINATES 

    NO.       ATOM           X           Y           Z

     1         C          2.4933     -1.5975      0.5354
     2         O          1.7324     -0.4088      0.4426
     3         C          0.8248     -0.3886     -0.6469
     4         C          0.3151      1.0182     -0.6462
     5         C         -0.9529      1.4403     -0.5779
     6         C         -2.1569      0.6399     -0.4322
     7         C         -2.2185     -0.5859      0.1051
     8         C         -1.0088     -1.3255      0.5698
     9         O         -0.1027     -1.4237     -0.5175
    10         H          3.0249     -1.4807      1.4880
    11         H          3.2019     -1.6562     -0.2967
    12         H          1.8480     -2.4820      0.5631
    13         H          1.3306     -0.6737     -1.6025
    14         H          1.1334      1.7427     -0.7226
    15         H         -1.1482      2.5206     -0.6349
    16         H         -3.0717      1.1287     -0.7830
    17         H         -3.1625     -1.1173      0.2067
    18         H         -0.5272     -0.8424      1.4439
    19         H         -1.2146     -2.3863      0.8117

 General Reference for PM7:
 "Optimization of Parameters for Semiempirical Methods VI: More Modifications to the 
 NDDO Approximations and Re-optimization of Parameters", J. J. P. Stewart, J. Mol. Mod., 1:32, 19 (2013)
 https://link.springer.com/article/10.1007/s00894-012-1667-x

           Empirical Formula: C7 H10 O2  =    19 atoms



      MOLECULAR POINT GROUP   :   C1  


      RHF CALCULATION, NO. OF DOUBLY OCCUPIED LEVELS = 25

  SCF CRITERION =    0.1000E-07

 -------------------------------------------------------------------------------
 PM7 1SCF GRADIENTS DISP RELSCF=0.0001
 Title: ASE calculation



     1SCF WAS SPECIFIED, SO BFGS WAS NOT USED                 
     SCF FIELD WAS ACHIEVED                                   


                              PM7 CALCULATION
                                                       MOPAC v23.2 Linux
                                                       Fri Sep 19 21:41:32 2025




          FINAL HEAT OF FORMATION =        -52.37550 KCAL/MOL =    -219.13911 KJ/MOL

          TOTAL ENERGY            =     -36532.88863 KCAL/MOL = ELECTRONIC ENERGY + CORE-CORE REPULSION
          ENERGY OF ATOMS         =      36482.50324 KCAL/MOL
                              SUM =        -50.38539 KCAL/MOL
          DISPERSION ENERGY       =         -1.99011 KCAL/MOL
                              SUM =        -52.37550 KCAL/MOL = FINAL HEAT OF FORMATION



          TOTAL ENERGY            =      -1584.21599 EV
          ELECTRONIC ENERGY       =      -7643.86913 EV 
          CORE-CORE REPULSION     =       6059.65314 EV
          COSMO AREA              =        161.18 SQUARE ANGSTROMS
          COSMO VOLUME            =        159.95 CUBIC ANGSTROMS

          GRADIENT NORM           =          1.15676          =       0.26538 PER ATOM
          IONIZATION POTENTIAL    =          9.470331 EV
          HOMO LUMO ENERGIES (EV) =         -9.470 -0.008
          NO. OF FILLED LEVELS    =         25
          MOLECULAR WEIGHT        =        126.1548         POINT GROUP:  C1  

          MOLECULAR DIMENSIONS (Angstroms)

            Atom       Atom       Distance
            H    16    H    10     7.00957
            H    19    H    14     4.99153
            H    13    H    18     2.93974


          SCF CALCULATIONS        =          1

          WALL-CLOCK TIME         =      0.805 SECONDS
          COMPUTATION TIME        =      0.481 SECONDS

          LARGEST ATOMIC GRADIENTS

          Atom     Label                     Cartesian Gradients           Cartesian Coordinates       |Gradient|
                                           X          Y          Z        X          Y          Z

            14       H                   0.113     -0.339     -0.256    1.13337    1.74270   -0.72259      0.440
             6       C                  -0.037      0.146      0.397   -2.15689    0.63988   -0.43223      0.425
             7       C                   0.135     -0.143     -0.369   -2.21854   -0.58589    0.10506      0.418
            11       H                   0.003      0.350     -0.041    3.20187   -1.65620   -0.29672      0.352
            13       H                   0.144     -0.309      0.025    1.33059   -0.67368   -1.60253      0.342
            19       H                  -0.281     -0.103      0.082   -1.21457   -2.38630    0.81166      0.311
             5       C                   0.007      0.068      0.277   -0.95287    1.44028   -0.57786      0.285
             2       O                  -0.141      0.229     -0.011    1.73245   -0.40881    0.44265      0.269
            17       H                   0.153     -0.137     -0.145   -3.16252   -1.11731    0.20671      0.252
            15       H                   0.220      0.053      0.091   -1.14817    2.52064   -0.63493      0.244



       FINAL  POINT  AND  DERIVATIVES

   PARAMETER     ATOM    TYPE            VALUE        GRADIENT
      1          1  C    CARTESIAN X     2.493290     -0.145754  KCAL/ANGSTROM
      2          1  C    CARTESIAN Y    -1.597484      0.119604  KCAL/ANGSTROM
      3          1  C    CARTESIAN Z     0.535414     -0.001713  KCAL/ANGSTROM
      4          2  O    CARTESIAN X     1.732445     -0.140661  KCAL/ANGSTROM
      5          2  O    CARTESIAN Y    -0.408809      0.228781  KCAL/ANGSTROM
      6          2  O    CARTESIAN Z     0.442647     -0.010690  KCAL/ANGSTROM
      7          3  C    CARTESIAN X     0.824831     -0.062057  KCAL/ANGSTROM
      8          3  C    CARTESIAN Y    -0.388557      0.075254  KCAL/ANGSTROM
      9          3  C    CARTESIAN Z    -0.646943     -0.131775  KCAL/ANGSTROM
     10          4  C    CARTESIAN X     0.315097     -0.085949  KCAL/ANGSTROM
     11          4  C    CARTESIAN Y     1.018157     -0.024029  KCAL/ANGSTROM
     12          4  C    CARTESIAN Z    -0.646170     -0.146170  KCAL/ANGSTROM
     13          5  C    CARTESIAN X    -0.952869      0.007007  KCAL/ANGSTROM
     14          5  C    CARTESIAN Y     1.440284      0.067619  KCAL/ANGSTROM
     15          5  C    CARTESIAN Z    -0.577856      0.276644  KCAL/ANGSTROM
     16          6  C    CARTESIAN X    -2.156893     -0.037393  KCAL/ANGSTROM
     17          6  C    CARTESIAN Y     0.639883      0.145710  KCAL/ANGSTROM
     18          6  C    CARTESIAN Z    -0.432232      0.396974  KCAL/ANGSTROM
     19          7  C    CARTESIAN X    -2.218535      0.134895  KCAL/ANGSTROM
     20          7  C    CARTESIAN Y    -0.585889     -0.143492  KCAL/ANGSTROM
     21          7  C    CARTESIAN Z     0.105059     -0.368541  KCAL/ANGSTROM
     22          8  C    CARTESIAN X    -1.008846      0.054203  KCAL/ANGSTROM
     23          8  C    CARTESIAN Y    -1.325482     -0.055129  KCAL/ANGSTROM
     24          8  C    CARTESIAN Z     0.569802      0.008412  KCAL/ANGSTROM
     25          9  O    CARTESIAN X    -0.102670      0.007646  KCAL/ANGSTROM
     26          9  O    CARTESIAN Y    -1.423743      0.126535  KCAL/ANGSTROM
     27          9  O    CARTESIAN Z    -0.517494     -0.056026  KCAL/ANGSTROM
     28         10  H    CARTESIAN X     3.024850      0.022422  KCAL/ANGSTROM
     29         10  H    CARTESIAN Y    -1.480695     -0.022148  KCAL/ANGSTROM
     30         10  H    CARTESIAN Z     1.488002      0.016650  KCAL/ANGSTROM
     31         11  H    CARTESIAN X     3.201871      0.003166  KCAL/ANGSTROM
     32         11  H    CARTESIAN Y    -1.656198      0.349756  KCAL/ANGSTROM
     33         11  H    CARTESIAN Z    -0.296724     -0.040830  KCAL/ANGSTROM
     34         12  H    CARTESIAN X     1.848017     -0.060178  KCAL/ANGSTROM
     35         12  H    CARTESIAN Y    -2.481986     -0.103548  KCAL/ANGSTROM
     36         12  H    CARTESIAN Z     0.563103      0.052655  KCAL/ANGSTROM
     37         13  H    CARTESIAN X     1.330593      0.144434  KCAL/ANGSTROM
     38         13  H    CARTESIAN Y    -0.673683     -0.309048  KCAL/ANGSTROM
     39         13  H    CARTESIAN Z    -1.602531      0.024665  KCAL/ANGSTROM
     40         14  H    CARTESIAN X     1.133372      0.113337  KCAL/ANGSTROM
     41         14  H    CARTESIAN Y     1.742705     -0.338896  KCAL/ANGSTROM
     42         14  H    CARTESIAN Z    -0.722587     -0.256125  KCAL/ANGSTROM
     43         15  H    CARTESIAN X    -1.148169      0.219772  KCAL/ANGSTROM
     44         15  H    CARTESIAN Y     2.520640      0.052970  KCAL/ANGSTROM
     45         15  H    CARTESIAN Z    -0.634933      0.091348  KCAL/ANGSTROM
     46         16  H    CARTESIAN X    -3.071709     -0.005410  KCAL/ANGSTROM
     47         16  H    CARTESIAN Y     1.128650     -0.004441  KCAL/ANGSTROM
     48         16  H    CARTESIAN Z    -0.782992      0.026185  KCAL/ANGSTROM
     49         17  H    CARTESIAN X    -3.162517      0.153211  KCAL/ANGSTROM
     50         17  H    CARTESIAN Y    -1.117310     -0.137442  KCAL/ANGSTROM
     51         17  H    CARTESIAN Z     0.206706     -0.144570  KCAL/ANGSTROM
     52         18  H    CARTESIAN X    -0.527201     -0.041384  KCAL/ANGSTROM
     53         18  H    CARTESIAN Y    -0.842390      0.075326  KCAL/ANGSTROM
     54         18  H    CARTESIAN Z     1.443914      0.181330  KCAL/ANGSTROM
     55         19  H    CARTESIAN X    -1.214574     -0.281304  KCAL/ANGSTROM
     56         19  H    CARTESIAN Y    -2.386302     -0.103383  KCAL/ANGSTROM
     57         19  H    CARTESIAN Z     0.811657      0.081575  KCAL/ANGSTROM




   ATOM   CHEMICAL          X               Y               Z
  NUMBER   SYMBOL      (ANGSTROMS)     (ANGSTROMS)     (ANGSTROMS)

     1       C          2.49328989  *  -1.59748445  *   0.53541448  *
     2       O          1.73244550  *  -0.40880897  *   0.44264743  *
     3       C          0.82483077  *  -0.38855744  *  -0.64694290  *
     4       C          0.31509672  *   1.01815697  *  -0.64617016  *
     5       C         -0.95286940  *   1.44028396  *  -0.57785622  *
     6       C         -2.15689320  *   0.63988257  *  -0.43223246  *
     7       C         -2.21853515  *  -0.58588878  *   0.10505905  *
     8       C         -1.00884605  *  -1.32548189  *   0.56980191  *
     9       O         -0.10266976  *  -1.42374345  *  -0.51749364  *
    10       H          3.02485029  *  -1.48069487  *   1.48800181  *
    11       H          3.20187127  *  -1.65619781  *  -0.29672385  *
    12       H          1.84801724  *  -2.48198593  *   0.56310286  *
    13       H          1.33059260  *  -0.67368284  *  -1.60253143  *
    14       H          1.13337163  *   1.74270468  *  -0.72258725  *
    15       H         -1.14816903  *   2.52064006  *  -0.63493257  *
    16       H         -3.07170861  *   1.12865000  *  -0.78299171  *
    17       H         -3.16251727  *  -1.11731036  *   0.20670589  *
    18       H         -0.52720123  *  -0.84238990  *   1.44391380  *
    19       H         -1.21457358  *  -2.38630182  *   0.81165736  *

                             CARTESIAN COORDINATES

   1    C        2.493289892    -1.597484446     0.535414476
   2    O        1.732445499    -0.408808971     0.442647426
   3    C        0.824830765    -0.388557444    -0.646942902
   4    C        0.315096724     1.018156974    -0.646170162
   5    C       -0.952869398     1.440283962    -0.577856217
   6    C       -2.156893197     0.639882573    -0.432232464
   7    C       -2.218535155    -0.585888775     0.105059051
   8    C       -1.008846047    -1.325481894     0.569801912
   9    O       -0.102669763    -1.423743453    -0.517493640
  10    H        3.024850292    -1.480694870     1.488001812
  11    H        3.201871269    -1.656197808    -0.296723854
  12    H        1.848017239    -2.481985925     0.563102856
  13    H        1.330592596    -0.673682837    -1.602531430
  14    H        1.133371626     1.742704680    -0.722587248
  15    H       -1.148169025     2.520640063    -0.634932569
  16    H       -3.071708612     1.128650002    -0.782991707
  17    H       -3.162517266    -1.117310359     0.206705894
  18    H       -0.527201229    -0.842389896     1.443913802
  19    H       -1.214573577    -2.386301824     0.811657359


           Empirical Formula: C7 H10 O2  =    19 atoms



      MOLECULAR POINT GROUP   :   C1  


                  EIGENVALUES  
 -30.56135 -29.16961 -27.97866 -26.85668 -24.54955 -23.73258 -22.99846 -19.72428
 -18.28774 -17.83830 -16.77883 -16.27132 -15.45750 -14.97410 -14.51323 -14.29110
 -13.52556 -12.85299 -12.52887 -12.18099 -11.85996 -11.06993 -10.34388 -10.31739
  -9.47033  -0.00814   1.51214   2.37829   2.74044   3.87127   4.10453   4.53456
   4.63194   4.83496   5.26534   5.47709   5.63671   5.68803   5.81088   5.87526
   5.90049   6.04219   6.10464   6.17106   6.24006   6.37476


              NET ATOMIC CHARGES AND DIPOLE CONTRIBUTIONS

  ATOM NO.   TYPE          CHARGE      No. of ELECS.   s-Pop       p-Pop       
    1          C          -0.187514        4.1875     1.08153     3.10598
    2          O          -0.429005        6.4290     1.87906     4.54995
    3          C           0.311115        3.6889     1.10346     2.58542
    4          C          -0.222156        4.2222     1.09779     3.12437
    5          C          -0.119122        4.1191     1.08219     3.03693
    6          C          -0.160610        4.1606     1.08054     3.08007
    7          C          -0.162410        4.1624     1.09887     3.06354
    8          C          -0.038571        4.0386     1.08257     2.95600
    9          O          -0.423290        6.4233     1.87400     4.54929
   10          H           0.143268        0.8567     0.85673
   11          H           0.120514        0.8795     0.87949
   12          H           0.134081        0.8659     0.86592
   13          H           0.136526        0.8635     0.86347
   14          H           0.163286        0.8367     0.83671
   15          H           0.148677        0.8513     0.85132
   16          H           0.149505        0.8505     0.85050
   17          H           0.147575        0.8524     0.85242
   18          H           0.149201        0.8508     0.85080
   19          H           0.138930        0.8611     0.86107
 DIPOLE           X         Y         Z       TOTAL
 POINT-CHG.    -0.153    -0.135     0.162     0.260
 HYBRID         0.004     0.019    -0.020     0.028
 SUM           -0.149    -0.116     0.141     0.236


          ATOMIC ORBITAL ELECTRON POPULATIONS

     Atom    s        px        py        pz   
    1  C   1.08153   1.03158   0.93498   1.13942
    2  O   1.87906   1.58129   1.41356   1.55509
    3  C   1.10346   0.80925   0.86609   0.91008
    4  C   1.09779   1.04645   1.04680   1.03112
    5  C   1.08219   0.97961   1.07778   0.97954
    6  C   1.08054   1.04907   1.00640   1.02460
    7  C   1.09887   1.06150   1.00183   1.00021
    8  C   1.08257   0.91659   1.10072   0.93869
    9  O   1.87400   1.51086   1.50995   1.52848
   10  H   0.85673
   11  H   0.87949
   12  H   0.86592
   13  H   0.86347
   14  H   0.83671
   15  H   0.85132
   16  H   0.85050
   17  H   0.85242
   18  H   0.85080
   19  H   0.86107

 **********************
 *                    *
 * JOB ENDED NORMALLY *
 *                    *
 **********************



 TOTAL JOB TIME:             1.29 SECONDS

 == MOPAC DONE ==
