 *******************************************************************************
 **                                                                           **
 **                              MOPAC v23.2                                  **
 **                                                                           **
 *******************************************************************************
 **          Digital Object Identifier (DOI): 10.5281/zenodo.6511958          **
 **    Visit the DOI location for information on how to cite this program.    **
 *******************************************************************************

                              PM7 CALCULATION RESULTS

 *******************************************************************************
 *  CALCULATION DONE: (MAX THREADS = 40)             Fri Sep 19 21:31:41 2025  *
 *  PM7        - The PM7 Hamiltonian to be used
 *
 *
 *
 *                 CHARGE ON SYSTEM = +1
 *
 *
 *
 *  EPS=37.5   - USE ANDREAS KLAMT'S COSMO IMPLICIT SOLVATION MODEL
 *  1SCF       - DO 1 SCF AND THEN STOP 
 *  T=         - A TIME OF 172800.0 SECONDS REQUESTED
 *  DUMP=N     - RESTART FILE WRITTEN EVERY 7200.0 SECONDS REQUESTED
 *  RELSCF     - DEFAULT SCF CRITERION MULTIPLIED BY 0.0001
 *              (DEFAULT SCF CRITERION = 0.00010)
 *  GRADIENTS  - ALL GRADIENTS TO BE PRINTED
 *  DISP       - PRINT DISPERSION AND HYDROGEN BOND ENERGIES
 *******************************************************************************
PM7 1SCF GRADIENTS EPS=37.5 DISP RELSCF=0.0001 CHARGE=1
 Title: ASE calculation

   ATOM   CHEMICAL          X               Y               Z
  NUMBER   SYMBOL      (ANGSTROMS)     (ANGSTROMS)     (ANGSTROMS)

     1       C         -2.59149798  *  -0.66948110  *   0.49792375  *
     2       C         -1.29134876  *  -1.36315069  *   0.12647699  *
     3       N         -0.36358910  *  -0.49329255  *  -0.48252397  *
     4       C         -0.01277369  *   0.89380442  *  -0.66529833  *
     5       C         -0.22873368  *   1.85945315  *   0.45286861  *
     6       C          1.04927467  *  -0.25467391  *  -0.59487389  *
     7       C          1.91193617  *  -0.44586735  *   0.61515863  *
     8       C          2.40596891  *  -1.79232815  *   1.01117185  *
     9       O          1.29709841  *  -1.17139545  *   1.67569750  *
    10       H         -2.45429903  *   0.10705158  *   1.26458323  *
    11       H         -3.09611030  *  -0.20513256  *  -0.36251785  *
    12       H         -3.31220688  *  -1.39321771  *   0.92225643  *
    13       H         -1.48480072  *  -2.22990311  *  -0.58209466  *
    14       H         -0.81118667  *  -1.85897441  *   1.03275609  *
    15       H         -0.21369671  *   1.32281577  *  -1.67569750  *
    16       H         -0.13321959  *   1.41714103  *   1.45822320  *
    17       H         -1.22300509  *   2.34061833  *   0.40468660  *
    18       H          0.50805654  *   2.68575227  *   0.40879950  *
    19       H          1.55345584  *  -0.54966575  *  -1.54343907  *
    20       H          2.45867825  *   0.46326650  *   0.91604467  *
    21       H          2.16991610  *  -2.68575227  *   0.43590495  *
    22       H          3.31220688  *  -1.89210371  *   1.61901156  *



          CARTESIAN COORDINATES 

    NO.       ATOM           X           Y           Z

     1         C         -2.5915     -0.6695      0.4979
     2         C         -1.2913     -1.3632      0.1265
     3         N         -0.3636     -0.4933     -0.4825
     4         C         -0.0128      0.8938     -0.6653
     5         C         -0.2287      1.8595      0.4529
     6         C          1.0493     -0.2547     -0.5949
     7         C          1.9119     -0.4459      0.6152
     8         C          2.4060     -1.7923      1.0112
     9         O          1.2971     -1.1714      1.6757
    10         H         -2.4543      0.1071      1.2646
    11         H         -3.0961     -0.2051     -0.3625
    12         H         -3.3122     -1.3932      0.9223
    13         H         -1.4848     -2.2299     -0.5821
    14         H         -0.8112     -1.8590      1.0328
    15         H         -0.2137      1.3228     -1.6757
    16         H         -0.1332      1.4171      1.4582
    17         H         -1.2230      2.3406      0.4047
    18         H          0.5081      2.6858      0.4088
    19         H          1.5535     -0.5497     -1.5434
    20         H          2.4587      0.4633      0.9160
    21         H          2.1699     -2.6858      0.4359
    22         H          3.3122     -1.8921      1.6190

 General Reference for PM7:
 "Optimization of Parameters for Semiempirical Methods VI: More Modifications to the 
 NDDO Approximations and Re-optimization of Parameters", J. J. P. Stewart, J. Mol. Mod., 1:32, 19 (2013)
 https://link.springer.com/article/10.1007/s00894-012-1667-x

           Empirical Formula: C7 H13 N O  =    22 atoms



      MOLECULAR POINT GROUP   :   C1  


          UHF CALCULATION, NO. OF ALPHA ELECTRONS =   26
                           NO. OF BETA  ELECTRONS =   25
  SCF CRITERION =    0.1000E-07

 -------------------------------------------------------------------------------
 PM7 1SCF GRADIENTS EPS=37.5 DISP RELSCF=0.0001 CHARGE=1
 Title: ASE calculation



     1SCF WAS SPECIFIED, SO BFGS WAS NOT USED                 
     SCF FIELD WAS ACHIEVED                                   


                              PM7 CALCULATION
                                                       MOPAC v23.2 Linux
                                                       Fri Sep 19 21:31:42 2025




          FINAL HEAT OF FORMATION =        143.19492 KCAL/MOL =     599.12753 KJ/MOL

          TOTAL ENERGY            =     -34793.15643 KCAL/MOL = ELECTRONIC ENERGY + CORE-CORE REPULSION + SOLVATION ENERGY
          ENERGY OF ATOMS         =      34938.70333 KCAL/MOL
                              SUM =        145.54690 KCAL/MOL
          DISPERSION ENERGY       =         -2.35198 KCAL/MOL
                              SUM =        143.19492 KCAL/MOL = FINAL HEAT OF FORMATION

          VAN DER WAALS AREA      =        172.52 SQUARE ANGSTROMS


          TOTAL ENERGY            =      -1508.77406 EV
          ELECTRONIC ENERGY       =      -2417.33488 EV 
          CORE-CORE REPULSION     =        908.56082 EV

          DIELECTRIC ENERGY       =         -2.19366 EV
          COSMO AREA              =        172.52 SQUARE ANGSTROMS
          COSMO VOLUME            =        176.53 CUBIC ANGSTROMS

          GRADIENT NORM           =         10.60025          =       2.25998 PER ATOM
          IONIZATION POTENTIAL    =         11.226524 EV
          ALPHA SOMO LUMO (EV)    =        -11.227 -0.326
          BETA  SOMO LUMO (EV)    =        -11.460 -2.310
          NO. OF ALPHA ELECTRONS  =         26
          NO. OF BETA  ELECTRONS  =         25
          MOLECULAR WEIGHT        =        127.1858         POINT GROUP:  C1  

          MOLECULAR DIMENSIONS (Angstroms)

            Atom       Atom       Distance
            H    22    H    11     6.91656
            H    18    H    13     5.31503
            H    19    H    12     3.90390


          SCF CALCULATIONS        =          2

          WALL-CLOCK TIME         =      0.734 SECONDS
          COMPUTATION TIME        =      0.286 SECONDS

          LARGEST ATOMIC GRADIENTS

          Atom     Label                     Cartesian Gradients           Cartesian Coordinates       |Gradient|
                                           X          Y          Z        X          Y          Z

             9       O                   1.590      0.667     -4.929    1.29710   -1.17140    1.67570      5.222
             6       C                   1.537     -0.562     -3.418    1.04927   -0.25467   -0.59487      3.789
             7       C                  -0.328     -0.393      3.309    1.91194   -0.44587    0.61516      3.348
             2       C                  -1.368     -2.814     -0.852   -1.29135   -1.36315    0.12648      3.243
             1       C                   2.444      0.470     -1.609   -2.59150   -0.66948    0.49792      2.964
            14       H                   0.918      0.379      2.174   -0.81119   -1.85897    1.03276      2.390
             5       C                  -0.156     -1.028     -1.790   -0.22873    1.85945    0.45287      2.071
             4       C                  -0.111      1.797     -0.984   -0.01277    0.89380   -0.66530      2.052
             8       C                  -1.929     -0.422      0.451    2.40597   -1.79233    1.01117      2.025
            22       H                   1.283     -0.228      1.146    3.31221   -1.89210    1.61901      1.735



       FINAL  POINT  AND  DERIVATIVES

   PARAMETER     ATOM    TYPE            VALUE        GRADIENT
      1          1  C    CARTESIAN X    -2.591498      2.444467  KCAL/ANGSTROM
      2          1  C    CARTESIAN Y    -0.669481      0.470357  KCAL/ANGSTROM
      3          1  C    CARTESIAN Z     0.497924     -1.608635  KCAL/ANGSTROM
      4          2  C    CARTESIAN X    -1.291349     -1.368062  KCAL/ANGSTROM
      5          2  C    CARTESIAN Y    -1.363151     -2.814282  KCAL/ANGSTROM
      6          2  C    CARTESIAN Z     0.126477     -0.852015  KCAL/ANGSTROM
      7          3  N    CARTESIAN X    -0.363589      0.207775  KCAL/ANGSTROM
      8          3  N    CARTESIAN Y    -0.493293     -0.660087  KCAL/ANGSTROM
      9          3  N    CARTESIAN Z    -0.482524     -1.220511  KCAL/ANGSTROM
     10          4  C    CARTESIAN X    -0.012774     -0.111185  KCAL/ANGSTROM
     11          4  C    CARTESIAN Y     0.893804      1.796989  KCAL/ANGSTROM
     12          4  C    CARTESIAN Z    -0.665298     -0.983955  KCAL/ANGSTROM
     13          5  C    CARTESIAN X    -0.228734     -0.156013  KCAL/ANGSTROM
     14          5  C    CARTESIAN Y     1.859453     -1.028350  KCAL/ANGSTROM
     15          5  C    CARTESIAN Z     0.452869     -1.790500  KCAL/ANGSTROM
     16          6  C    CARTESIAN X     1.049275      1.536805  KCAL/ANGSTROM
     17          6  C    CARTESIAN Y    -0.254674     -0.562017  KCAL/ANGSTROM
     18          6  C    CARTESIAN Z    -0.594874     -3.417930  KCAL/ANGSTROM
     19          7  C    CARTESIAN X     1.911936     -0.327622  KCAL/ANGSTROM
     20          7  C    CARTESIAN Y    -0.445867     -0.393054  KCAL/ANGSTROM
     21          7  C    CARTESIAN Z     0.615159      3.309166  KCAL/ANGSTROM
     22          8  C    CARTESIAN X     2.405969     -1.928811  KCAL/ANGSTROM
     23          8  C    CARTESIAN Y    -1.792328     -0.422418  KCAL/ANGSTROM
     24          8  C    CARTESIAN Z     1.011172      0.451151  KCAL/ANGSTROM
     25          9  O    CARTESIAN X     1.297098      1.589758  KCAL/ANGSTROM
     26          9  O    CARTESIAN Y    -1.171395      0.666795  KCAL/ANGSTROM
     27          9  O    CARTESIAN Z     1.675698     -4.929075  KCAL/ANGSTROM
     28         10  H    CARTESIAN X    -2.454299     -0.690488  KCAL/ANGSTROM
     29         10  H    CARTESIAN Y     0.107052     -0.254864  KCAL/ANGSTROM
     30         10  H    CARTESIAN Z     1.264583      0.886021  KCAL/ANGSTROM
     31         11  H    CARTESIAN X    -3.096110     -1.460046  KCAL/ANGSTROM
     32         11  H    CARTESIAN Y    -0.205133     -0.037089  KCAL/ANGSTROM
     33         11  H    CARTESIAN Z    -0.362518      0.381708  KCAL/ANGSTROM
     34         12  H    CARTESIAN X    -3.312207     -1.308880  KCAL/ANGSTROM
     35         12  H    CARTESIAN Y    -1.393218      0.040234  KCAL/ANGSTROM
     36         12  H    CARTESIAN Z     0.922256      0.736799  KCAL/ANGSTROM
     37         13  H    CARTESIAN X    -1.484801     -1.025625  KCAL/ANGSTROM
     38         13  H    CARTESIAN Y    -2.229903      0.713765  KCAL/ANGSTROM
     39         13  H    CARTESIAN Z    -0.582095      0.188233  KCAL/ANGSTROM
     40         14  H    CARTESIAN X    -0.811187      0.917859  KCAL/ANGSTROM
     41         14  H    CARTESIAN Y    -1.858974      0.378855  KCAL/ANGSTROM
     42         14  H    CARTESIAN Z     1.032756      2.174172  KCAL/ANGSTROM
     43         15  H    CARTESIAN X    -0.213697     -0.071165  KCAL/ANGSTROM
     44         15  H    CARTESIAN Y     1.322816      0.335636  KCAL/ANGSTROM
     45         15  H    CARTESIAN Z    -1.675698      1.090074  KCAL/ANGSTROM
     46         16  H    CARTESIAN X    -0.133220      0.136890  KCAL/ANGSTROM
     47         16  H    CARTESIAN Y     1.417141      0.095162  KCAL/ANGSTROM
     48         16  H    CARTESIAN Z     1.458223      1.168129  KCAL/ANGSTROM
     49         17  H    CARTESIAN X    -1.223005     -0.284299  KCAL/ANGSTROM
     50         17  H    CARTESIAN Y     2.340618      1.163347  KCAL/ANGSTROM
     51         17  H    CARTESIAN Z     0.404687      0.296104  KCAL/ANGSTROM
     52         18  H    CARTESIAN X     0.508057     -0.223044  KCAL/ANGSTROM
     53         18  H    CARTESIAN Y     2.685752      0.835402  KCAL/ANGSTROM
     54         18  H    CARTESIAN Z     0.408799      0.694630  KCAL/ANGSTROM
     55         19  H    CARTESIAN X     1.553456      0.036245  KCAL/ANGSTROM
     56         19  H    CARTESIAN Y    -0.549666      0.161636  KCAL/ANGSTROM
     57         19  H    CARTESIAN Z    -1.543439      1.556607  KCAL/ANGSTROM
     58         20  H    CARTESIAN X     2.458678     -0.076696  KCAL/ANGSTROM
     59         20  H    CARTESIAN Y     0.463266     -0.532582  KCAL/ANGSTROM
     60         20  H    CARTESIAN Z     0.916045      0.069854  KCAL/ANGSTROM
     61         21  H    CARTESIAN X     2.169916      0.879538  KCAL/ANGSTROM
     62         21  H    CARTESIAN Y    -2.685752      0.274693  KCAL/ANGSTROM
     63         21  H    CARTESIAN Z     0.435905      0.654331  KCAL/ANGSTROM
     64         22  H    CARTESIAN X     3.312207      1.282599  KCAL/ANGSTROM
     65         22  H    CARTESIAN Y    -1.892104     -0.228134  KCAL/ANGSTROM
     66         22  H    CARTESIAN Z     1.619012      1.145636  KCAL/ANGSTROM




   ATOM   CHEMICAL          X               Y               Z
  NUMBER   SYMBOL      (ANGSTROMS)     (ANGSTROMS)     (ANGSTROMS)

     1       C         -2.59149798  *  -0.66948110  *   0.49792375  *
     2       C         -1.29134876  *  -1.36315069  *   0.12647699  *
     3       N         -0.36358910  *  -0.49329255  *  -0.48252397  *
     4       C         -0.01277369  *   0.89380442  *  -0.66529833  *
     5       C         -0.22873368  *   1.85945315  *   0.45286861  *
     6       C          1.04927467  *  -0.25467391  *  -0.59487389  *
     7       C          1.91193617  *  -0.44586735  *   0.61515863  *
     8       C          2.40596891  *  -1.79232815  *   1.01117185  *
     9       O          1.29709841  *  -1.17139545  *   1.67569750  *
    10       H         -2.45429903  *   0.10705158  *   1.26458323  *
    11       H         -3.09611030  *  -0.20513256  *  -0.36251785  *
    12       H         -3.31220688  *  -1.39321771  *   0.92225643  *
    13       H         -1.48480072  *  -2.22990311  *  -0.58209466  *
    14       H         -0.81118667  *  -1.85897441  *   1.03275609  *
    15       H         -0.21369671  *   1.32281577  *  -1.67569750  *
    16       H         -0.13321959  *   1.41714103  *   1.45822320  *
    17       H         -1.22300509  *   2.34061833  *   0.40468660  *
    18       H          0.50805654  *   2.68575227  *   0.40879950  *
    19       H          1.55345584  *  -0.54966575  *  -1.54343907  *
    20       H          2.45867825  *   0.46326650  *   0.91604467  *
    21       H          2.16991610  *  -2.68575227  *   0.43590495  *
    22       H          3.31220688  *  -1.89210371  *   1.61901156  *

                             CARTESIAN COORDINATES

   1    C       -2.591497982    -0.669481103     0.497923746
   2    C       -1.291348759    -1.363150690     0.126476989
   3    N       -0.363589096    -0.493292555    -0.482523973
   4    C       -0.012773687     0.893804419    -0.665298327
   5    C       -0.228733678     1.859453151     0.452868606
   6    C        1.049274667    -0.254673906    -0.594873887
   7    C        1.911936175    -0.445867354     0.615158627
   8    C        2.405968907    -1.792328153     1.011171846
   9    O        1.297098414    -1.171395448     1.675697501
  10    H       -2.454299034     0.107051584     1.264583227
  11    H       -3.096110297    -0.205132563    -0.362517851
  12    H       -3.312206879    -1.393217715     0.922256426
  13    H       -1.484800715    -2.229903115    -0.582094661
  14    H       -0.811186669    -1.858974408     1.032756090
  15    H       -0.213696715     1.322815769    -1.675697501
  16    H       -0.133219591     1.417141030     1.458223199
  17    H       -1.223005087     2.340618332     0.404686599
  18    H        0.508056544     2.685752269     0.408799498
  19    H        1.553455842    -0.549665748    -1.543439071
  20    H        2.458678249     0.463266497     0.916044669
  21    H        2.169916097    -2.685752269     0.435904947
  22    H        3.312206879    -1.892103708     1.619011562


           Empirical Formula: C7 H13 N O  =    22 atoms



      MOLECULAR POINT GROUP   :   C1  


          ALPHA EIGENVALUES  
 -39.43361 -32.58914 -29.57343 -27.02533 -25.76116 -24.22800 -23.21854 -20.95549
 -20.41879 -19.03135 -18.08133 -17.48921 -16.63473 -16.19333 -15.65927 -14.94234
 -14.78787 -14.37227 -13.96375 -13.45232 -13.38291 -13.08472 -12.98212 -12.19562
 -11.72907 -11.22652  -0.32554   0.62166   1.34747   1.68279   2.10152   2.54872
   3.10342   3.29406   3.39738   3.59986   4.18894   4.42000   4.55780   4.80399
   4.85775   5.07343   5.12321   5.24341   5.27465   5.34012   5.37828   6.23333
   6.44849


           BETA EIGENVALUES 
 -38.00309 -32.55963 -29.32572 -26.86222 -25.64482 -24.09582 -23.11562 -20.72946
 -20.26182 -18.31917 -17.82085 -17.40757 -16.35739 -15.92883 -15.53051 -14.91153
 -14.67572 -14.24349 -13.86807 -13.35105 -12.99790 -12.89658 -12.83334 -12.02594
 -11.45952  -2.31048   0.30421   0.77308   1.41897   1.69023   2.22141   2.63645
   3.14191   3.40666   3.43859   4.04903   4.36348   4.52396   4.60330   4.81939
   4.98385   5.09337   5.13090   5.24555   5.28016   5.35194   5.37953   6.23557
   6.44956


              NET ATOMIC CHARGES AND DIPOLE CONTRIBUTIONS

  ATOM NO.   TYPE          CHARGE      No. of ELECS.   s-Pop       p-Pop       
    1          C          -0.466296        4.4663     1.05590     3.41039
    2          C          -0.108344        4.1083     1.07631     3.03203
    3          N          -0.036955        5.0370     1.57087     3.46608
    4          C           0.030445        3.9696     1.09746     2.87210
    5          C          -0.477824        4.4778     1.05370     3.42413
    6          C          -0.085567        4.0856     1.10064     2.98492
    7          C           0.000821        3.9992     1.08529     2.91389
    8          C          -0.096643        4.0966     1.10048     2.99616
    9          O          -0.392456        6.3925     1.91863     4.47383
   10          H           0.172059        0.8279     0.82794
   11          H           0.179696        0.8203     0.82030
   12          H           0.191519        0.8085     0.80848
   13          H           0.237649        0.7624     0.76235
   14          H           0.228747        0.7713     0.77125
   15          H           0.232501        0.7675     0.76750
   16          H           0.181386        0.8186     0.81861
   17          H           0.195056        0.8049     0.80494
   18          H           0.203233        0.7968     0.79677
   19          H           0.245862        0.7541     0.75414
   20          H           0.205228        0.7948     0.79477
   21          H           0.176998        0.8230     0.82300
   22          H           0.182886        0.8171     0.81711
 DIPOLE           X         Y         Z       TOTAL
 POINT-CHG.    -0.299     0.600    -4.088     4.142
 HYBRID        -0.656    -0.321     0.377     0.822
 SUM           -0.955     0.279    -3.710     3.841


          ATOMIC ORBITAL ELECTRON POPULATIONS

     Atom    s        px        py        pz   
    1  C   1.05590   1.04255   1.17267   1.19517
    2  C   1.07631   0.94242   0.98622   1.10339
    3  N   1.57087   1.13901   1.17550   1.15157
    4  C   1.09746   0.93278   0.81880   1.12052
    5  C   1.05370   1.22157   1.11830   1.08426
    6  C   1.10064   0.84083   1.02250   1.12159
    7  C   1.08529   1.00067   1.04090   0.87232
    8  C   1.10048   0.96287   1.00764   1.02565
    9  O   1.91863   1.49995   1.46852   1.50536
   10  H   0.82794
   11  H   0.82030
   12  H   0.80848
   13  H   0.76235
   14  H   0.77125
   15  H   0.76750
   16  H   0.81861
   17  H   0.80494
   18  H   0.79677
   19  H   0.75414
   20  H   0.79477
   21  H   0.82300
   22  H   0.81711


                    (SZ)    =    0.500000
                    (S**2)  =    0.761569


          ATOMIC ORBITAL SPIN POPULATIONS

    Atom   Total    s     px     py     pz   
         Atomic
    1  C  0.0047  0.001  0.002  0.000  0.001
    2  C -0.0219 -0.006 -0.019 -0.028  0.031
    3  N  0.9099  0.052  0.075  0.094  0.689
    4  C -0.0450 -0.004 -0.008 -0.026 -0.007
    5  C  0.0260  0.004 -0.000  0.012  0.010
    6  C -0.0428 -0.005 -0.031  0.001 -0.008
    7  C  0.0280  0.003  0.011  0.000  0.014
    8  C -0.0015 -0.000 -0.000 -0.001 -0.000
    9  O  0.0001  0.000  0.001 -0.000 -0.001
   10  H  0.0000  0.000
   11  H  0.0009  0.001
   12  H -0.0013 -0.001
   13  H  0.0494  0.049
   14  H  0.0491  0.049
   15  H  0.0218  0.022
   16  H -0.0014 -0.001
   17  H -0.0007 -0.001
   18  H -0.0003 -0.000
   19  H  0.0220  0.022
   20  H  0.0027  0.003
   21  H  0.0001  0.000
   22  H  0.0001  0.000

 **********************
 *                    *
 * JOB ENDED NORMALLY *
 *                    *
 **********************



 TOTAL JOB TIME:             1.08 SECONDS

 == MOPAC DONE ==
