 *******************************************************************************
 **                                                                           **
 **                              MOPAC v23.2                                  **
 **                                                                           **
 *******************************************************************************
 **          Digital Object Identifier (DOI): 10.5281/zenodo.6511958          **
 **    Visit the DOI location for information on how to cite this program.    **
 *******************************************************************************

                              PM7 CALCULATION RESULTS

 *******************************************************************************
 *  CALCULATION DONE: (MAX THREADS = 40)             Fri Sep 19 21:36:55 2025  *
 *  PM7        - The PM7 Hamiltonian to be used
 *
 *
 *
 *                 CHARGE ON SYSTEM = +1
 *
 *
 *
 *  EPS=37.5   - USE ANDREAS KLAMT'S COSMO IMPLICIT SOLVATION MODEL
 *  1SCF       - DO 1 SCF AND THEN STOP 
 *  T=         - A TIME OF 172800.0 SECONDS REQUESTED
 *  DUMP=N     - RESTART FILE WRITTEN EVERY 7200.0 SECONDS REQUESTED
 *  RELSCF     - DEFAULT SCF CRITERION MULTIPLIED BY 0.0001
 *              (DEFAULT SCF CRITERION = 0.00010)
 *  GRADIENTS  - ALL GRADIENTS TO BE PRINTED
 *  DISP       - PRINT DISPERSION AND HYDROGEN BOND ENERGIES
 *******************************************************************************
PM7 1SCF GRADIENTS EPS=37.5 DISP RELSCF=0.0001 CHARGE=1
 Title: ASE calculation

   ATOM   CHEMICAL          X               Y               Z
  NUMBER   SYMBOL      (ANGSTROMS)     (ANGSTROMS)     (ANGSTROMS)

     1       O          2.17546890  *  -1.55050970  *  -1.42209227  *
     2       C          1.63916767  *  -1.38440864  *  -0.11636785  *
     3       C          1.01347540  *   0.01436994  *  -0.04788816  *
     4       C          0.11486440  *   0.24337401  *   1.17906687  *
     5       C         -1.07799007  *   1.12655891  *   0.69221965  *
     6       C         -1.14082869  *   0.96307910  *  -0.85261141  *
     7       C          0.09396192  *   0.25515911  *  -1.20165161  *
     8       O          0.33133330  *  -0.14698440  *  -2.38473650  *
     9       C         -2.31153831  *   0.72307442  *   1.37154856  *
    10       H          3.13871505  *  -1.33793157  *  -1.47193726  *
    11       H          0.88953550  *  -2.20237616  *  -0.04090298  *
    12       H          2.41746697  *  -1.54160956  *   0.65459053  *
    13       H          1.83485020  *   0.78816062  *  -0.05951441  *
    14       H          0.65533799  *   0.73516700  *   2.00900099  *
    15       H         -0.25521098  *  -0.71233653  *   1.59995874  *
    16       H         -0.85757251  *   2.20237616  *   0.93462855  *
    17       H         -1.26496957  *   1.94319550  *  -1.37499177  *
    18       H         -2.05825204  *   0.40975568  *  -1.18208111  *
    19       H          1.21864382  *  -0.78144436  *  -2.42495306  *
    20       H         -3.13871505  *   0.28400445  *   0.86040256  *
    21       H         -2.42467040  *   0.87811547  *   2.42495306  *



          CARTESIAN COORDINATES 

    NO.       ATOM           X           Y           Z

     1         O          2.1755     -1.5505     -1.4221
     2         C          1.6392     -1.3844     -0.1164
     3         C          1.0135      0.0144     -0.0479
     4         C          0.1149      0.2434      1.1791
     5         C         -1.0780      1.1266      0.6922
     6         C         -1.1408      0.9631     -0.8526
     7         C          0.0940      0.2552     -1.2017
     8         O          0.3313     -0.1470     -2.3847
     9         C         -2.3115      0.7231      1.3715
    10         H          3.1387     -1.3379     -1.4719
    11         H          0.8895     -2.2024     -0.0409
    12         H          2.4175     -1.5416      0.6546
    13         H          1.8349      0.7882     -0.0595
    14         H          0.6553      0.7352      2.0090
    15         H         -0.2552     -0.7123      1.6000
    16         H         -0.8576      2.2024      0.9346
    17         H         -1.2650      1.9432     -1.3750
    18         H         -2.0583      0.4098     -1.1821
    19         H          1.2186     -0.7814     -2.4250
    20         H         -3.1387      0.2840      0.8604
    21         H         -2.4247      0.8781      2.4250

 General Reference for PM7:
 "Optimization of Parameters for Semiempirical Methods VI: More Modifications to the 
 NDDO Approximations and Re-optimization of Parameters", J. J. P. Stewart, J. Mol. Mod., 1:32, 19 (2013)
 https://link.springer.com/article/10.1007/s00894-012-1667-x

           Empirical Formula: C7 H12 O2  =    21 atoms



      MOLECULAR POINT GROUP   :   C1  


          UHF CALCULATION, NO. OF ALPHA ELECTRONS =   26
                           NO. OF BETA  ELECTRONS =   25
  SCF CRITERION =    0.1000E-07

 -------------------------------------------------------------------------------
 PM7 1SCF GRADIENTS EPS=37.5 DISP RELSCF=0.0001 CHARGE=1
 Title: ASE calculation



     1SCF WAS SPECIFIED, SO BFGS WAS NOT USED                 
     SCF FIELD WAS ACHIEVED                                   


                              PM7 CALCULATION
                                                       MOPAC v23.2 Linux
                                                       Fri Sep 19 21:36:57 2025




          FINAL HEAT OF FORMATION =         41.25932 KCAL/MOL =     172.62901 KJ/MOL

          TOTAL ENERGY            =     -37051.65269 KCAL/MOL = ELECTRONIC ENERGY + CORE-CORE REPULSION + SOLVATION ENERGY
          ENERGY OF ATOMS         =      37097.27293 KCAL/MOL
                              SUM =         45.62024 KCAL/MOL
          DISPERSION ENERGY       =         -2.04264 KCAL/MOL
          H-BOND ENERGY           =         -2.31828 KCAL/MOL
                              SUM =         41.25932 KCAL/MOL = FINAL HEAT OF FORMATION

          No. OF HYDROGEN BONDS   =          1       (H-bond Energy < -1.0 Kcal/mol)
          VAN DER WAALS AREA      =        166.46 SQUARE ANGSTROMS


          TOTAL ENERGY            =      -1606.71173 EV
          ELECTRONIC ENERGY       =      -2376.30045 EV 
          CORE-CORE REPULSION     =        769.58872 EV

          DIELECTRIC ENERGY       =         -2.39934 EV
          COSMO AREA              =        166.46 SQUARE ANGSTROMS
          COSMO VOLUME            =        165.09 CUBIC ANGSTROMS

          GRADIENT NORM           =         13.84970          =       3.02225 PER ATOM
          IONIZATION POTENTIAL    =          9.697392 EV
          ALPHA SOMO LUMO (EV)    =         -9.697 -1.278
          BETA  SOMO LUMO (EV)    =        -11.917 -1.278
          NO. OF ALPHA ELECTRONS  =         26
          NO. OF BETA  ELECTRONS  =         25
          MOLECULAR WEIGHT        =        128.1706         POINT GROUP:  C1  

          MOLECULAR DIMENSIONS (Angstroms)

            Atom       Atom       Distance
            H    21    H    10     7.14478
            H    17    H    12     4.66375
            H    14    H    11     2.82409


          SCF CALCULATIONS        =          2

          WALL-CLOCK TIME         =      2.734 SECONDS
          COMPUTATION TIME        =      0.708 SECONDS

          LARGEST ATOMIC GRADIENTS

          Atom     Label                     Cartesian Gradients           Cartesian Coordinates       |Gradient|
                                           X          Y          Z        X          Y          Z

             1       O                   2.685      7.235     -1.455    2.17547   -1.55051   -1.42209      7.853
            10       H                  -1.712     -4.775      0.586    3.13872   -1.33793   -1.47194      5.107
             3       C                   4.033      2.940     -1.035    1.01348    0.01437   -0.04789      5.097
             6       C                   2.232      0.043     -2.984   -1.14083    0.96308   -0.85261      3.727
             7       C                  -2.975     -0.461     -0.738    0.09396    0.25516   -1.20165      3.099
            19       H                  -2.811     -1.264     -0.176    1.21864   -0.78144   -2.42495      3.087
             8       O                   2.669     -1.097     -0.670    0.33133   -0.14698   -2.38474      2.962
             9       C                   1.323     -1.455     -1.473   -2.31154    0.72307    1.37155      2.457
            13       H                  -1.331     -1.124      1.646    1.83485    0.78816   -0.05951      2.397
             5       C                   0.838      1.030      1.473   -1.07799    1.12656    0.69222      1.983



       FINAL  POINT  AND  DERIVATIVES

   PARAMETER     ATOM    TYPE            VALUE        GRADIENT
      1          1  O    CARTESIAN X     2.175469      2.685173  KCAL/ANGSTROM
      2          1  O    CARTESIAN Y    -1.550510      7.235134  KCAL/ANGSTROM
      3          1  O    CARTESIAN Z    -1.422092     -1.455120  KCAL/ANGSTROM
      4          2  C    CARTESIAN X     1.639168      1.213173  KCAL/ANGSTROM
      5          2  C    CARTESIAN Y    -1.384409     -0.142550  KCAL/ANGSTROM
      6          2  C    CARTESIAN Z    -0.116368      0.231125  KCAL/ANGSTROM
      7          3  C    CARTESIAN X     1.013475      4.032730  KCAL/ANGSTROM
      8          3  C    CARTESIAN Y     0.014370      2.939983  KCAL/ANGSTROM
      9          3  C    CARTESIAN Z    -0.047888     -1.035324  KCAL/ANGSTROM
     10          4  C    CARTESIAN X     0.114864      0.658203  KCAL/ANGSTROM
     11          4  C    CARTESIAN Y     0.243374     -0.139476  KCAL/ANGSTROM
     12          4  C    CARTESIAN Z     1.179067     -1.106410  KCAL/ANGSTROM
     13          5  C    CARTESIAN X    -1.077990      0.838463  KCAL/ANGSTROM
     14          5  C    CARTESIAN Y     1.126559      1.030179  KCAL/ANGSTROM
     15          5  C    CARTESIAN Z     0.692220      1.473024  KCAL/ANGSTROM
     16          6  C    CARTESIAN X    -1.140829      2.231977  KCAL/ANGSTROM
     17          6  C    CARTESIAN Y     0.963079      0.043262  KCAL/ANGSTROM
     18          6  C    CARTESIAN Z    -0.852611     -2.983923  KCAL/ANGSTROM
     19          7  C    CARTESIAN X     0.093962     -2.974542  KCAL/ANGSTROM
     20          7  C    CARTESIAN Y     0.255159     -0.461392  KCAL/ANGSTROM
     21          7  C    CARTESIAN Z    -1.201652     -0.737647  KCAL/ANGSTROM
     22          8  O    CARTESIAN X     0.331333      2.668740  KCAL/ANGSTROM
     23          8  O    CARTESIAN Y    -0.146984     -1.096915  KCAL/ANGSTROM
     24          8  O    CARTESIAN Z    -2.384736     -0.669877  KCAL/ANGSTROM
     25          9  C    CARTESIAN X    -2.311538      1.323467  KCAL/ANGSTROM
     26          9  C    CARTESIAN Y     0.723074     -1.455235  KCAL/ANGSTROM
     27          9  C    CARTESIAN Z     1.371549     -1.473092  KCAL/ANGSTROM
     28         10  H    CARTESIAN X     3.138715     -1.711671  KCAL/ANGSTROM
     29         10  H    CARTESIAN Y    -1.337932     -4.775427  KCAL/ANGSTROM
     30         10  H    CARTESIAN Z    -1.471937      0.586208  KCAL/ANGSTROM
     31         11  H    CARTESIAN X     0.889536      0.204204  KCAL/ANGSTROM
     32         11  H    CARTESIAN Y    -2.202376     -1.314087  KCAL/ANGSTROM
     33         11  H    CARTESIAN Z    -0.040903     -0.242242  KCAL/ANGSTROM
     34         12  H    CARTESIAN X     2.417467     -0.162904  KCAL/ANGSTROM
     35         12  H    CARTESIAN Y    -1.541610     -1.178982  KCAL/ANGSTROM
     36         12  H    CARTESIAN Z     0.654591      1.102156  KCAL/ANGSTROM
     37         13  H    CARTESIAN X     1.834850     -1.331214  KCAL/ANGSTROM
     38         13  H    CARTESIAN Y     0.788161     -1.124440  KCAL/ANGSTROM
     39         13  H    CARTESIAN Z    -0.059514      1.646190  KCAL/ANGSTROM
     40         14  H    CARTESIAN X     0.655338     -0.269710  KCAL/ANGSTROM
     41         14  H    CARTESIAN Y     0.735167      0.079428  KCAL/ANGSTROM
     42         14  H    CARTESIAN Z     2.009001      1.129820  KCAL/ANGSTROM
     43         15  H    CARTESIAN X    -0.255211     -0.711731  KCAL/ANGSTROM
     44         15  H    CARTESIAN Y    -0.712337      0.207037  KCAL/ANGSTROM
     45         15  H    CARTESIAN Z     1.599959      0.858305  KCAL/ANGSTROM
     46         16  H    CARTESIAN X    -0.857573     -0.727787  KCAL/ANGSTROM
     47         16  H    CARTESIAN Y     2.202376      0.295406  KCAL/ANGSTROM
     48         16  H    CARTESIAN Z     0.934629      0.751542  KCAL/ANGSTROM
     49         17  H    CARTESIAN X    -1.264970     -1.497319  KCAL/ANGSTROM
     50         17  H    CARTESIAN Y     1.943195      0.170764  KCAL/ANGSTROM
     51         17  H    CARTESIAN Z    -1.374992      0.147029  KCAL/ANGSTROM
     52         18  H    CARTESIAN X    -2.058252     -1.337639  KCAL/ANGSTROM
     53         18  H    CARTESIAN Y     0.409756      0.221551  KCAL/ANGSTROM
     54         18  H    CARTESIAN Z    -1.182081      0.131276  KCAL/ANGSTROM
     55         19  H    CARTESIAN X     1.218644     -2.811055  KCAL/ANGSTROM
     56         19  H    CARTESIAN Y    -0.781444     -1.263564  KCAL/ANGSTROM
     57         19  H    CARTESIAN Z    -2.424953     -0.176400  KCAL/ANGSTROM
     58         20  H    CARTESIAN X    -3.138715     -1.192151  KCAL/ANGSTROM
     59         20  H    CARTESIAN Y     0.284004     -0.017247  KCAL/ANGSTROM
     60         20  H    CARTESIAN Z     0.860403      0.901876  KCAL/ANGSTROM
     61         21  H    CARTESIAN X    -2.424670     -1.128214  KCAL/ANGSTROM
     62         21  H    CARTESIAN Y     0.878115      0.746744  KCAL/ANGSTROM
     63         21  H    CARTESIAN Z     2.424953      0.921443  KCAL/ANGSTROM




   ATOM   CHEMICAL          X               Y               Z
  NUMBER   SYMBOL      (ANGSTROMS)     (ANGSTROMS)     (ANGSTROMS)

     1       O          2.17546890  *  -1.55050970  *  -1.42209227  *
     2       C          1.63916767  *  -1.38440864  *  -0.11636785  *
     3       C          1.01347540  *   0.01436994  *  -0.04788816  *
     4       C          0.11486440  *   0.24337401  *   1.17906687  *
     5       C         -1.07799007  *   1.12655891  *   0.69221965  *
     6       C         -1.14082869  *   0.96307910  *  -0.85261141  *
     7       C          0.09396192  *   0.25515911  *  -1.20165161  *
     8       O          0.33133330  *  -0.14698440  *  -2.38473650  *
     9       C         -2.31153831  *   0.72307442  *   1.37154856  *
    10       H          3.13871505  *  -1.33793157  *  -1.47193726  *
    11       H          0.88953550  *  -2.20237616  *  -0.04090298  *
    12       H          2.41746697  *  -1.54160956  *   0.65459053  *
    13       H          1.83485020  *   0.78816062  *  -0.05951441  *
    14       H          0.65533799  *   0.73516700  *   2.00900099  *
    15       H         -0.25521098  *  -0.71233653  *   1.59995874  *
    16       H         -0.85757251  *   2.20237616  *   0.93462855  *
    17       H         -1.26496957  *   1.94319550  *  -1.37499177  *
    18       H         -2.05825204  *   0.40975568  *  -1.18208111  *
    19       H          1.21864382  *  -0.78144436  *  -2.42495306  *
    20       H         -3.13871505  *   0.28400445  *   0.86040256  *
    21       H         -2.42467040  *   0.87811547  *   2.42495306  *

                             CARTESIAN COORDINATES

   1    O        2.175468899    -1.550509704    -1.422092269
   2    C        1.639167669    -1.384408638    -0.116367846
   3    C        1.013475403     0.014369939    -0.047888155
   4    C        0.114864398     0.243374009     1.179066872
   5    C       -1.077990066     1.126558905     0.692219650
   6    C       -1.140828687     0.963079103    -0.852611412
   7    C        0.093961916     0.255159108    -1.201651614
   8    O        0.331333303    -0.146984399    -2.384736497
   9    C       -2.311538308     0.723074421     1.371548562
  10    H        3.138715048    -1.337931568    -1.471937260
  11    H        0.889535503    -2.202376161    -0.040902982
  12    H        2.417466970    -1.541609557     0.654590533
  13    H        1.834850200     0.788160617    -0.059514415
  14    H        0.655337992     0.735166999     2.009000993
  15    H       -0.255210979    -0.712336525     1.599958742
  16    H       -0.857572512     2.202376161     0.934628555
  17    H       -1.264969575     1.943195499    -1.374991772
  18    H       -2.058252035     0.409755681    -1.182081111
  19    H        1.218643815    -0.781444363    -2.424953063
  20    H       -3.138715048     0.284004447     0.860402555
  21    H       -2.424670398     0.878115467     2.424953063


           Empirical Formula: C7 H12 O2  =    21 atoms



      MOLECULAR POINT GROUP   :   C1  


          ALPHA EIGENVALUES  
 -33.44520 -31.41408 -30.22918 -27.32541 -26.10564 -23.83808 -22.27706 -21.16938
 -19.93149 -19.27667 -17.86338 -17.38850 -16.67176 -16.04855 -15.86050 -15.44480
 -14.82767 -14.56402 -13.88175 -13.63724 -13.38172 -12.88059 -12.56722 -12.11559
 -11.96330  -9.69739  -1.27830   0.78530   1.43848   2.10985   2.19360   2.86001
   3.06296   3.20223   3.59494   4.03640   4.27276   4.60175   4.64797   4.89810
   5.18779   5.25435   5.40951   5.48472   5.51222   5.89133   5.95204   6.11725


           BETA EIGENVALUES 
 -33.44337 -31.38693 -30.22312 -27.27289 -26.01820 -23.76342 -22.13629 -21.13994
 -19.84289 -19.23573 -17.85228 -17.35610 -16.64373 -15.98845 -15.79540 -15.41228
 -14.76299 -14.50918 -13.76860 -13.61577 -13.19421 -12.79333 -12.53472 -12.06828
 -11.91680  -1.27840   0.19159   0.79118   1.45127   2.12443   2.21015   2.86652
   3.09469   3.21693   3.67290   4.21992   4.28312   4.60505   4.72833   4.90919
   5.21805   5.25437   5.42773   5.50165   5.53866   5.92966   6.09557   6.37772


              NET ATOMIC CHARGES AND DIPOLE CONTRIBUTIONS

  ATOM NO.   TYPE          CHARGE      No. of ELECS.   s-Pop       p-Pop       
    1          O          -0.625048        6.6250     1.82987     4.79517
    2          C           0.024041        3.9760     1.09649     2.87947
    3          C          -0.288937        4.2889     1.08624     3.20270
    4          C          -0.276157        4.2762     1.07097     3.20519
    5          C          -0.087719        4.0877     1.06068     3.02704
    6          C          -0.394247        4.3942     1.07517     3.31908
    7          C           0.574816        3.4252     1.17215     2.25304
    8          O          -0.356870        6.3569     1.84106     4.51581
    9          C          -0.318087        4.3181     1.12805     3.19004
   10          H           0.403225        0.5968     0.59678
   11          H           0.173121        0.8269     0.82688
   12          H           0.170641        0.8294     0.82936
   13          H           0.237849        0.7622     0.76215
   14          H           0.177939        0.8221     0.82206
   15          H           0.174183        0.8258     0.82582
   16          H           0.179583        0.8204     0.82042
   17          H           0.237227        0.7628     0.76277
   18          H           0.235173        0.7648     0.76483
   19          H           0.451916        0.5481     0.54808
   20          H           0.154158        0.8458     0.84584
   21          H           0.153194        0.8468     0.84681
 DIPOLE           X         Y         Z       TOTAL
 POINT-CHG.     2.453     0.808     0.206     2.591
 HYBRID         0.678    -0.135    -0.991     1.208
 SUM            3.131     0.673    -0.785     3.297


          ATOMIC ORBITAL ELECTRON POPULATIONS

     Atom    s        px        py        pz   
    1  O   1.82987   1.46978   1.90566   1.41974
    2  C   1.09649   1.07223   0.98492   0.82232
    3  C   1.08624   1.08747   1.11004   1.00519
    4  C   1.07097   1.01716   1.14989   1.03814
    5  C   1.06068   0.99659   1.10612   0.92432
    6  C   1.07517   1.05911   1.18261   1.07735
    7  C   1.17215   0.85944   0.60232   0.79128
    8  O   1.84106   1.59745   1.56384   1.35452
    9  C   1.12805   1.03298   1.03917   1.11789
   10  H   0.59678
   11  H   0.82688
   12  H   0.82936
   13  H   0.76215
   14  H   0.82206
   15  H   0.82582
   16  H   0.82042
   17  H   0.76277
   18  H   0.76483
   19  H   0.54808
   20  H   0.84584
   21  H   0.84681


                    (SZ)    =    0.500000
                    (S**2)  =    0.753551


          ATOMIC ORBITAL SPIN POPULATIONS

    Atom   Total    s     px     py     pz   
         Atomic
    1  O  0.0002  0.000  0.000  0.000  0.000
    2  C  0.0005  0.000  0.000  0.000 -0.000
    3  C -0.0002 -0.000 -0.000 -0.000  0.000
    4  C  0.0477  0.010  0.025  0.008  0.004
    5  C -0.0555 -0.007 -0.029 -0.012 -0.007
    6  C  0.0031  0.000  0.000  0.000  0.002
    7  C  0.0000 -0.000 -0.000 -0.000  0.000
    8  O -0.0000  0.000 -0.000  0.000 -0.000
    9  C  1.0423  0.026  0.167  0.792  0.057
   10  H -0.0000 -0.000
   11  H -0.0000 -0.000
   12  H -0.0000 -0.000
   13  H  0.0001  0.000
   14  H -0.0012 -0.001
   15  H -0.0019 -0.002
   16  H  0.0243  0.024
   17  H -0.0004 -0.000
   18  H -0.0003 -0.000
   19  H -0.0000 -0.000
   20  H -0.0291 -0.029
   21  H -0.0295 -0.030

 **********************
 *                    *
 * JOB ENDED NORMALLY *
 *                    *
 **********************



 TOTAL JOB TIME:             3.32 SECONDS

 == MOPAC DONE ==
