 *******************************************************************************
 **                                                                           **
 **                              MOPAC v23.2                                  **
 **                                                                           **
 *******************************************************************************
 **          Digital Object Identifier (DOI): 10.5281/zenodo.6511958          **
 **    Visit the DOI location for information on how to cite this program.    **
 *******************************************************************************

                              PM7 CALCULATION RESULTS

 *******************************************************************************
 *  CALCULATION DONE: (MAX THREADS = 40)             Fri Sep 19 21:39:41 2025  *
 *  PM7        - The PM7 Hamiltonian to be used
 *
 *
 *
 *                 CHARGE ON SYSTEM = +1
 *
 *
 *
 *  1SCF       - DO 1 SCF AND THEN STOP 
 *  T=         - A TIME OF 172800.0 SECONDS REQUESTED
 *  DUMP=N     - RESTART FILE WRITTEN EVERY 7200.0 SECONDS REQUESTED
 *  RELSCF     - DEFAULT SCF CRITERION MULTIPLIED BY 0.0001
 *              (DEFAULT SCF CRITERION = 0.00010)
 *  GRADIENTS  - ALL GRADIENTS TO BE PRINTED
 *  DISP       - PRINT DISPERSION AND HYDROGEN BOND ENERGIES
 *******************************************************************************
PM7 1SCF GRADIENTS DISP RELSCF=0.0001 CHARGE=1
 Title: ASE calculation

   ATOM   CHEMICAL          X               Y               Z
  NUMBER   SYMBOL      (ANGSTROMS)     (ANGSTROMS)     (ANGSTROMS)

     1       C         -1.65310646  *  -1.26096798  *   0.38536563  *
     2       C         -1.70490438  *   0.21739148  *   0.05318395  *
     3       C         -2.70609476  *   0.95547936  *   1.01638807  *
     4       O         -2.41342602  *   2.04126625  *   1.41392608  *
     5       N         -0.44172931  *   0.89516183  *   0.09781651  *
     6       C          0.82340536  *   0.22382804  *   0.04243584  *
     7       C          1.93255251  *   1.30799815  *  -0.00175555  *
     8       N          3.21856566  *   0.88989218  *  -0.08195837  *
     9       O          1.58813007  *   2.47090806  *   0.03947273  *
    10       H         -1.33832362  *  -1.46223202  *   1.42123695  *
    11       H         -2.64810965  *  -1.73443819  *   0.27822522  *
    12       H         -0.99434050  *  -1.83725186  *  -0.28098230  *
    13       H         -2.12780340  *   0.35987767  *  -1.00203309  *
    14       H         -3.62237204  *   0.40404218  *   1.24675144  *
    15       H         -0.42666893  *   1.93712104  *   0.20050231  *
    16       H          0.89183732  *  -0.45833821  *  -0.84797969  *
    17       H          0.96386918  *  -0.44365276  *   0.94003867  *
    18       H          3.96323482  *   1.58014253  *  -0.10861286  *
    19       H          3.50048024  *  -0.06896977  *  -0.11857376  *



          CARTESIAN COORDINATES 

    NO.       ATOM           X           Y           Z

     1         C         -1.6531     -1.2610      0.3854
     2         C         -1.7049      0.2174      0.0532
     3         C         -2.7061      0.9555      1.0164
     4         O         -2.4134      2.0413      1.4139
     5         N         -0.4417      0.8952      0.0978
     6         C          0.8234      0.2238      0.0424
     7         C          1.9326      1.3080     -0.0018
     8         N          3.2186      0.8899     -0.0820
     9         O          1.5881      2.4709      0.0395
    10         H         -1.3383     -1.4622      1.4212
    11         H         -2.6481     -1.7344      0.2782
    12         H         -0.9943     -1.8373     -0.2810
    13         H         -2.1278      0.3599     -1.0020
    14         H         -3.6224      0.4040      1.2468
    15         H         -0.4267      1.9371      0.2005
    16         H          0.8918     -0.4583     -0.8480
    17         H          0.9639     -0.4437      0.9400
    18         H          3.9632      1.5801     -0.1086
    19         H          3.5005     -0.0690     -0.1186

 General Reference for PM7:
 "Optimization of Parameters for Semiempirical Methods VI: More Modifications to the 
 NDDO Approximations and Re-optimization of Parameters", J. J. P. Stewart, J. Mol. Mod., 1:32, 19 (2013)
 https://link.springer.com/article/10.1007/s00894-012-1667-x

           Empirical Formula: C5 H10 N2 O2  =    19 atoms



      MOLECULAR POINT GROUP   :   C1  


          UHF CALCULATION, NO. OF ALPHA ELECTRONS =   26
                           NO. OF BETA  ELECTRONS =   25
  SCF CRITERION =    0.1000E-07

 -------------------------------------------------------------------------------
 PM7 1SCF GRADIENTS DISP RELSCF=0.0001 CHARGE=1
 Title: ASE calculation



     1SCF WAS SPECIFIED, SO BFGS WAS NOT USED                 
     SCF FIELD WAS ACHIEVED                                   


                              PM7 CALCULATION
                                                       MOPAC v23.2 Linux
                                                       Fri Sep 19 21:39:43 2025




          FINAL HEAT OF FORMATION =        102.93634 KCAL/MOL =     430.68566 KJ/MOL

          TOTAL ENERGY            =     -39305.05719 KCAL/MOL = ELECTRONIC ENERGY + CORE-CORE REPULSION
          ENERGY OF ATOMS         =      39410.22309 KCAL/MOL
                              SUM =        105.16590 KCAL/MOL
          DISPERSION ENERGY       =         -1.97691 KCAL/MOL
          H-BOND ENERGY           =         -0.25270 KCAL/MOL
          MM CORR. FOR -CO-NH-    =          0.00006 KCAL/MOL
                              SUM =        102.93634 KCAL/MOL = FINAL HEAT OF FORMATION



          TOTAL ENERGY            =      -1704.42860 EV
          ELECTRONIC ENERGY       =      -7757.04206 EV 
          CORE-CORE REPULSION     =       6052.61346 EV
          COSMO AREA              =        170.20 SQUARE ANGSTROMS
          COSMO VOLUME            =        163.46 CUBIC ANGSTROMS

          GRADIENT NORM           =          1.09385          =       0.25095 PER ATOM
          IONIZATION POTENTIAL    =         14.615967 EV
          ALPHA SOMO LUMO (EV)    =        -14.617 -4.370
          BETA  SOMO LUMO (EV)    =        -14.616 -6.608
          NO. OF ALPHA ELECTRONS  =         26
          NO. OF BETA  ELECTRONS  =         25
          MOLECULAR WEIGHT        =        130.1462         POINT GROUP:  C1  

          MOLECULAR DIMENSIONS (Angstroms)

            Atom       Atom       Distance
            H    18    H    14     7.79498
            H    12    O     4     4.32900
            H    10    H    13     2.99264


          SCF CALCULATIONS        =          1

          WALL-CLOCK TIME         =      1.242 SECONDS
          COMPUTATION TIME        =      0.714 SECONDS

          LARGEST ATOMIC GRADIENTS

          Atom     Label                     Cartesian Gradients           Cartesian Coordinates       |Gradient|
                                           X          Y          Z        X          Y          Z

            10       H                  -0.362     -0.200     -0.074   -1.33832   -1.46223    1.42124      0.420
             3       C                   0.216      0.266     -0.101   -2.70609    0.95548    1.01639      0.357
            12       H                   0.258      0.115      0.174   -0.99434   -1.83725   -0.28098      0.331
             4       O                   0.043     -0.302     -0.123   -2.41343    2.04127    1.41393      0.328
             5       N                  -0.265     -0.118      0.039   -0.44173    0.89516    0.09782      0.293
             8       N                  -0.258     -0.114     -0.008    3.21857    0.88989   -0.08196      0.282
            15       H                  -0.205      0.178      0.058   -0.42667    1.93712    0.20050      0.278
             6       C                   0.159     -0.195     -0.006    0.82341    0.22383    0.04244      0.251
            13       H                   0.224      0.069      0.059   -2.12780    0.35988   -1.00203      0.242
             1       C                   0.220      0.088      0.037   -1.65311   -1.26097    0.38537      0.240



       FINAL  POINT  AND  DERIVATIVES

   PARAMETER     ATOM    TYPE            VALUE        GRADIENT
      1          1  C    CARTESIAN X    -1.653106      0.220336  KCAL/ANGSTROM
      2          1  C    CARTESIAN Y    -1.260968      0.088240  KCAL/ANGSTROM
      3          1  C    CARTESIAN Z     0.385366      0.036632  KCAL/ANGSTROM
      4          2  C    CARTESIAN X    -1.704904     -0.083169  KCAL/ANGSTROM
      5          2  C    CARTESIAN Y     0.217391      0.108374  KCAL/ANGSTROM
      6          2  C    CARTESIAN Z     0.053184     -0.136949  KCAL/ANGSTROM
      7          3  C    CARTESIAN X    -2.706095      0.216387  KCAL/ANGSTROM
      8          3  C    CARTESIAN Y     0.955479      0.265888  KCAL/ANGSTROM
      9          3  C    CARTESIAN Z     1.016388     -0.101066  KCAL/ANGSTROM
     10          4  O    CARTESIAN X    -2.413426      0.042517  KCAL/ANGSTROM
     11          4  O    CARTESIAN Y     2.041266     -0.301572  KCAL/ANGSTROM
     12          4  O    CARTESIAN Z     1.413926     -0.122922  KCAL/ANGSTROM
     13          5  N    CARTESIAN X    -0.441729     -0.265126  KCAL/ANGSTROM
     14          5  N    CARTESIAN Y     0.895162     -0.118047  KCAL/ANGSTROM
     15          5  N    CARTESIAN Z     0.097817      0.038707  KCAL/ANGSTROM
     16          6  C    CARTESIAN X     0.823405      0.158523  KCAL/ANGSTROM
     17          6  C    CARTESIAN Y     0.223828     -0.194773  KCAL/ANGSTROM
     18          6  C    CARTESIAN Z     0.042436     -0.006160  KCAL/ANGSTROM
     19          7  C    CARTESIAN X     1.932553     -0.140693  KCAL/ANGSTROM
     20          7  C    CARTESIAN Y     1.307998     -0.011669  KCAL/ANGSTROM
     21          7  C    CARTESIAN Z    -0.001756     -0.034657  KCAL/ANGSTROM
     22          8  N    CARTESIAN X     3.218566     -0.258378  KCAL/ANGSTROM
     23          8  N    CARTESIAN Y     0.889892     -0.113694  KCAL/ANGSTROM
     24          8  N    CARTESIAN Z    -0.081958     -0.007622  KCAL/ANGSTROM
     25          9  O    CARTESIAN X     1.588130      0.081145  KCAL/ANGSTROM
     26          9  O    CARTESIAN Y     2.470908     -0.143203  KCAL/ANGSTROM
     27          9  O    CARTESIAN Z     0.039473      0.017429  KCAL/ANGSTROM
     28         10  H    CARTESIAN X    -1.338324     -0.361850  KCAL/ANGSTROM
     29         10  H    CARTESIAN Y    -1.462232     -0.200429  KCAL/ANGSTROM
     30         10  H    CARTESIAN Z     1.421237     -0.074401  KCAL/ANGSTROM
     31         11  H    CARTESIAN X    -2.648110      0.121695  KCAL/ANGSTROM
     32         11  H    CARTESIAN Y    -1.734438     -0.022485  KCAL/ANGSTROM
     33         11  H    CARTESIAN Z     0.278225      0.099557  KCAL/ANGSTROM
     34         12  H    CARTESIAN X    -0.994341      0.257616  KCAL/ANGSTROM
     35         12  H    CARTESIAN Y    -1.837252      0.114540  KCAL/ANGSTROM
     36         12  H    CARTESIAN Z    -0.280982      0.174356  KCAL/ANGSTROM
     37         13  H    CARTESIAN X    -2.127803      0.223929  KCAL/ANGSTROM
     38         13  H    CARTESIAN Y     0.359878      0.068826  KCAL/ANGSTROM
     39         13  H    CARTESIAN Z    -1.002033      0.059419  KCAL/ANGSTROM
     40         14  H    CARTESIAN X    -3.622372      0.046676  KCAL/ANGSTROM
     41         14  H    CARTESIAN Y     0.404042     -0.028626  KCAL/ANGSTROM
     42         14  H    CARTESIAN Z     1.246751      0.128890  KCAL/ANGSTROM
     43         15  H    CARTESIAN X    -0.426669     -0.204775  KCAL/ANGSTROM
     44         15  H    CARTESIAN Y     1.937121      0.178224  KCAL/ANGSTROM
     45         15  H    CARTESIAN Z     0.200502      0.058469  KCAL/ANGSTROM
     46         16  H    CARTESIAN X     0.891837      0.010331  KCAL/ANGSTROM
     47         16  H    CARTESIAN Y    -0.458338      0.118222  KCAL/ANGSTROM
     48         16  H    CARTESIAN Z    -0.847980     -0.163365  KCAL/ANGSTROM
     49         17  H    CARTESIAN X     0.963869     -0.046966  KCAL/ANGSTROM
     50         17  H    CARTESIAN Y    -0.443653      0.226072  KCAL/ANGSTROM
     51         17  H    CARTESIAN Z     0.940039      0.050735  KCAL/ANGSTROM
     52         18  H    CARTESIAN X     3.963235      0.055719  KCAL/ANGSTROM
     53         18  H    CARTESIAN Y     1.580143      0.046000  KCAL/ANGSTROM
     54         18  H    CARTESIAN Z    -0.108613      0.054510  KCAL/ANGSTROM
     55         19  H    CARTESIAN X     3.500480     -0.073999  KCAL/ANGSTROM
     56         19  H    CARTESIAN Y    -0.068970     -0.079901  KCAL/ANGSTROM
     57         19  H    CARTESIAN Z    -0.118574     -0.071561  KCAL/ANGSTROM




   ATOM   CHEMICAL          X               Y               Z
  NUMBER   SYMBOL      (ANGSTROMS)     (ANGSTROMS)     (ANGSTROMS)

     1       C         -1.65310646  *  -1.26096798  *   0.38536563  *
     2       C         -1.70490438  *   0.21739148  *   0.05318395  *
     3       C         -2.70609476  *   0.95547936  *   1.01638807  *
     4       O         -2.41342602  *   2.04126625  *   1.41392608  *
     5       N         -0.44172931  *   0.89516183  *   0.09781651  *
     6       C          0.82340536  *   0.22382804  *   0.04243584  *
     7       C          1.93255251  *   1.30799815  *  -0.00175555  *
     8       N          3.21856566  *   0.88989218  *  -0.08195837  *
     9       O          1.58813007  *   2.47090806  *   0.03947273  *
    10       H         -1.33832362  *  -1.46223202  *   1.42123695  *
    11       H         -2.64810965  *  -1.73443819  *   0.27822522  *
    12       H         -0.99434050  *  -1.83725186  *  -0.28098230  *
    13       H         -2.12780340  *   0.35987767  *  -1.00203309  *
    14       H         -3.62237204  *   0.40404218  *   1.24675144  *
    15       H         -0.42666893  *   1.93712104  *   0.20050231  *
    16       H          0.89183732  *  -0.45833821  *  -0.84797969  *
    17       H          0.96386918  *  -0.44365276  *   0.94003867  *
    18       H          3.96323482  *   1.58014253  *  -0.10861286  *
    19       H          3.50048024  *  -0.06896977  *  -0.11857376  *

                             CARTESIAN COORDINATES

   1    C       -1.653106459    -1.260967979     0.385365633
   2    C       -1.704904376     0.217391483     0.053183951
   3    C       -2.706094761     0.955479359     1.016388073
   4    O       -2.413426020     2.041266254     1.413926083
   5    N       -0.441729315     0.895161826     0.097816512
   6    C        0.823405365     0.223828041     0.042435839
   7    C        1.932552513     1.307998151    -0.001755550
   8    N        3.218565658     0.889892177    -0.081958374
   9    O        1.588130074     2.470908061     0.039472730
  10    H       -1.338323619    -1.462232025     1.421236951
  11    H       -2.648109648    -1.734438187     0.278225221
  12    H       -0.994340502    -1.837251856    -0.280982304
  13    H       -2.127803397     0.359877666    -1.002033090
  14    H       -3.622372036     0.404042179     1.246751440
  15    H       -0.426668929     1.937121042     0.200502310
  16    H        0.891837324    -0.458338212    -0.847979694
  17    H        0.963869181    -0.443652755     0.940038669
  18    H        3.963234824     1.580142526    -0.108612858
  19    H        3.500480241    -0.068969774    -0.118573756


           Empirical Formula: C5 H10 N2 O2  =    19 atoms



      MOLECULAR POINT GROUP   :   C1  


          ALPHA EIGENVALUES  
 -42.87990 -41.36251 -36.32591 -34.84244 -32.62493 -30.77622 -27.73242 -25.83230
 -25.59704 -23.62544 -23.02171 -22.01710 -21.57121 -20.78698 -20.41343 -20.06764
 -19.12524 -18.76622 -18.44706 -18.25335 -18.01857 -17.91229 -16.63950 -15.21235
 -14.96125 -14.61669  -4.36965  -4.03426  -3.29089  -2.64894  -2.45869  -1.63787
  -1.48699  -1.13493  -0.65228  -0.42553  -0.21309   0.02052   0.26996   0.53310
   0.57574   0.69048   0.76238   1.70746   1.95525   2.61390


           BETA EIGENVALUES 
 -41.43579 -41.09398 -36.25411 -34.81911 -32.47546 -30.49531 -27.67166 -25.57536
 -25.42526 -23.44094 -22.40771 -21.66139 -21.39472 -20.58098 -20.31065 -19.97157
 -19.06812 -18.49649 -18.31462 -18.16538 -17.98982 -17.64534 -15.21411 -15.04575
 -14.61597  -6.60758  -4.11742  -3.61095  -3.27741  -2.62667  -2.38655  -1.49389
  -1.43214  -0.86419  -0.51712  -0.27373  -0.08975   0.05619   0.41712   0.59938
   0.66655   0.72775   0.76950   1.70876   1.95689   2.61427


              NET ATOMIC CHARGES AND DIPOLE CONTRIBUTIONS

  ATOM NO.   TYPE          CHARGE      No. of ELECS.   s-Pop       p-Pop       
    1          C          -0.472412        4.4724     1.05461     3.41780
    2          C          -0.149750        4.1497     1.10044     3.04931
    3          C           0.334928        3.6651     1.16926     2.49582
    4          O          -0.323809        6.3238     1.87690     4.44691
    5          N          -0.031227        5.0312     1.54385     3.48737
    6          C          -0.293621        4.2936     1.09131     3.20231
    7          C           0.556347        3.4437     1.06334     2.38032
    8          N          -0.603806        5.6038     1.52593     4.07787
    9          O          -0.480784        6.4808     1.88332     4.59747
   10          H           0.181866        0.8181     0.81813
   11          H           0.200033        0.8000     0.79997
   12          H           0.176821        0.8232     0.82318
   13          H           0.233347        0.7667     0.76665
   14          H           0.177328        0.8227     0.82267
   15          H           0.370901        0.6291     0.62910
   16          H           0.223464        0.7765     0.77654
   17          H           0.230372        0.7696     0.76963
   18          H           0.348768        0.6512     0.65123
   19          H           0.321233        0.6788     0.67877
 DIPOLE           X         Y         Z       TOTAL
 POINT-CHG.    -0.692    -7.085    -1.672     7.313
 HYBRID         0.612     0.360    -0.108     0.718
 SUM           -0.080    -6.725    -1.780     6.957


          ATOMIC ORBITAL ELECTRON POPULATIONS

     Atom    s        px        py        pz   
    1  C   1.05461   1.23655   0.97951   1.20175
    2  C   1.10044   0.87361   1.02052   1.15518
    3  C   1.16926   0.91127   0.84019   0.74435
    4  O   1.87690   1.72974   1.25972   1.45745
    5  N   1.54385   1.10836   1.22458   1.15443
    6  C   1.09131   0.90323   1.09457   1.20451
    7  C   1.06334   0.79610   0.82288   0.76134
    8  N   1.52593   1.15087   1.22267   1.70432
    9  O   1.88332   1.78641   1.26312   1.54794
   10  H   0.81813
   11  H   0.79997
   12  H   0.82318
   13  H   0.76665
   14  H   0.82267
   15  H   0.62910
   16  H   0.77654
   17  H   0.76963
   18  H   0.65123
   19  H   0.67877


                    (SZ)    =    0.500000
                    (S**2)  =    0.759840


          ATOMIC ORBITAL SPIN POPULATIONS

    Atom   Total    s     px     py     pz   
         Atomic
    1  C  0.0088  0.001  0.000  0.005  0.002
    2  C -0.0584 -0.009 -0.043 -0.012  0.005
    3  C  0.0283  0.003  0.015  0.003  0.007
    4  O  0.0142  0.001  0.013  0.000 -0.000
    5  N  0.9583  0.042  0.046  0.050  0.820
    6  C -0.0496 -0.008 -0.032 -0.017  0.007
    7  C  0.0024  0.001  0.001  0.001  0.000
    8  N  0.0010  0.000 -0.000  0.000  0.001
    9  O -0.0014 -0.000 -0.000 -0.000 -0.001
   10  H  0.0003  0.000
   11  H -0.0020 -0.002
   12  H -0.0004 -0.000
   13  H  0.0546  0.055
   14  H  0.0059  0.006
   15  H -0.0382 -0.038
   16  H  0.0337  0.034
   17  H  0.0427  0.043
   18  H -0.0001 -0.000
   19  H -0.0000 -0.000

 **********************
 *                    *
 * JOB ENDED NORMALLY *
 *                    *
 **********************



 TOTAL JOB TIME:             1.83 SECONDS

 == MOPAC DONE ==
