 *******************************************************************************
 **                                                                           **
 **                              MOPAC v23.2                                  **
 **                                                                           **
 *******************************************************************************
 **          Digital Object Identifier (DOI): 10.5281/zenodo.6511958          **
 **    Visit the DOI location for information on how to cite this program.    **
 *******************************************************************************

                              PM7 CALCULATION RESULTS

 *******************************************************************************
 *  CALCULATION DONE: (MAX THREADS = 40)             Fri Sep 19 21:36:03 2025  *
 *  PM7        - The PM7 Hamiltonian to be used
 *  EPS=37.5   - USE ANDREAS KLAMT'S COSMO IMPLICIT SOLVATION MODEL
 *  1SCF       - DO 1 SCF AND THEN STOP 
 *  T=         - A TIME OF 172800.0 SECONDS REQUESTED
 *  DUMP=N     - RESTART FILE WRITTEN EVERY 7200.0 SECONDS REQUESTED
 *  RELSCF     - DEFAULT SCF CRITERION MULTIPLIED BY 0.0001
 *              (DEFAULT SCF CRITERION = 0.00010)
 *  GRADIENTS  - ALL GRADIENTS TO BE PRINTED
 *  DISP       - PRINT DISPERSION AND HYDROGEN BOND ENERGIES
 *******************************************************************************
PM7 1SCF GRADIENTS EPS=37.5 DISP RELSCF=0.0001
 Title: ASE calculation

   ATOM   CHEMICAL          X               Y               Z
  NUMBER   SYMBOL      (ANGSTROMS)     (ANGSTROMS)     (ANGSTROMS)

     1       C         -1.89937810  *   1.12142900  *  -0.44231069  *
     2       C         -0.68793108  *   0.67339216  *   0.37297905  *
     3       C         -0.64274508  *  -0.86907681  *   0.48172488  *
     4       C         -0.37052168  *  -1.73588802  *  -0.72760713  *
     5       C          0.67792507  *  -1.66877390  *   0.35696421  *
     6       C          2.02705365  *  -0.96365067  *   0.11581130  *
     7       C          1.74668428  *   0.43359143  *   0.59435272  *
     8       C          1.84155297  *   1.83628245  *   0.05389395  *
     9       C          0.62325153  *   1.01854887  *  -0.28507061  *
    10       H         -1.88669129  *   0.69225375  *  -1.45078246  *
    11       H         -2.83739275  *   0.81247138  *   0.03144031  *
    12       H         -1.91776996  *   2.21246815  *  -0.54695024  *
    13       H         -0.75549171  *   1.10740059  *   1.39787931  *
    14       H         -1.36990069  *  -1.23227431  *   1.21235953  *
    15       H         -0.17803677  *  -1.27189645  *  -1.69064136  *
    16       H         -0.93863210  *  -2.65073938  *  -0.86706849  *
    17       H          0.78442655  *  -2.53391566  *   1.01619722  *
    18       H          2.83739275  *  -1.45528205  *   0.68097155  *
    19       H          2.32085180  *  -1.01443213  *  -0.94659137  *
    20       H          1.60475713  *   0.42475721  *   1.69064136  *
    21       H          2.51067636  *   2.09371311  *  -0.76331579  *
    22       H          1.80449169  *   2.65073938  *   0.77375773  *
    23       H          0.59283378  *   0.75098734  *  -1.35524326  *



          CARTESIAN COORDINATES 

    NO.       ATOM           X           Y           Z

     1         C         -1.8994      1.1214     -0.4423
     2         C         -0.6879      0.6734      0.3730
     3         C         -0.6427     -0.8691      0.4817
     4         C         -0.3705     -1.7359     -0.7276
     5         C          0.6779     -1.6688      0.3570
     6         C          2.0271     -0.9637      0.1158
     7         C          1.7467      0.4336      0.5944
     8         C          1.8416      1.8363      0.0539
     9         C          0.6233      1.0185     -0.2851
    10         H         -1.8867      0.6923     -1.4508
    11         H         -2.8374      0.8125      0.0314
    12         H         -1.9178      2.2125     -0.5470
    13         H         -0.7555      1.1074      1.3979
    14         H         -1.3699     -1.2323      1.2124
    15         H         -0.1780     -1.2719     -1.6906
    16         H         -0.9386     -2.6507     -0.8671
    17         H          0.7844     -2.5339      1.0162
    18         H          2.8374     -1.4553      0.6810
    19         H          2.3209     -1.0144     -0.9466
    20         H          1.6048      0.4248      1.6906
    21         H          2.5107      2.0937     -0.7633
    22         H          1.8045      2.6507      0.7738
    23         H          0.5928      0.7510     -1.3552

 General Reference for PM7:
 "Optimization of Parameters for Semiempirical Methods VI: More Modifications to the 
 NDDO Approximations and Re-optimization of Parameters", J. J. P. Stewart, J. Mol. Mod., 1:32, 19 (2013)
 https://link.springer.com/article/10.1007/s00894-012-1667-x

           Empirical Formula: C9 H14  =    23 atoms



      MOLECULAR POINT GROUP   :   C1  


      RHF CALCULATION, NO. OF DOUBLY OCCUPIED LEVELS = 25

  SCF CRITERION =    0.1000E-07

 -------------------------------------------------------------------------------
 PM7 1SCF GRADIENTS EPS=37.5 DISP RELSCF=0.0001
 Title: ASE calculation



     1SCF WAS SPECIFIED, SO BFGS WAS NOT USED                 
     SCF FIELD WAS ACHIEVED                                   


                              PM7 CALCULATION
                                                       MOPAC v23.2 Linux
                                                       Fri Sep 19 21:36:05 2025




          FINAL HEAT OF FORMATION =         45.50335 KCAL/MOL =     190.38601 KJ/MOL

          TOTAL ENERGY            =     -29804.64105 KCAL/MOL = ELECTRONIC ENERGY + CORE-CORE REPULSION + SOLVATION ENERGY
          ENERGY OF ATOMS         =      29852.41387 KCAL/MOL
                              SUM =         47.77282 KCAL/MOL
          DISPERSION ENERGY       =         -2.26947 KCAL/MOL
                              SUM =         45.50335 KCAL/MOL = FINAL HEAT OF FORMATION

          VAN DER WAALS AREA      =        169.23 SQUARE ANGSTROMS


          TOTAL ENERGY            =      -1292.45156 EV
          ELECTRONIC ENERGY       =      -2328.28401 EV 
          CORE-CORE REPULSION     =       1035.83245 EV

          DIELECTRIC ENERGY       =         -0.09061 EV
          COSMO AREA              =        169.23 SQUARE ANGSTROMS
          COSMO VOLUME            =        175.91 CUBIC ANGSTROMS

          GRADIENT NORM           =          3.62669          =       0.75622 PER ATOM
          IONIZATION POTENTIAL    =          9.798083 EV
          HOMO LUMO ENERGIES (EV) =         -9.798  2.003
          NO. OF FILLED LEVELS    =         25
          MOLECULAR WEIGHT        =        122.2096         POINT GROUP:  C1  

          MOLECULAR DIMENSIONS (Angstroms)

            Atom       Atom       Distance
            H    22    H    16     6.19053
            H    18    H    11     6.10027
            H    14    H    21     3.29874


          SCF CALCULATIONS        =          2

          WALL-CLOCK TIME         =      1.570 SECONDS
          COMPUTATION TIME        =      0.529 SECONDS

          LARGEST ATOMIC GRADIENTS

          Atom     Label                     Cartesian Gradients           Cartesian Coordinates       |Gradient|
                                           X          Y          Z        X          Y          Z

             8       C                   0.710      1.228      0.019    1.84155    1.83628    0.05389      1.419
             4       C                  -0.252     -0.250     -0.969   -0.37052   -1.73589   -0.72761      1.032
             3       C                  -0.823     -0.216      0.534   -0.64275   -0.86908    0.48172      1.004
             9       C                  -0.173     -0.791     -0.527    0.62325    1.01855   -0.28507      0.966
            21       H                  -0.512     -0.207      0.776    2.51068    2.09371   -0.76332      0.952
             1       C                  -0.881     -0.045     -0.170   -1.89938    1.12143   -0.44231      0.898
             5       C                   0.002     -0.613      0.636    0.67793   -1.66877    0.35696      0.883
             6       C                   0.595     -0.430     -0.409    2.02705   -0.96365    0.11581      0.840
            23       H                  -0.045      0.734      0.391    0.59283    0.75099   -1.35524      0.833
            16       H                   0.470      0.537      0.322   -0.93863   -2.65074   -0.86707      0.783



       FINAL  POINT  AND  DERIVATIVES

   PARAMETER     ATOM    TYPE            VALUE        GRADIENT
      1          1  C    CARTESIAN X    -1.899378     -0.880758  KCAL/ANGSTROM
      2          1  C    CARTESIAN Y     1.121429     -0.045208  KCAL/ANGSTROM
      3          1  C    CARTESIAN Z    -0.442311     -0.170192  KCAL/ANGSTROM
      4          2  C    CARTESIAN X    -0.687931      0.210461  KCAL/ANGSTROM
      5          2  C    CARTESIAN Y     0.673392      0.083987  KCAL/ANGSTROM
      6          2  C    CARTESIAN Z     0.372979      0.289023  KCAL/ANGSTROM
      7          3  C    CARTESIAN X    -0.642745     -0.822823  KCAL/ANGSTROM
      8          3  C    CARTESIAN Y    -0.869077     -0.216096  KCAL/ANGSTROM
      9          3  C    CARTESIAN Z     0.481725      0.533984  KCAL/ANGSTROM
     10          4  C    CARTESIAN X    -0.370522     -0.251995  KCAL/ANGSTROM
     11          4  C    CARTESIAN Y    -1.735888     -0.250204  KCAL/ANGSTROM
     12          4  C    CARTESIAN Z    -0.727607     -0.969500  KCAL/ANGSTROM
     13          5  C    CARTESIAN X     0.677925      0.002189  KCAL/ANGSTROM
     14          5  C    CARTESIAN Y    -1.668774     -0.612558  KCAL/ANGSTROM
     15          5  C    CARTESIAN Z     0.356964      0.636418  KCAL/ANGSTROM
     16          6  C    CARTESIAN X     2.027054      0.595096  KCAL/ANGSTROM
     17          6  C    CARTESIAN Y    -0.963651     -0.429676  KCAL/ANGSTROM
     18          6  C    CARTESIAN Z     0.115811     -0.408767  KCAL/ANGSTROM
     19          7  C    CARTESIAN X     1.746684     -0.506645  KCAL/ANGSTROM
     20          7  C    CARTESIAN Y     0.433591     -0.161761  KCAL/ANGSTROM
     21          7  C    CARTESIAN Z     0.594353      0.279174  KCAL/ANGSTROM
     22          8  C    CARTESIAN X     1.841553      0.709716  KCAL/ANGSTROM
     23          8  C    CARTESIAN Y     1.836282      1.228216  KCAL/ANGSTROM
     24          8  C    CARTESIAN Z     0.053894      0.019284  KCAL/ANGSTROM
     25          9  C    CARTESIAN X     0.623252     -0.172619  KCAL/ANGSTROM
     26          9  C    CARTESIAN Y     1.018549     -0.790772  KCAL/ANGSTROM
     27          9  C    CARTESIAN Z    -0.285071     -0.527420  KCAL/ANGSTROM
     28         10  H    CARTESIAN X    -1.886691      0.221267  KCAL/ANGSTROM
     29         10  H    CARTESIAN Y     0.692254      0.073578  KCAL/ANGSTROM
     30         10  H    CARTESIAN Z    -1.450782      0.343173  KCAL/ANGSTROM
     31         11  H    CARTESIAN X    -2.837393      0.385135  KCAL/ANGSTROM
     32         11  H    CARTESIAN Y     0.812471     -0.004543  KCAL/ANGSTROM
     33         11  H    CARTESIAN Z     0.031440     -0.226552  KCAL/ANGSTROM
     34         12  H    CARTESIAN X    -1.917770      0.393775  KCAL/ANGSTROM
     35         12  H    CARTESIAN Y     2.212468     -0.011383  KCAL/ANGSTROM
     36         12  H    CARTESIAN Z    -0.546950      0.195332  KCAL/ANGSTROM
     37         13  H    CARTESIAN X    -0.755492     -0.179618  KCAL/ANGSTROM
     38         13  H    CARTESIAN Y     1.107401     -0.057432  KCAL/ANGSTROM
     39         13  H    CARTESIAN Z     1.397879     -0.474402  KCAL/ANGSTROM
     40         14  H    CARTESIAN X    -1.369901      0.342584  KCAL/ANGSTROM
     41         14  H    CARTESIAN Y    -1.232274      0.136053  KCAL/ANGSTROM
     42         14  H    CARTESIAN Z     1.212360     -0.273412  KCAL/ANGSTROM
     43         15  H    CARTESIAN X    -0.178037      0.091398  KCAL/ANGSTROM
     44         15  H    CARTESIAN Y    -1.271896     -0.284097  KCAL/ANGSTROM
     45         15  H    CARTESIAN Z    -1.690641      0.628834  KCAL/ANGSTROM
     46         16  H    CARTESIAN X    -0.938632      0.469923  KCAL/ANGSTROM
     47         16  H    CARTESIAN Y    -2.650739      0.537384  KCAL/ANGSTROM
     48         16  H    CARTESIAN Z    -0.867068      0.322421  KCAL/ANGSTROM
     49         17  H    CARTESIAN X     0.784427     -0.168081  KCAL/ANGSTROM
     50         17  H    CARTESIAN Y    -2.533916      0.452267  KCAL/ANGSTROM
     51         17  H    CARTESIAN Z     1.016197     -0.343874  KCAL/ANGSTROM
     52         18  H    CARTESIAN X     2.837393     -0.208152  KCAL/ANGSTROM
     53         18  H    CARTESIAN Y    -1.455282      0.383910  KCAL/ANGSTROM
     54         18  H    CARTESIAN Z     0.680972     -0.127373  KCAL/ANGSTROM
     55         19  H    CARTESIAN X     2.320852     -0.073628  KCAL/ANGSTROM
     56         19  H    CARTESIAN Y    -1.014432     -0.229652  KCAL/ANGSTROM
     57         19  H    CARTESIAN Z    -0.946591      0.174468  KCAL/ANGSTROM
     58         20  H    CARTESIAN X     1.604757      0.469291  KCAL/ANGSTROM
     59         20  H    CARTESIAN Y     0.424757      0.061126  KCAL/ANGSTROM
     60         20  H    CARTESIAN Z     1.690641     -0.458462  KCAL/ANGSTROM
     61         21  H    CARTESIAN X     2.510676     -0.511689  KCAL/ANGSTROM
     62         21  H    CARTESIAN Y     2.093713     -0.206983  KCAL/ANGSTROM
     63         21  H    CARTESIAN Z    -0.763316      0.775589  KCAL/ANGSTROM
     64         22  H    CARTESIAN X     1.804492     -0.069350  KCAL/ANGSTROM
     65         22  H    CARTESIAN Y     2.650739     -0.390426  KCAL/ANGSTROM
     66         22  H    CARTESIAN Z     0.773758     -0.608873  KCAL/ANGSTROM
     67         23  H    CARTESIAN X     0.592834     -0.045477  KCAL/ANGSTROM
     68         23  H    CARTESIAN Y     0.750987      0.734269  KCAL/ANGSTROM
     69         23  H    CARTESIAN Z    -1.355243      0.391124  KCAL/ANGSTROM




   ATOM   CHEMICAL          X               Y               Z
  NUMBER   SYMBOL      (ANGSTROMS)     (ANGSTROMS)     (ANGSTROMS)

     1       C         -1.89937810  *   1.12142900  *  -0.44231069  *
     2       C         -0.68793108  *   0.67339216  *   0.37297905  *
     3       C         -0.64274508  *  -0.86907681  *   0.48172488  *
     4       C         -0.37052168  *  -1.73588802  *  -0.72760713  *
     5       C          0.67792507  *  -1.66877390  *   0.35696421  *
     6       C          2.02705365  *  -0.96365067  *   0.11581130  *
     7       C          1.74668428  *   0.43359143  *   0.59435272  *
     8       C          1.84155297  *   1.83628245  *   0.05389395  *
     9       C          0.62325153  *   1.01854887  *  -0.28507061  *
    10       H         -1.88669129  *   0.69225375  *  -1.45078246  *
    11       H         -2.83739275  *   0.81247138  *   0.03144031  *
    12       H         -1.91776996  *   2.21246815  *  -0.54695024  *
    13       H         -0.75549171  *   1.10740059  *   1.39787931  *
    14       H         -1.36990069  *  -1.23227431  *   1.21235953  *
    15       H         -0.17803677  *  -1.27189645  *  -1.69064136  *
    16       H         -0.93863210  *  -2.65073938  *  -0.86706849  *
    17       H          0.78442655  *  -2.53391566  *   1.01619722  *
    18       H          2.83739275  *  -1.45528205  *   0.68097155  *
    19       H          2.32085180  *  -1.01443213  *  -0.94659137  *
    20       H          1.60475713  *   0.42475721  *   1.69064136  *
    21       H          2.51067636  *   2.09371311  *  -0.76331579  *
    22       H          1.80449169  *   2.65073938  *   0.77375773  *
    23       H          0.59283378  *   0.75098734  *  -1.35524326  *

                             CARTESIAN COORDINATES

   1    C       -1.899378104     1.121429000    -0.442310689
   2    C       -0.687931077     0.673392161     0.372979053
   3    C       -0.642745077    -0.869076812     0.481724879
   4    C       -0.370521678    -1.735888019    -0.727607132
   5    C        0.677925066    -1.668773900     0.356964213
   6    C        2.027053646    -0.963650673     0.115811297
   7    C        1.746684277     0.433591428     0.594352725
   8    C        1.841552973     1.836282453     0.053893950
   9    C        0.623251529     1.018548867    -0.285070611
  10    H       -1.886691291     0.692253746    -1.450782462
  11    H       -2.837392752     0.812471375     0.031440312
  12    H       -1.917769955     2.212468152    -0.546950244
  13    H       -0.755491706     1.107400586     1.397879307
  14    H       -1.369900686    -1.232274310     1.212359530
  15    H       -0.178036774    -1.271896446    -1.690641364
  16    H       -0.938632099    -2.650739382    -0.867068489
  17    H        0.784426549    -2.533915658     1.016197218
  18    H        2.837392752    -1.455282051     0.680971548
  19    H        2.320851804    -1.014432129    -0.946591366
  20    H        1.604757134     0.424757208     1.690641364
  21    H        2.510676357     2.093713109    -0.763315790
  22    H        1.804491695     2.650739382     0.773757730
  23    H        0.592833784     0.750987342    -1.355243259


           Empirical Formula: C9 H14  =    23 atoms



      MOLECULAR POINT GROUP   :   C1  


                  EIGENVALUES  
 -32.01654 -29.08974 -27.21478 -24.84230 -22.43278 -20.90401 -19.81714 -19.11566
 -18.59575 -16.84342 -15.92673 -15.29443 -15.11130 -14.26790 -13.64062 -13.29966
 -13.22403 -12.81185 -12.36823 -12.15124 -11.49455 -11.02070 -10.89866 -10.64627
  -9.79808   2.00275   2.49668   3.76949   3.87906   4.04607   4.23914   4.34852
   4.52557   4.63904   4.92720   5.00364   5.66585   5.72436   5.78974   5.93315
   5.94284   6.12940   6.20139   6.23421   6.28282   6.34573   6.38434   6.51601
   6.63681   7.07757


              NET ATOMIC CHARGES AND DIPOLE CONTRIBUTIONS

  ATOM NO.   TYPE          CHARGE      No. of ELECS.   s-Pop       p-Pop       
    1          C          -0.462060        4.4621     1.05531     3.40675
    2          C          -0.051579        4.0516     1.05500     2.99658
    3          C          -0.176461        4.1765     1.06393     3.11253
    4          C          -0.347515        4.3475     1.05453     3.29298
    5          C          -0.164648        4.1646     1.05913     3.10552
    6          C          -0.244611        4.2446     1.05519     3.18942
    7          C          -0.203835        4.2038     1.04859     3.15524
    8          C          -0.303224        4.3032     1.05825     3.24497
    9          C          -0.216973        4.2170     1.05329     3.16368
   10          H           0.152517        0.8475     0.84748
   11          H           0.151741        0.8483     0.84826
   12          H           0.150853        0.8491     0.84915
   13          H           0.141953        0.8580     0.85805
   14          H           0.152803        0.8472     0.84720
   15          H           0.164468        0.8355     0.83553
   16          H           0.158182        0.8418     0.84182
   17          H           0.153755        0.8462     0.84624
   18          H           0.146904        0.8531     0.85310
   19          H           0.150864        0.8491     0.84914
   20          H           0.159540        0.8405     0.84046
   21          H           0.162771        0.8372     0.83723
   22          H           0.162998        0.8370     0.83700
   23          H           0.161554        0.8384     0.83845
 DIPOLE           X         Y         Z       TOTAL
 POINT-CHG.    -0.296    -0.209     0.124     0.383
 HYBRID        -0.041    -0.026    -0.196     0.202
 SUM           -0.337    -0.235    -0.072     0.417


          ATOMIC ORBITAL ELECTRON POPULATIONS

     Atom    s        px        py        pz   
    1  C   1.05531   1.09243   1.16636   1.14797
    2  C   1.05500   0.95363   0.97022   1.07272
    3  C   1.06393   1.05575   0.98568   1.07110
    4  C   1.05453   1.12095   1.13595   1.03609
    5  C   1.05913   0.92870   1.08833   1.08849
    6  C   1.05519   1.03449   1.00051   1.15442
    7  C   1.04859   1.12968   0.94523   1.08033
    8  C   1.05825   1.06961   1.01603   1.15933
    9  C   1.05329   0.94897   1.12748   1.08723
   10  H   0.84748
   11  H   0.84826
   12  H   0.84915
   13  H   0.85805
   14  H   0.84720
   15  H   0.83553
   16  H   0.84182
   17  H   0.84624
   18  H   0.85310
   19  H   0.84914
   20  H   0.84046
   21  H   0.83723
   22  H   0.83700
   23  H   0.83845

 **********************
 *                    *
 * JOB ENDED NORMALLY *
 *                    *
 **********************



 TOTAL JOB TIME:             2.05 SECONDS

 == MOPAC DONE ==
