 *******************************************************************************
 **                                                                           **
 **                              MOPAC v23.2                                  **
 **                                                                           **
 *******************************************************************************
 **          Digital Object Identifier (DOI): 10.5281/zenodo.6511958          **
 **    Visit the DOI location for information on how to cite this program.    **
 *******************************************************************************

                              PM7 CALCULATION RESULTS

 *******************************************************************************
 *  CALCULATION DONE: (MAX THREADS = 40)             Fri Sep 19 21:30:41 2025  *
 *  PM7        - The PM7 Hamiltonian to be used
 *
 *
 *
 *                 CHARGE ON SYSTEM = +1
 *
 *
 *
 *  1SCF       - DO 1 SCF AND THEN STOP 
 *  T=         - A TIME OF 172800.0 SECONDS REQUESTED
 *  DUMP=N     - RESTART FILE WRITTEN EVERY 7200.0 SECONDS REQUESTED
 *  RELSCF     - DEFAULT SCF CRITERION MULTIPLIED BY 0.0001
 *              (DEFAULT SCF CRITERION = 0.00010)
 *  GRADIENTS  - ALL GRADIENTS TO BE PRINTED
 *  DISP       - PRINT DISPERSION AND HYDROGEN BOND ENERGIES
 *******************************************************************************
PM7 1SCF GRADIENTS DISP RELSCF=0.0001 CHARGE=1
 Title: ASE calculation

   ATOM   CHEMICAL          X               Y               Z
  NUMBER   SYMBOL      (ANGSTROMS)     (ANGSTROMS)     (ANGSTROMS)

     1       C         -2.75113941  *  -1.15843099  *   0.74871812  *
     2       C         -2.42867709  *   0.26995561  *   0.28055968  *
     3       C         -2.67350956  *   0.42806242  *  -1.22592286  *
     4       C         -1.06823152  *   0.55616520  *   0.59217648  *
     5       C          0.17656994  *   0.78756183  *   0.88711240  *
     6       C          1.44957211  *   1.01490908  *   1.23278473  *
     7       O          2.38538368  *   1.16073542  *   1.89332327  *
     8       C          2.31332591  *   1.16855198  *  -0.71963446  *
     9       O          3.31038760  *   1.98243436  *  -0.44170740  *
    10       H         -2.51601242  *  -1.32023714  *   1.80947609  *
    11       H         -2.21537908  *  -1.91927191  *   0.16471410  *
    12       H         -3.82637931  *  -1.37247057  *   0.62749603  *
    13       H         -3.11128744  *   0.99311043  *   0.83537703  *
    14       H         -2.08583394  *  -0.28155799  *  -1.82390766  *
    15       H         -3.73311888  *   0.23122732  *  -1.46597775  *
    16       H         -2.45325012  *   1.44210330  *  -1.58527549  *
    17       H          2.46469227  *   0.11517501  *  -0.88672913  *
    18       H          1.49172051  *   1.70474002  *  -1.18244799  *
    19       H          4.17578085  *   1.50833846  *  -0.22587209  *



          CARTESIAN COORDINATES 

    NO.       ATOM           X           Y           Z

     1         C         -2.7511     -1.1584      0.7487
     2         C         -2.4287      0.2700      0.2806
     3         C         -2.6735      0.4281     -1.2259
     4         C         -1.0682      0.5562      0.5922
     5         C          0.1766      0.7876      0.8871
     6         C          1.4496      1.0149      1.2328
     7         O          2.3854      1.1607      1.8933
     8         C          2.3133      1.1686     -0.7196
     9         O          3.3104      1.9824     -0.4417
    10         H         -2.5160     -1.3202      1.8095
    11         H         -2.2154     -1.9193      0.1647
    12         H         -3.8264     -1.3725      0.6275
    13         H         -3.1113      0.9931      0.8354
    14         H         -2.0858     -0.2816     -1.8239
    15         H         -3.7331      0.2312     -1.4660
    16         H         -2.4533      1.4421     -1.5853
    17         H          2.4647      0.1152     -0.8867
    18         H          1.4917      1.7047     -1.1824
    19         H          4.1758      1.5083     -0.2259

 General Reference for PM7:
 "Optimization of Parameters for Semiempirical Methods VI: More Modifications to the 
 NDDO Approximations and Re-optimization of Parameters", J. J. P. Stewart, J. Mol. Mod., 1:32, 19 (2013)
 https://link.springer.com/article/10.1007/s00894-012-1667-x

           Empirical Formula: C7 H10 O2  =    19 atoms



      MOLECULAR POINT GROUP   :   C1  


          UHF CALCULATION, NO. OF ALPHA ELECTRONS =   25
                           NO. OF BETA  ELECTRONS =   24
  SCF CRITERION =    0.1000E-07

 -------------------------------------------------------------------------------
 PM7 1SCF GRADIENTS DISP RELSCF=0.0001 CHARGE=1
 Title: ASE calculation



     1SCF WAS SPECIFIED, SO BFGS WAS NOT USED                 
     SCF FIELD WAS ACHIEVED                                   


                              PM7 CALCULATION
                                                       MOPAC v23.2 Linux
                                                       Fri Sep 19 21:30:41 2025




          FINAL HEAT OF FORMATION =        158.55754 KCAL/MOL =     663.40475 KJ/MOL

          TOTAL ENERGY            =     -36324.59478 KCAL/MOL = ELECTRONIC ENERGY + CORE-CORE REPULSION
          ENERGY OF ATOMS         =      36482.50324 KCAL/MOL
                              SUM =        157.90846 KCAL/MOL
          DISPERSION ENERGY       =         -1.67688 KCAL/MOL
                              SUM =        156.23157 KCAL/MOL = FINAL HEAT OF FORMATION

     *    WARNING - An energy term is incorrect or missing!

     *    FINAL HEAT OF FORMATION     =    158.55754 KCAL/MOL
     *    SUM OF CONTRIBUTIONS TO HoF =    156.23157 KCAL/MOL
     *                     DIFFERENCE =      2.32597 KCAL/MOL



          TOTAL ENERGY            =      -1575.18351 EV
          ELECTRONIC ENERGY       =      -6817.60200 EV 
          CORE-CORE REPULSION     =       5242.41849 EV
          COSMO AREA              =        182.74 SQUARE ANGSTROMS
          COSMO VOLUME            =        175.39 CUBIC ANGSTROMS

          GRADIENT NORM           =          1.20146          =       0.27563 PER ATOM
          IONIZATION POTENTIAL    =         13.448179 EV
          ALPHA SOMO LUMO (EV)    =        -13.448 -5.729
          BETA  SOMO LUMO (EV)    =        -15.560 -6.056
          NO. OF ALPHA ELECTRONS  =         25
          NO. OF BETA  ELECTRONS  =         24
          MOLECULAR WEIGHT        =        126.1548         POINT GROUP:  C1  

          MOLECULAR DIMENSIONS (Angstroms)

            Atom       Atom       Distance
            H    19    H    12     8.54762
            O     7    H    16     4.34541
            H    13    H    11     3.03468


          SCF CALCULATIONS        =          1

          WALL-CLOCK TIME         =      0.742 SECONDS
          COMPUTATION TIME        =      0.308 SECONDS

          LARGEST ATOMIC GRADIENTS

          Atom     Label                     Cartesian Gradients           Cartesian Coordinates       |Gradient|
                                           X          Y          Z        X          Y          Z

            15       H                  -0.293     -0.253      0.132   -3.73312    0.23123   -1.46598      0.409
            10       H                   0.373     -0.123      0.016   -2.51601   -1.32024    1.80948      0.393
            19       H                   0.017     -0.337      0.148    4.17578    1.50834   -0.22587      0.368
            14       H                   0.063     -0.360     -0.004   -2.08583   -0.28156   -1.82391      0.366
             9       O                  -0.316      0.080     -0.145    3.31039    1.98243   -0.44171      0.357
             6       C                  -0.152      0.307      0.055    1.44957    1.01491    1.23278      0.347
             7       O                   0.135     -0.245      0.166    2.38538    1.16074    1.89332      0.325
             2       C                   0.032      0.291     -0.012   -2.42868    0.26996    0.28056      0.293
            17       H                  -0.150      0.041     -0.229    2.46469    0.11518   -0.88673      0.277
            11       H                   0.044      0.137     -0.228   -2.21538   -1.91927    0.16471      0.270



       FINAL  POINT  AND  DERIVATIVES

   PARAMETER     ATOM    TYPE            VALUE        GRADIENT
      1          1  C    CARTESIAN X    -2.751139      0.146834  KCAL/ANGSTROM
      2          1  C    CARTESIAN Y    -1.158431      0.188977  KCAL/ANGSTROM
      3          1  C    CARTESIAN Z     0.748718     -0.011330  KCAL/ANGSTROM
      4          2  C    CARTESIAN X    -2.428677      0.031794  KCAL/ANGSTROM
      5          2  C    CARTESIAN Y     0.269956      0.291296  KCAL/ANGSTROM
      6          2  C    CARTESIAN Z     0.280560     -0.011894  KCAL/ANGSTROM
      7          3  C    CARTESIAN X    -2.673510      0.065478  KCAL/ANGSTROM
      8          3  C    CARTESIAN Y     0.428062      0.048108  KCAL/ANGSTROM
      9          3  C    CARTESIAN Z    -1.225923     -0.144000  KCAL/ANGSTROM
     10          4  C    CARTESIAN X    -1.068232     -0.056227  KCAL/ANGSTROM
     11          4  C    CARTESIAN Y     0.556165      0.093748  KCAL/ANGSTROM
     12          4  C    CARTESIAN Z     0.592176      0.123736  KCAL/ANGSTROM
     13          5  C    CARTESIAN X     0.176570     -0.113324  KCAL/ANGSTROM
     14          5  C    CARTESIAN Y     0.787562     -0.027900  KCAL/ANGSTROM
     15          5  C    CARTESIAN Z     0.887112      0.025188  KCAL/ANGSTROM
     16          6  C    CARTESIAN X     1.449572     -0.152293  KCAL/ANGSTROM
     17          6  C    CARTESIAN Y     1.014909      0.307243  KCAL/ANGSTROM
     18          6  C    CARTESIAN Z     1.232785      0.054783  KCAL/ANGSTROM
     19          7  O    CARTESIAN X     2.385384      0.135303  KCAL/ANGSTROM
     20          7  O    CARTESIAN Y     1.160735     -0.244680  KCAL/ANGSTROM
     21          7  O    CARTESIAN Z     1.893323      0.165772  KCAL/ANGSTROM
     22          8  C    CARTESIAN X     2.313326      0.105527  KCAL/ANGSTROM
     23          8  C    CARTESIAN Y     1.168552     -0.030264  KCAL/ANGSTROM
     24          8  C    CARTESIAN Z    -0.719634      0.146141  KCAL/ANGSTROM
     25          9  O    CARTESIAN X     3.310388     -0.316135  KCAL/ANGSTROM
     26          9  O    CARTESIAN Y     1.982434      0.080152  KCAL/ANGSTROM
     27          9  O    CARTESIAN Z    -0.441707     -0.145399  KCAL/ANGSTROM
     28         10  H    CARTESIAN X    -2.516012      0.372580  KCAL/ANGSTROM
     29         10  H    CARTESIAN Y    -1.320237     -0.122510  KCAL/ANGSTROM
     30         10  H    CARTESIAN Z     1.809476      0.015887  KCAL/ANGSTROM
     31         11  H    CARTESIAN X    -2.215379      0.043637  KCAL/ANGSTROM
     32         11  H    CARTESIAN Y    -1.919272      0.136538  KCAL/ANGSTROM
     33         11  H    CARTESIAN Z     0.164714     -0.228362  KCAL/ANGSTROM
     34         12  H    CARTESIAN X    -3.826379      0.059113  KCAL/ANGSTROM
     35         12  H    CARTESIAN Y    -1.372471     -0.079807  KCAL/ANGSTROM
     36         12  H    CARTESIAN Z     0.627496      0.017307  KCAL/ANGSTROM
     37         13  H    CARTESIAN X    -3.111287     -0.148376  KCAL/ANGSTROM
     38         13  H    CARTESIAN Y     0.993110      0.069193  KCAL/ANGSTROM
     39         13  H    CARTESIAN Z     0.835377      0.032025  KCAL/ANGSTROM
     40         14  H    CARTESIAN X    -2.085834      0.063179  KCAL/ANGSTROM
     41         14  H    CARTESIAN Y    -0.281558     -0.360097  KCAL/ANGSTROM
     42         14  H    CARTESIAN Z    -1.823908     -0.004262  KCAL/ANGSTROM
     43         15  H    CARTESIAN X    -3.733119     -0.293001  KCAL/ANGSTROM
     44         15  H    CARTESIAN Y     0.231227     -0.252562  KCAL/ANGSTROM
     45         15  H    CARTESIAN Z    -1.465978      0.132222  KCAL/ANGSTROM
     46         16  H    CARTESIAN X    -2.453250      0.135695  KCAL/ANGSTROM
     47         16  H    CARTESIAN Y     1.442103      0.190738  KCAL/ANGSTROM
     48         16  H    CARTESIAN Z    -1.585275     -0.092307  KCAL/ANGSTROM
     49         17  H    CARTESIAN X     2.464692     -0.150262  KCAL/ANGSTROM
     50         17  H    CARTESIAN Y     0.115175      0.040853  KCAL/ANGSTROM
     51         17  H    CARTESIAN Z    -0.886729     -0.229077  KCAL/ANGSTROM
     52         18  H    CARTESIAN X     1.491721      0.053398  KCAL/ANGSTROM
     53         18  H    CARTESIAN Y     1.704740      0.007501  KCAL/ANGSTROM
     54         18  H    CARTESIAN Z    -1.182448      0.005266  KCAL/ANGSTROM
     55         19  H    CARTESIAN X     4.175781      0.017074  KCAL/ANGSTROM
     56         19  H    CARTESIAN Y     1.508338     -0.336530  KCAL/ANGSTROM
     57         19  H    CARTESIAN Z    -0.225872      0.148300  KCAL/ANGSTROM




   ATOM   CHEMICAL          X               Y               Z
  NUMBER   SYMBOL      (ANGSTROMS)     (ANGSTROMS)     (ANGSTROMS)

     1       C         -2.75113941  *  -1.15843099  *   0.74871812  *
     2       C         -2.42867709  *   0.26995561  *   0.28055968  *
     3       C         -2.67350956  *   0.42806242  *  -1.22592286  *
     4       C         -1.06823152  *   0.55616520  *   0.59217648  *
     5       C          0.17656994  *   0.78756183  *   0.88711240  *
     6       C          1.44957211  *   1.01490908  *   1.23278473  *
     7       O          2.38538368  *   1.16073542  *   1.89332327  *
     8       C          2.31332591  *   1.16855198  *  -0.71963446  *
     9       O          3.31038760  *   1.98243436  *  -0.44170740  *
    10       H         -2.51601242  *  -1.32023714  *   1.80947609  *
    11       H         -2.21537908  *  -1.91927191  *   0.16471410  *
    12       H         -3.82637931  *  -1.37247057  *   0.62749603  *
    13       H         -3.11128744  *   0.99311043  *   0.83537703  *
    14       H         -2.08583394  *  -0.28155799  *  -1.82390766  *
    15       H         -3.73311888  *   0.23122732  *  -1.46597775  *
    16       H         -2.45325012  *   1.44210330  *  -1.58527549  *
    17       H          2.46469227  *   0.11517501  *  -0.88672913  *
    18       H          1.49172051  *   1.70474002  *  -1.18244799  *
    19       H          4.17578085  *   1.50833846  *  -0.22587209  *

                             CARTESIAN COORDINATES

   1    C       -2.751139409    -1.158430992     0.748718120
   2    C       -2.428677089     0.269955608     0.280559678
   3    C       -2.673509560     0.428062422    -1.225922862
   4    C       -1.068231521     0.556165199     0.592176479
   5    C        0.176569945     0.787561832     0.887112396
   6    C        1.449572114     1.014909078     1.232784730
   7    O        2.385383681     1.160735419     1.893323265
   8    C        2.313325912     1.168551979    -0.719634460
   9    O        3.310387599     1.982434357    -0.441707396
  10    H       -2.516012423    -1.320237141     1.809476091
  11    H       -2.215379078    -1.919271913     0.164714096
  12    H       -3.826379314    -1.372470567     0.627496028
  13    H       -3.111287439     0.993110430     0.835377026
  14    H       -2.085833942    -0.281557989    -1.823907661
  15    H       -3.733118878     0.231227325    -1.465977755
  16    H       -2.453250120     1.442103305    -1.585275488
  17    H        2.464692266     0.115175015    -0.886729131
  18    H        1.491720508     1.704740015    -1.182447986
  19    H        4.175780851     1.508338459    -0.225872091


           Empirical Formula: C7 H10 O2  =    19 atoms



      MOLECULAR POINT GROUP   :   C1  


          ALPHA EIGENVALUES  
 -39.06355 -36.03252 -33.92519 -31.70565 -28.99889 -28.12880 -27.74713 -25.19319
 -23.18283 -22.27701 -21.22135 -21.08025 -20.80050 -20.26519 -19.78293 -18.90242
 -18.41594 -17.44099 -17.33536 -17.17385 -16.69697 -16.65724 -15.87974 -15.62324
 -13.44818  -5.72925  -5.62590  -3.74203  -3.22807  -2.17774  -2.11418  -1.36200
  -0.56833  -0.27730  -0.10404   0.40048   0.54883   0.81541   1.18857   1.35248
   1.74327   1.78681   1.81782   1.82244   2.88622   2.98217


           BETA EIGENVALUES 
 -38.45689 -35.25019 -33.91285 -31.60952 -28.82189 -28.12530 -27.47237 -25.14397
 -22.99928 -22.00366 -21.04375 -20.78715 -20.60680 -20.02201 -19.75998 -18.85260
 -17.48079 -17.33045 -17.22631 -17.14073 -16.66438 -16.62886 -15.71063 -15.56023
  -6.05596  -5.64668  -4.30112  -3.21132  -3.17504  -2.07884  -1.80044  -1.31360
  -0.56069  -0.27450   0.04776   0.53679   0.56441   0.91983   1.19468   1.51725
   1.74400   1.78811   1.81817   1.82263   2.88644   2.98239


              NET ATOMIC CHARGES AND DIPOLE CONTRIBUTIONS

  ATOM NO.   TYPE          CHARGE      No. of ELECS.   s-Pop       p-Pop       
    1          C          -0.434736        4.4347     1.05689     3.37785
    2          C          -0.126537        4.1265     1.05261     3.07392
    3          C          -0.435504        4.4355     1.05638     3.37912
    4          C           0.420990        3.5790     1.19258     2.38643
    5          C          -0.460039        4.4600     1.02711     3.43293
    6          C           0.563965        3.4360     1.12742     2.30862
    7          O          -0.072541        6.0725     1.87329     4.19925
    8          C          -0.100197        4.1002     1.16826     2.93194
    9          O          -0.304756        6.3048     1.83629     4.46846
   10          H           0.168479        0.8315     0.83152
   11          H           0.169534        0.8305     0.83047
   12          H           0.189433        0.8106     0.81057
   13          H           0.216564        0.7834     0.78344
   14          H           0.167149        0.8329     0.83285
   15          H           0.188784        0.8112     0.81122
   16          H           0.166540        0.8335     0.83346
   17          H           0.155749        0.8443     0.84425
   18          H           0.180829        0.8192     0.81917
   19          H           0.346293        0.6537     0.65371
 DIPOLE           X         Y         Z       TOTAL
 POINT-CHG.    -0.834    -1.369    -0.911     1.844
 HYBRID         1.249     0.217     0.201     1.283
 SUM            0.415    -1.153    -0.711     1.416


          ATOMIC ORBITAL ELECTRON POPULATIONS

     Atom    s        px        py        pz   
    1  C   1.05689   1.21137   0.98959   1.17689
    2  C   1.05261   0.93480   1.07890   1.06023
    3  C   1.05638   1.21623   1.19489   0.96801
    4  C   1.19258   0.93862   0.68794   0.75988
    5  C   1.02711   0.96588   1.25030   1.21675
    6  C   1.12742   0.85884   0.68094   0.76883
    7  O   1.87329   1.34463   1.44600   1.40862
    8  C   1.16826   0.92512   1.03504   0.97177
    9  O   1.83629   1.31658   1.43297   1.71892
   10  H   0.83152
   11  H   0.83047
   12  H   0.81057
   13  H   0.78344
   14  H   0.83285
   15  H   0.81122
   16  H   0.83346
   17  H   0.84425
   18  H   0.81917
   19  H   0.65371


                    (SZ)    =    0.500000
                    (S**2)  =    0.759796


          ATOMIC ORBITAL SPIN POPULATIONS

    Atom   Total    s     px     py     pz   
         Atomic
    1  C  0.0004  0.000  0.000  0.000  0.000
    2  C -0.0029 -0.000 -0.002 -0.000 -0.000
    3  C  0.0051  0.001  0.001  0.000  0.004
    4  C  0.0796  0.003  0.004  0.002  0.071
    5  C -0.0355  0.006  0.007 -0.005 -0.044
    6  C  0.0426  0.000  0.008 -0.011  0.045
    7  O  0.1915  0.005  0.017  0.015  0.154
    8  C  0.5234  0.019  0.051  0.011  0.443
    9  O  0.2150  0.009  0.027 -0.002  0.181
   10  H -0.0000 -0.000
   11  H -0.0000 -0.000
   12  H -0.0000 -0.000
   13  H  0.0013  0.001
   14  H -0.0002 -0.000
   15  H  0.0001  0.000
   16  H -0.0001 -0.000
   17  H -0.0059 -0.006
   18  H -0.0045 -0.005
   19  H -0.0098 -0.010

 **********************
 *                    *
 * JOB ENDED NORMALLY *
 *                    *
 **********************



 TOTAL JOB TIME:             1.24 SECONDS

 == MOPAC DONE ==
