 *******************************************************************************
 **                                                                           **
 **                              MOPAC v23.2                                  **
 **                                                                           **
 *******************************************************************************
 **          Digital Object Identifier (DOI): 10.5281/zenodo.6511958          **
 **    Visit the DOI location for information on how to cite this program.    **
 *******************************************************************************

                              PM7 CALCULATION RESULTS

 *******************************************************************************
 *  CALCULATION DONE: (MAX THREADS = 40)             Fri Sep 19 21:30:04 2025  *
 *  PM7        - The PM7 Hamiltonian to be used
 *
 *
 *
 *                 CHARGE ON SYSTEM = +1
 *
 *
 *
 *  1SCF       - DO 1 SCF AND THEN STOP 
 *  T=         - A TIME OF 172800.0 SECONDS REQUESTED
 *  DUMP=N     - RESTART FILE WRITTEN EVERY 7200.0 SECONDS REQUESTED
 *  RELSCF     - DEFAULT SCF CRITERION MULTIPLIED BY 0.0001
 *              (DEFAULT SCF CRITERION = 0.00010)
 *  GRADIENTS  - ALL GRADIENTS TO BE PRINTED
 *  DISP       - PRINT DISPERSION AND HYDROGEN BOND ENERGIES
 *******************************************************************************
PM7 1SCF GRADIENTS DISP RELSCF=0.0001 CHARGE=1
 Title: ASE calculation

   ATOM   CHEMICAL          X               Y               Z
  NUMBER   SYMBOL      (ANGSTROMS)     (ANGSTROMS)     (ANGSTROMS)

     1       C         -1.84733533  *   0.89542822  *  -0.91344652  *
     2       C         -0.74089094  *   0.82375985  *   0.14727231  *
     3       C         -0.59636471  *  -0.61211939  *   0.63394624  *
     4       C         -0.51733092  *  -1.77581387  *  -0.31931513  *
     5       C          0.68209379  *  -1.44649528  *   0.54280799  *
     6       C          1.95300135  *  -0.94234812  *  -0.15249883  *
     7       C          2.35028503  *   0.19567497  *   0.65336276  *
     8       C          1.71181289  *   1.48356135  *   0.50740868  *
     9       C          0.50022519  *   1.45164461  *  -0.34161592  *
    10       H         -1.58398803  *   0.35293102  *  -1.82872205  *
    11       H         -2.78492718  *   0.45855797  *  -0.53989320  *
    12       H         -2.06872751  *   1.93374258  *  -1.19724098  *
    13       H         -1.09260622  *   1.44648219  *   1.03025121  *
    14       H         -1.20092276  *  -0.76884442  *   1.54645768  *
    15       H         -0.48791219  *  -1.60593475  *  -1.39469476  *
    16       H         -1.08728900  *  -2.68733176  *  -0.11559839  *
    17       H          0.91494592  *  -2.11967679  *   1.38068260  *
    18       H          2.69864973  *  -1.77206508  *  -0.21734363  *
    19       H          1.71529907  *  -0.68331332  *  -1.22028816  *
    20       H          3.13773379  *   0.06708217  *   1.42169423  *
    21       H          2.46163648  *   2.25172442  *   0.12258789  *
    22       H          1.47695763  *   1.96263405  *   1.51027194  *
    23       H          0.50756863  *   1.96086879  *  -1.29170351  *



          CARTESIAN COORDINATES 

    NO.       ATOM           X           Y           Z

     1         C         -1.8473      0.8954     -0.9134
     2         C         -0.7409      0.8238      0.1473
     3         C         -0.5964     -0.6121      0.6339
     4         C         -0.5173     -1.7758     -0.3193
     5         C          0.6821     -1.4465      0.5428
     6         C          1.9530     -0.9423     -0.1525
     7         C          2.3503      0.1957      0.6534
     8         C          1.7118      1.4836      0.5074
     9         C          0.5002      1.4516     -0.3416
    10         H         -1.5840      0.3529     -1.8287
    11         H         -2.7849      0.4586     -0.5399
    12         H         -2.0687      1.9337     -1.1972
    13         H         -1.0926      1.4465      1.0303
    14         H         -1.2009     -0.7688      1.5465
    15         H         -0.4879     -1.6059     -1.3947
    16         H         -1.0873     -2.6873     -0.1156
    17         H          0.9149     -2.1197      1.3807
    18         H          2.6986     -1.7721     -0.2173
    19         H          1.7153     -0.6833     -1.2203
    20         H          3.1377      0.0671      1.4217
    21         H          2.4616      2.2517      0.1226
    22         H          1.4770      1.9626      1.5103
    23         H          0.5076      1.9609     -1.2917

 General Reference for PM7:
 "Optimization of Parameters for Semiempirical Methods VI: More Modifications to the 
 NDDO Approximations and Re-optimization of Parameters", J. J. P. Stewart, J. Mol. Mod., 1:32, 19 (2013)
 https://link.springer.com/article/10.1007/s00894-012-1667-x

           Empirical Formula: C9 H14  =    23 atoms



      MOLECULAR POINT GROUP   :   C1  


          UHF CALCULATION, NO. OF ALPHA ELECTRONS =   25
                           NO. OF BETA  ELECTRONS =   24
  SCF CRITERION =    0.1000E-07

 -------------------------------------------------------------------------------
 PM7 1SCF GRADIENTS DISP RELSCF=0.0001 CHARGE=1
 Title: ASE calculation



     1SCF WAS SPECIFIED, SO BFGS WAS NOT USED                 
     SCF FIELD WAS ACHIEVED                                   


                              PM7 CALCULATION
                                                       MOPAC v23.2 Linux
                                                       Fri Sep 19 21:30:05 2025




          FINAL HEAT OF FORMATION =        227.84685 KCAL/MOL =     953.31120 KJ/MOL

          TOTAL ENERGY            =     -29622.09474 KCAL/MOL = ELECTRONIC ENERGY + CORE-CORE REPULSION
          ENERGY OF ATOMS         =      29852.41387 KCAL/MOL
                              SUM =        230.31913 KCAL/MOL
          DISPERSION ENERGY       =         -2.47229 KCAL/MOL
                              SUM =        227.84685 KCAL/MOL = FINAL HEAT OF FORMATION



          TOTAL ENERGY            =      -1284.53560 EV
          ELECTRONIC ENERGY       =      -7309.01551 EV 
          CORE-CORE REPULSION     =       6024.47991 EV
          COSMO AREA              =        168.80 SQUARE ANGSTROMS
          COSMO VOLUME            =        175.25 CUBIC ANGSTROMS

          GRADIENT NORM           =          1.30685          =       0.27250 PER ATOM
          IONIZATION POTENTIAL    =         13.455850 EV
          ALPHA SOMO LUMO (EV)    =        -13.456 -6.803
          BETA  SOMO LUMO (EV)    =        -15.010 -6.736
          NO. OF ALPHA ELECTRONS  =         25
          NO. OF BETA  ELECTRONS  =         24
          MOLECULAR WEIGHT        =        122.2096         POINT GROUP:  C1  

          MOLECULAR DIMENSIONS (Angstroms)

            Atom       Atom       Distance
            H    20    H    11     6.25132
            H    21    H    16     5.22138
            H    19    H    14     3.45670


          SCF CALCULATIONS        =          1

          WALL-CLOCK TIME         =      1.266 SECONDS
          COMPUTATION TIME        =      0.750 SECONDS

          LARGEST ATOMIC GRADIENTS

          Atom     Label                     Cartesian Gradients           Cartesian Coordinates       |Gradient|
                                           X          Y          Z        X          Y          Z

             4       C                   0.248     -0.316     -0.003   -0.51733   -1.77581   -0.31932      0.401
            10       H                  -0.085     -0.381      0.062   -1.58399    0.35293   -1.82872      0.395
             7       C                  -0.053      0.054      0.386    2.35029    0.19567    0.65336      0.393
            15       H                   0.001      0.260      0.255   -0.48791   -1.60593   -1.39469      0.364
            13       H                  -0.018      0.321     -0.017   -1.09261    1.44648    1.03025      0.321
             2       C                  -0.253      0.014      0.193   -0.74089    0.82376    0.14727      0.319
             5       C                   0.076     -0.203     -0.228    0.68209   -1.44650    0.54281      0.315
            14       H                  -0.110      0.158     -0.225   -1.20092   -0.76884    1.54646      0.297
            11       H                   0.239     -0.092      0.118   -2.78493    0.45856   -0.53989      0.282
             8       C                   0.099      0.258      0.002    1.71181    1.48356    0.50741      0.276



       FINAL  POINT  AND  DERIVATIVES

   PARAMETER     ATOM    TYPE            VALUE        GRADIENT
      1          1  C    CARTESIAN X    -1.847335     -0.028631  KCAL/ANGSTROM
      2          1  C    CARTESIAN Y     0.895428      0.098921  KCAL/ANGSTROM
      3          1  C    CARTESIAN Z    -0.913447      0.001183  KCAL/ANGSTROM
      4          2  C    CARTESIAN X    -0.740891     -0.253111  KCAL/ANGSTROM
      5          2  C    CARTESIAN Y     0.823760      0.014061  KCAL/ANGSTROM
      6          2  C    CARTESIAN Z     0.147272      0.192864  KCAL/ANGSTROM
      7          3  C    CARTESIAN X    -0.596365     -0.014012  KCAL/ANGSTROM
      8          3  C    CARTESIAN Y    -0.612119     -0.152240  KCAL/ANGSTROM
      9          3  C    CARTESIAN Z     0.633946     -0.213349  KCAL/ANGSTROM
     10          4  C    CARTESIAN X    -0.517331      0.247982  KCAL/ANGSTROM
     11          4  C    CARTESIAN Y    -1.775814     -0.315607  KCAL/ANGSTROM
     12          4  C    CARTESIAN Z    -0.319315     -0.002643  KCAL/ANGSTROM
     13          5  C    CARTESIAN X     0.682094      0.075582  KCAL/ANGSTROM
     14          5  C    CARTESIAN Y    -1.446495     -0.202970  KCAL/ANGSTROM
     15          5  C    CARTESIAN Z     0.542808     -0.228163  KCAL/ANGSTROM
     16          6  C    CARTESIAN X     1.953001     -0.106503  KCAL/ANGSTROM
     17          6  C    CARTESIAN Y    -0.942348      0.170792  KCAL/ANGSTROM
     18          6  C    CARTESIAN Z    -0.152499      0.105804  KCAL/ANGSTROM
     19          7  C    CARTESIAN X     2.350285     -0.053364  KCAL/ANGSTROM
     20          7  C    CARTESIAN Y     0.195675      0.054202  KCAL/ANGSTROM
     21          7  C    CARTESIAN Z     0.653363      0.385513  KCAL/ANGSTROM
     22          8  C    CARTESIAN X     1.711813      0.099462  KCAL/ANGSTROM
     23          8  C    CARTESIAN Y     1.483561      0.257559  KCAL/ANGSTROM
     24          8  C    CARTESIAN Z     0.507409      0.002201  KCAL/ANGSTROM
     25          9  C    CARTESIAN X     0.500225     -0.086413  KCAL/ANGSTROM
     26          9  C    CARTESIAN Y     1.451645     -0.135976  KCAL/ANGSTROM
     27          9  C    CARTESIAN Z    -0.341616      0.200958  KCAL/ANGSTROM
     28         10  H    CARTESIAN X    -1.583988     -0.085182  KCAL/ANGSTROM
     29         10  H    CARTESIAN Y     0.352931     -0.381072  KCAL/ANGSTROM
     30         10  H    CARTESIAN Z    -1.828722      0.062265  KCAL/ANGSTROM
     31         11  H    CARTESIAN X    -2.784927      0.239056  KCAL/ANGSTROM
     32         11  H    CARTESIAN Y     0.458558     -0.092351  KCAL/ANGSTROM
     33         11  H    CARTESIAN Z    -0.539893      0.117573  KCAL/ANGSTROM
     34         12  H    CARTESIAN X    -2.068728      0.164845  KCAL/ANGSTROM
     35         12  H    CARTESIAN Y     1.933743      0.217826  KCAL/ANGSTROM
     36         12  H    CARTESIAN Z    -1.197241     -0.036664  KCAL/ANGSTROM
     37         13  H    CARTESIAN X    -1.092606     -0.018239  KCAL/ANGSTROM
     38         13  H    CARTESIAN Y     1.446482      0.320521  KCAL/ANGSTROM
     39         13  H    CARTESIAN Z     1.030251     -0.017191  KCAL/ANGSTROM
     40         14  H    CARTESIAN X    -1.200923     -0.110378  KCAL/ANGSTROM
     41         14  H    CARTESIAN Y    -0.768844      0.158453  KCAL/ANGSTROM
     42         14  H    CARTESIAN Z     1.546458     -0.225241  KCAL/ANGSTROM
     43         15  H    CARTESIAN X    -0.487912      0.000976  KCAL/ANGSTROM
     44         15  H    CARTESIAN Y    -1.605935      0.260120  KCAL/ANGSTROM
     45         15  H    CARTESIAN Z    -1.394695      0.255016  KCAL/ANGSTROM
     46         16  H    CARTESIAN X    -1.087289     -0.170886  KCAL/ANGSTROM
     47         16  H    CARTESIAN Y    -2.687332     -0.065936  KCAL/ANGSTROM
     48         16  H    CARTESIAN Z    -0.115598      0.118908  KCAL/ANGSTROM
     49         17  H    CARTESIAN X     0.914946     -0.052981  KCAL/ANGSTROM
     50         17  H    CARTESIAN Y    -2.119677     -0.151268  KCAL/ANGSTROM
     51         17  H    CARTESIAN Z     1.380683     -0.144004  KCAL/ANGSTROM
     52         18  H    CARTESIAN X     2.698650     -0.066484  KCAL/ANGSTROM
     53         18  H    CARTESIAN Y    -1.772065     -0.037974  KCAL/ANGSTROM
     54         18  H    CARTESIAN Z    -0.217344     -0.092075  KCAL/ANGSTROM
     55         19  H    CARTESIAN X     1.715299      0.072463  KCAL/ANGSTROM
     56         19  H    CARTESIAN Y    -0.683313     -0.000631  KCAL/ANGSTROM
     57         19  H    CARTESIAN Z    -1.220288     -0.262175  KCAL/ANGSTROM
     58         20  H    CARTESIAN X     3.137734      0.165332  KCAL/ANGSTROM
     59         20  H    CARTESIAN Y     0.067082      0.034909  KCAL/ANGSTROM
     60         20  H    CARTESIAN Z     1.421694     -0.020460  KCAL/ANGSTROM
     61         21  H    CARTESIAN X     2.461636     -0.051416  KCAL/ANGSTROM
     62         21  H    CARTESIAN Y     2.251724     -0.003558  KCAL/ANGSTROM
     63         21  H    CARTESIAN Z     0.122588     -0.014832  KCAL/ANGSTROM
     64         22  H    CARTESIAN X     1.476958     -0.078046  KCAL/ANGSTROM
     65         22  H    CARTESIAN Y     1.962634     -0.022244  KCAL/ANGSTROM
     66         22  H    CARTESIAN Z     1.510272     -0.218085  KCAL/ANGSTROM
     67         23  H    CARTESIAN X     0.507569      0.109948  KCAL/ANGSTROM
     68         23  H    CARTESIAN Y     1.960869     -0.025537  KCAL/ANGSTROM
     69         23  H    CARTESIAN Z    -1.291704      0.032590  KCAL/ANGSTROM




   ATOM   CHEMICAL          X               Y               Z
  NUMBER   SYMBOL      (ANGSTROMS)     (ANGSTROMS)     (ANGSTROMS)

     1       C         -1.84733533  *   0.89542822  *  -0.91344652  *
     2       C         -0.74089094  *   0.82375985  *   0.14727231  *
     3       C         -0.59636471  *  -0.61211939  *   0.63394624  *
     4       C         -0.51733092  *  -1.77581387  *  -0.31931513  *
     5       C          0.68209379  *  -1.44649528  *   0.54280799  *
     6       C          1.95300135  *  -0.94234812  *  -0.15249883  *
     7       C          2.35028503  *   0.19567497  *   0.65336276  *
     8       C          1.71181289  *   1.48356135  *   0.50740868  *
     9       C          0.50022519  *   1.45164461  *  -0.34161592  *
    10       H         -1.58398803  *   0.35293102  *  -1.82872205  *
    11       H         -2.78492718  *   0.45855797  *  -0.53989320  *
    12       H         -2.06872751  *   1.93374258  *  -1.19724098  *
    13       H         -1.09260622  *   1.44648219  *   1.03025121  *
    14       H         -1.20092276  *  -0.76884442  *   1.54645768  *
    15       H         -0.48791219  *  -1.60593475  *  -1.39469476  *
    16       H         -1.08728900  *  -2.68733176  *  -0.11559839  *
    17       H          0.91494592  *  -2.11967679  *   1.38068260  *
    18       H          2.69864973  *  -1.77206508  *  -0.21734363  *
    19       H          1.71529907  *  -0.68331332  *  -1.22028816  *
    20       H          3.13773379  *   0.06708217  *   1.42169423  *
    21       H          2.46163648  *   2.25172442  *   0.12258789  *
    22       H          1.47695763  *   1.96263405  *   1.51027194  *
    23       H          0.50756863  *   1.96086879  *  -1.29170351  *

                             CARTESIAN COORDINATES

   1    C       -1.847335332     0.895428220    -0.913446515
   2    C       -0.740890942     0.823759847     0.147272310
   3    C       -0.596364709    -0.612119385     0.633946239
   4    C       -0.517330918    -1.775813872    -0.319315125
   5    C        0.682093795    -1.446495283     0.542807989
   6    C        1.953001349    -0.942348121    -0.152498830
   7    C        2.350285030     0.195674969     0.653362759
   8    C        1.711812894     1.483561355     0.507408676
   9    C        0.500225192     1.451644609    -0.341615920
  10    H       -1.583988030     0.352931022    -1.828722051
  11    H       -2.784927175     0.458557971    -0.539893202
  12    H       -2.068727510     1.933742580    -1.197240976
  13    H       -1.092606219     1.446482186     1.030251208
  14    H       -1.200922764    -0.768844422     1.546457685
  15    H       -0.487912186    -1.605934753    -1.394694765
  16    H       -1.087289002    -2.687331763    -0.115598387
  17    H        0.914945925    -2.119676792     1.380682601
  18    H        2.698649727    -1.772065076    -0.217343631
  19    H        1.715299073    -0.683313317    -1.220288157
  20    H        3.137733787     0.067082171     1.421694227
  21    H        2.461636479     2.251724420     0.122587885
  22    H        1.476957632     1.962634049     1.510271936
  23    H        0.507568626     1.960868791    -1.291703505


           Empirical Formula: C9 H14  =    23 atoms



      MOLECULAR POINT GROUP   :   C1  


          ALPHA EIGENVALUES  
 -36.24286 -33.73849 -32.14476 -29.71538 -27.43695 -26.09154 -24.45807 -23.72864
 -22.78454 -22.21352 -20.99369 -20.38640 -19.76606 -19.36726 -18.69927 -18.47377
 -17.69764 -17.35314 -16.71171 -16.37179 -16.02792 -15.70922 -15.31989 -15.04546
 -13.45585  -6.80324  -2.19570  -1.97837  -1.63690  -1.18147  -1.12572  -0.59827
  -0.52024  -0.24225   0.04338   0.20502   0.34293   0.48123   0.61543   0.89294
   1.20087   1.48072   1.85576   1.94199   2.07341   2.20712   2.52658   2.57509
   2.68761   3.70174


           BETA EIGENVALUES 
 -36.19814 -33.70473 -32.03919 -29.68826 -27.28851 -26.06079 -24.42549 -23.62470
 -22.66420 -22.13717 -20.94319 -20.28954 -19.69772 -19.25185 -18.61020 -18.39327
 -17.67227 -17.34674 -16.67519 -16.33639 -15.92802 -15.62981 -15.23643 -15.00989
  -6.73583  -3.97541  -2.16865  -1.80595  -1.60932  -1.12648  -1.05198  -0.55872
  -0.41310  -0.21578   0.12226   0.23101   0.41529   0.60694   0.66759   0.97000
   1.20873   1.49046   1.89213   2.04336   2.17858   2.24572   2.52908   2.57649
   2.68927   3.70142


              NET ATOMIC CHARGES AND DIPOLE CONTRIBUTIONS

  ATOM NO.   TYPE          CHARGE      No. of ELECS.   s-Pop       p-Pop       
    1          C          -0.439173        4.4392     1.05574     3.38343
    2          C          -0.111095        4.1111     1.04945     3.06164
    3          C          -0.158348        4.1583     1.06149     3.09686
    4          C          -0.274081        4.2741     1.06070     3.21338
    5          C          -0.191317        4.1913     1.05154     3.13978
    6          C          -0.385119        4.3851     1.06816     3.31696
    7          C           0.419477        3.5805     1.19902     2.38151
    8          C          -0.410256        4.4103     1.06161     3.34864
    9          C          -0.160218        4.1602     1.11754     3.04268
   10          H           0.156208        0.8438     0.84379
   11          H           0.171663        0.8283     0.82834
   12          H           0.166188        0.8338     0.83381
   13          H           0.175708        0.8243     0.82429
   14          H           0.180879        0.8191     0.81912
   15          H           0.176567        0.8234     0.82343
   16          H           0.189285        0.8107     0.81071
   17          H           0.186741        0.8133     0.81326
   18          H           0.215031        0.7850     0.78497
   19          H           0.228914        0.7711     0.77109
   20          H           0.176151        0.8238     0.82385
   21          H           0.261152        0.7388     0.73885
   22          H           0.251093        0.7489     0.74891
   23          H           0.174549        0.8255     0.82545
 DIPOLE           X         Y         Z       TOTAL
 POINT-CHG.     5.351     1.178     1.742     5.749
 HYBRID         0.590     0.156     0.122     0.622
 SUM            5.941     1.334     1.864     6.368


          ATOMIC ORBITAL ELECTRON POPULATIONS

     Atom    s        px        py        pz   
    1  C   1.05574   1.09066   1.19578   1.09699
    2  C   1.04945   0.99234   0.98417   1.08513
    3  C   1.06149   1.01924   0.96812   1.10950
    4  C   1.06070   1.02749   1.09677   1.08911
    5  C   1.05154   0.87976   1.13276   1.12726
    6  C   1.06816   1.11456   1.07302   1.12937
    7  C   1.19902   0.69054   0.92886   0.76211
    8  C   1.06161   1.11324   1.04509   1.19032
    9  C   1.11754   0.94076   1.05267   1.04925
   10  H   0.84379
   11  H   0.82834
   12  H   0.83381
   13  H   0.82429
   14  H   0.81912
   15  H   0.82343
   16  H   0.81071
   17  H   0.81326
   18  H   0.78497
   19  H   0.77109
   20  H   0.82385
   21  H   0.73885
   22  H   0.74891
   23  H   0.82545


                    (SZ)    =    0.500000
                    (S**2)  =    0.754062


          ATOMIC ORBITAL SPIN POPULATIONS

    Atom   Total    s     px     py     pz   
         Atomic
    1  C  0.0033  0.001  0.001  0.000  0.001
    2  C -0.0473 -0.006 -0.021 -0.013 -0.007
    3  C  0.0305  0.007  0.002  0.018  0.004
    4  C -0.0013 -0.000 -0.001 -0.000 -0.000
    5  C -0.0012  0.000 -0.000 -0.001 -0.000
    6  C -0.0011 -0.000 -0.000 -0.001  0.000
    7  C  0.0486  0.009 -0.001  0.026  0.015
    8  C -0.0489 -0.006 -0.021 -0.010 -0.013
    9  C  0.9957  0.026  0.114  0.659  0.197
   10  H -0.0003 -0.000
   11  H -0.0007 -0.001
   12  H -0.0003 -0.000
   13  H  0.0352  0.035
   14  H -0.0011 -0.001
   15  H  0.0002  0.000
   16  H  0.0006  0.001
   17  H  0.0000  0.000
   18  H  0.0001  0.000
   19  H -0.0005 -0.000
   20  H  0.0001  0.000
   21  H  0.0044  0.004
   22  H  0.0118  0.012
   23  H -0.0279 -0.028

 **********************
 *                    *
 * JOB ENDED NORMALLY *
 *                    *
 **********************



 TOTAL JOB TIME:             1.68 SECONDS

 == MOPAC DONE ==
