 *******************************************************************************
 **                                                                           **
 **                              MOPAC v23.2                                  **
 **                                                                           **
 *******************************************************************************
 **          Digital Object Identifier (DOI): 10.5281/zenodo.6511958          **
 **    Visit the DOI location for information on how to cite this program.    **
 *******************************************************************************

                              PM7 CALCULATION RESULTS

 *******************************************************************************
 *  CALCULATION DONE: (MAX THREADS = 40)             Fri Sep 19 21:51:32 2025  *
 *  PM7        - The PM7 Hamiltonian to be used
 *  1SCF       - DO 1 SCF AND THEN STOP 
 *  T=         - A TIME OF 172800.0 SECONDS REQUESTED
 *  DUMP=N     - RESTART FILE WRITTEN EVERY 7200.0 SECONDS REQUESTED
 *  RELSCF     - DEFAULT SCF CRITERION MULTIPLIED BY 0.0001
 *              (DEFAULT SCF CRITERION = 0.00010)
 *  GRADIENTS  - ALL GRADIENTS TO BE PRINTED
 *  DISP       - PRINT DISPERSION AND HYDROGEN BOND ENERGIES
 *******************************************************************************
PM7 1SCF GRADIENTS DISP RELSCF=0.0001
 Title: ASE calculation

   ATOM   CHEMICAL          X               Y               Z
  NUMBER   SYMBOL      (ANGSTROMS)     (ANGSTROMS)     (ANGSTROMS)

     1       C          2.47924909  *  -0.83275726  *  -1.14416624  *
     2       C          2.17609244  *   0.00811185  *   0.09568446  *
     3       C          0.73279135  *   0.45759456  *   0.06304989  *
     4       N         -0.03056003  *   0.67375462  *   1.30970777  *
     5       C         -0.35986844  *  -0.51043551  *   0.48234572  *
     6       C         -1.71243614  *  -0.50921131  *  -0.22087319  *
     7       C         -1.84140107  *  -1.75742107  *  -1.10072418  *
     8       O         -1.80480136  *   0.56166929  *  -1.14715869  *
     9       C         -2.31667904  *   1.76220090  *  -0.59614248  *
    10       H          1.81889558  *  -1.70643517  *  -1.20374988  *
    11       H          2.33340557  *  -0.25458354  *  -2.06516275  *
    12       H          3.51237778  *  -1.19594007  *  -1.13949548  *
    13       H          2.84386539  *   0.89278317  *   0.13126682  *
    14       H          2.40132209  *  -0.57038017  *   1.01190126  *
    15       H          0.50832721  *   1.18531355  *  -0.73524521  *
    16       H          0.45296636  *   0.49040897  *   2.17930034  *
    17       H         -0.07368058  *  -1.50701707  *   0.83953466  *
    18       H         -2.53375453  *  -0.44865549  *   0.52807487  *
    19       H         -1.02856330  *  -1.80195317  *  -1.83716275  *
    20       H         -1.82414428  *  -2.67555212  *  -0.50815226  *
    21       H         -2.78042075  *  -1.73106297  *  -1.66832402  *
    22       H         -1.69781794  *   2.11158755  *   0.24050241  *
    23       H         -3.35446711  *   1.62730378  *  -0.27880258  *
    24       H         -2.25657202  *   2.46300536  *  -1.43622396  *



          CARTESIAN COORDINATES 

    NO.       ATOM           X           Y           Z

     1         C          2.4792     -0.8328     -1.1442
     2         C          2.1761      0.0081      0.0957
     3         C          0.7328      0.4576      0.0630
     4         N         -0.0306      0.6738      1.3097
     5         C         -0.3599     -0.5104      0.4823
     6         C         -1.7124     -0.5092     -0.2209
     7         C         -1.8414     -1.7574     -1.1007
     8         O         -1.8048      0.5617     -1.1472
     9         C         -2.3167      1.7622     -0.5961
    10         H          1.8189     -1.7064     -1.2037
    11         H          2.3334     -0.2546     -2.0652
    12         H          3.5124     -1.1959     -1.1395
    13         H          2.8439      0.8928      0.1313
    14         H          2.4013     -0.5704      1.0119
    15         H          0.5083      1.1853     -0.7352
    16         H          0.4530      0.4904      2.1793
    17         H         -0.0737     -1.5070      0.8395
    18         H         -2.5338     -0.4487      0.5281
    19         H         -1.0286     -1.8020     -1.8372
    20         H         -1.8241     -2.6756     -0.5082
    21         H         -2.7804     -1.7311     -1.6683
    22         H         -1.6978      2.1116      0.2405
    23         H         -3.3545      1.6273     -0.2788
    24         H         -2.2566      2.4630     -1.4362

 General Reference for PM7:
 "Optimization of Parameters for Semiempirical Methods VI: More Modifications to the 
 NDDO Approximations and Re-optimization of Parameters", J. J. P. Stewart, J. Mol. Mod., 1:32, 19 (2013)
 https://link.springer.com/article/10.1007/s00894-012-1667-x

           Empirical Formula: C7 H15 N O  =    24 atoms



      MOLECULAR POINT GROUP   :   C1  


      RHF CALCULATION, NO. OF DOUBLY OCCUPIED LEVELS = 27

  SCF CRITERION =    0.1000E-07

 -------------------------------------------------------------------------------
 PM7 1SCF GRADIENTS DISP RELSCF=0.0001
 Title: ASE calculation



     1SCF WAS SPECIFIED, SO BFGS WAS NOT USED                 
     SCF FIELD WAS ACHIEVED                                   


                              PM7 CALCULATION
                                                       MOPAC v23.2 Linux
                                                       Fri Sep 19 21:51:33 2025




          FINAL HEAT OF FORMATION =        -29.56137 KCAL/MOL =    -123.68476 KJ/MOL

          TOTAL ENERGY            =     -35580.25054 KCAL/MOL = ELECTRONIC ENERGY + CORE-CORE REPULSION
          ENERGY OF ATOMS         =      35553.47302 KCAL/MOL
                              SUM =        -26.77752 KCAL/MOL
          DISPERSION ENERGY       =         -2.78385 KCAL/MOL
                              SUM =        -29.56137 KCAL/MOL = FINAL HEAT OF FORMATION



          TOTAL ENERGY            =      -1542.90569 EV
          ELECTRONIC ENERGY       =      -8253.10199 EV 
          CORE-CORE REPULSION     =       6710.19630 EV
          COSMO AREA              =        181.21 SQUARE ANGSTROMS
          COSMO VOLUME            =        186.48 CUBIC ANGSTROMS

          GRADIENT NORM           =          0.85986          =       0.17552 PER ATOM
          IONIZATION POTENTIAL    =          9.442534 EV
          HOMO LUMO ENERGIES (EV) =         -9.443  2.452
          NO. OF FILLED LEVELS    =         27
          MOLECULAR WEIGHT        =        129.2016         POINT GROUP:  C1  

          MOLECULAR DIMENSIONS (Angstroms)

            Atom       Atom       Distance
            H    23    H    12     7.47429
            H    21    H    16     5.22907
            H    24    H    20     4.31959


          SCF CALCULATIONS        =          1

          WALL-CLOCK TIME         =      0.805 SECONDS
          COMPUTATION TIME        =      0.625 SECONDS

          LARGEST ATOMIC GRADIENTS

          Atom     Label                     Cartesian Gradients           Cartesian Coordinates       |Gradient|
                                           X          Y          Z        X          Y          Z

             3       C                   0.261      0.259      0.104    0.73279    0.45759    0.06305      0.382
             8       O                   0.081      0.107     -0.217   -1.80480    0.56167   -1.14716      0.255
            12       H                  -0.216     -0.098      0.033    3.51238   -1.19594   -1.13950      0.239
             4       N                   0.198     -0.119      0.006   -0.03056    0.67375    1.30971      0.232
            19       H                   0.129     -0.011     -0.188   -1.02856   -1.80195   -1.83716      0.228
            14       H                  -0.129      0.128      0.131    2.40132   -0.57038    1.01190      0.224
            18       H                  -0.085     -0.068      0.183   -2.53375   -0.44866    0.52807      0.213
            17       H                   0.190     -0.038     -0.063   -0.07368   -1.50702    0.83953      0.204
            13       H                  -0.061     -0.173     -0.054    2.84387    0.89278    0.13127      0.191
             6       C                  -0.061      0.144     -0.063   -1.71244   -0.50921   -0.22087      0.169



       FINAL  POINT  AND  DERIVATIVES

   PARAMETER     ATOM    TYPE            VALUE        GRADIENT
      1          1  C    CARTESIAN X     2.479249     -0.128772  KCAL/ANGSTROM
      2          1  C    CARTESIAN Y    -0.832757      0.031211  KCAL/ANGSTROM
      3          1  C    CARTESIAN Z    -1.144166      0.011417  KCAL/ANGSTROM
      4          2  C    CARTESIAN X     2.176092      0.032247  KCAL/ANGSTROM
      5          2  C    CARTESIAN Y     0.008112     -0.038961  KCAL/ANGSTROM
      6          2  C    CARTESIAN Z     0.095684      0.027981  KCAL/ANGSTROM
      7          3  C    CARTESIAN X     0.732791      0.261320  KCAL/ANGSTROM
      8          3  C    CARTESIAN Y     0.457595      0.258725  KCAL/ANGSTROM
      9          3  C    CARTESIAN Z     0.063050      0.103713  KCAL/ANGSTROM
     10          4  N    CARTESIAN X    -0.030560      0.198372  KCAL/ANGSTROM
     11          4  N    CARTESIAN Y     0.673755     -0.119419  KCAL/ANGSTROM
     12          4  N    CARTESIAN Z     1.309708      0.005500  KCAL/ANGSTROM
     13          5  C    CARTESIAN X    -0.359868     -0.085923  KCAL/ANGSTROM
     14          5  C    CARTESIAN Y    -0.510436     -0.016503  KCAL/ANGSTROM
     15          5  C    CARTESIAN Z     0.482346      0.038404  KCAL/ANGSTROM
     16          6  C    CARTESIAN X    -1.712436     -0.061070  KCAL/ANGSTROM
     17          6  C    CARTESIAN Y    -0.509211      0.144327  KCAL/ANGSTROM
     18          6  C    CARTESIAN Z    -0.220873     -0.063202  KCAL/ANGSTROM
     19          7  C    CARTESIAN X    -1.841401      0.076546  KCAL/ANGSTROM
     20          7  C    CARTESIAN Y    -1.757421      0.015856  KCAL/ANGSTROM
     21          7  C    CARTESIAN Z    -1.100724     -0.032993  KCAL/ANGSTROM
     22          8  O    CARTESIAN X    -1.804801      0.081230  KCAL/ANGSTROM
     23          8  O    CARTESIAN Y     0.561669      0.106627  KCAL/ANGSTROM
     24          8  O    CARTESIAN Z    -1.147159     -0.216528  KCAL/ANGSTROM
     25          9  C    CARTESIAN X    -2.316679     -0.040782  KCAL/ANGSTROM
     26          9  C    CARTESIAN Y     1.762201      0.025371  KCAL/ANGSTROM
     27          9  C    CARTESIAN Z    -0.596142      0.006509  KCAL/ANGSTROM
     28         10  H    CARTESIAN X     1.818896     -0.044581  KCAL/ANGSTROM
     29         10  H    CARTESIAN Y    -1.706435      0.010708  KCAL/ANGSTROM
     30         10  H    CARTESIAN Z    -1.203750      0.112636  KCAL/ANGSTROM
     31         11  H    CARTESIAN X     2.333406      0.010870  KCAL/ANGSTROM
     32         11  H    CARTESIAN Y    -0.254584      0.013283  KCAL/ANGSTROM
     33         11  H    CARTESIAN Z    -2.065163     -0.064200  KCAL/ANGSTROM
     34         12  H    CARTESIAN X     3.512378     -0.216148  KCAL/ANGSTROM
     35         12  H    CARTESIAN Y    -1.195940     -0.097800  KCAL/ANGSTROM
     36         12  H    CARTESIAN Z    -1.139495      0.032650  KCAL/ANGSTROM
     37         13  H    CARTESIAN X     2.843865     -0.060611  KCAL/ANGSTROM
     38         13  H    CARTESIAN Y     0.892783     -0.172805  KCAL/ANGSTROM
     39         13  H    CARTESIAN Z     0.131267     -0.054365  KCAL/ANGSTROM
     40         14  H    CARTESIAN X     2.401322     -0.128726  KCAL/ANGSTROM
     41         14  H    CARTESIAN Y    -0.570380      0.127870  KCAL/ANGSTROM
     42         14  H    CARTESIAN Z     1.011901      0.130935  KCAL/ANGSTROM
     43         15  H    CARTESIAN X     0.508327     -0.113687  KCAL/ANGSTROM
     44         15  H    CARTESIAN Y     1.185314     -0.023630  KCAL/ANGSTROM
     45         15  H    CARTESIAN Z    -0.735245     -0.012663  KCAL/ANGSTROM
     46         16  H    CARTESIAN X     0.452966     -0.071532  KCAL/ANGSTROM
     47         16  H    CARTESIAN Y     0.490409      0.047597  KCAL/ANGSTROM
     48         16  H    CARTESIAN Z     2.179300     -0.118820  KCAL/ANGSTROM
     49         17  H    CARTESIAN X    -0.073681      0.189598  KCAL/ANGSTROM
     50         17  H    CARTESIAN Y    -1.507017     -0.038165  KCAL/ANGSTROM
     51         17  H    CARTESIAN Z     0.839535     -0.063375  KCAL/ANGSTROM
     52         18  H    CARTESIAN X    -2.533755     -0.085272  KCAL/ANGSTROM
     53         18  H    CARTESIAN Y    -0.448655     -0.067923  KCAL/ANGSTROM
     54         18  H    CARTESIAN Z     0.528075      0.183105  KCAL/ANGSTROM
     55         19  H    CARTESIAN X    -1.028563      0.129102  KCAL/ANGSTROM
     56         19  H    CARTESIAN Y    -1.801953     -0.010981  KCAL/ANGSTROM
     57         19  H    CARTESIAN Z    -1.837163     -0.188077  KCAL/ANGSTROM
     58         20  H    CARTESIAN X    -1.824144      0.026817  KCAL/ANGSTROM
     59         20  H    CARTESIAN Y    -2.675552     -0.089862  KCAL/ANGSTROM
     60         20  H    CARTESIAN Z    -0.508152      0.047682  KCAL/ANGSTROM
     61         21  H    CARTESIAN X    -2.780421      0.005527  KCAL/ANGSTROM
     62         21  H    CARTESIAN Y    -1.731063     -0.049496  KCAL/ANGSTROM
     63         21  H    CARTESIAN Z    -1.668324     -0.030241  KCAL/ANGSTROM
     64         22  H    CARTESIAN X    -1.697818      0.093748  KCAL/ANGSTROM
     65         22  H    CARTESIAN Y     2.111588      0.054721  KCAL/ANGSTROM
     66         22  H    CARTESIAN Z     0.240502     -0.082884  KCAL/ANGSTROM
     67         23  H    CARTESIAN X    -3.354467     -0.048935  KCAL/ANGSTROM
     68         23  H    CARTESIAN Y     1.627304     -0.076499  KCAL/ANGSTROM
     69         23  H    CARTESIAN Z    -0.278803      0.132687  KCAL/ANGSTROM
     70         24  H    CARTESIAN X    -2.256572     -0.019334  KCAL/ANGSTROM
     71         24  H    CARTESIAN Y     2.463005     -0.034250  KCAL/ANGSTROM
     72         24  H    CARTESIAN Z    -1.436224      0.094127  KCAL/ANGSTROM




   ATOM   CHEMICAL          X               Y               Z
  NUMBER   SYMBOL      (ANGSTROMS)     (ANGSTROMS)     (ANGSTROMS)

     1       C          2.47924909  *  -0.83275726  *  -1.14416624  *
     2       C          2.17609244  *   0.00811185  *   0.09568446  *
     3       C          0.73279135  *   0.45759456  *   0.06304989  *
     4       N         -0.03056003  *   0.67375462  *   1.30970777  *
     5       C         -0.35986844  *  -0.51043551  *   0.48234572  *
     6       C         -1.71243614  *  -0.50921131  *  -0.22087319  *
     7       C         -1.84140107  *  -1.75742107  *  -1.10072418  *
     8       O         -1.80480136  *   0.56166929  *  -1.14715869  *
     9       C         -2.31667904  *   1.76220090  *  -0.59614248  *
    10       H          1.81889558  *  -1.70643517  *  -1.20374988  *
    11       H          2.33340557  *  -0.25458354  *  -2.06516275  *
    12       H          3.51237778  *  -1.19594007  *  -1.13949548  *
    13       H          2.84386539  *   0.89278317  *   0.13126682  *
    14       H          2.40132209  *  -0.57038017  *   1.01190126  *
    15       H          0.50832721  *   1.18531355  *  -0.73524521  *
    16       H          0.45296636  *   0.49040897  *   2.17930034  *
    17       H         -0.07368058  *  -1.50701707  *   0.83953466  *
    18       H         -2.53375453  *  -0.44865549  *   0.52807487  *
    19       H         -1.02856330  *  -1.80195317  *  -1.83716275  *
    20       H         -1.82414428  *  -2.67555212  *  -0.50815226  *
    21       H         -2.78042075  *  -1.73106297  *  -1.66832402  *
    22       H         -1.69781794  *   2.11158755  *   0.24050241  *
    23       H         -3.35446711  *   1.62730378  *  -0.27880258  *
    24       H         -2.25657202  *   2.46300536  *  -1.43622396  *

                             CARTESIAN COORDINATES

   1    C        2.479249090    -0.832757262    -1.144166241
   2    C        2.176092437     0.008111855     0.095684457
   3    C        0.732791348     0.457594562     0.063049886
   4    N       -0.030560032     0.673754622     1.309707768
   5    C       -0.359868443    -0.510435505     0.482345724
   6    C       -1.712436137    -0.509211305    -0.220873194
   7    C       -1.841401069    -1.757421067    -1.100724181
   8    O       -1.804801363     0.561669289    -1.147158693
   9    C       -2.316679040     1.762200904    -0.596142479
  10    H        1.818895584    -1.706435174    -1.203749877
  11    H        2.333405569    -0.254583536    -2.065162755
  12    H        3.512377775    -1.195940071    -1.139495483
  13    H        2.843865393     0.892783175     0.131266820
  14    H        2.401322095    -0.570380171     1.011901255
  15    H        0.508327209     1.185313554    -0.735245213
  16    H        0.452966362     0.490408965     2.179300338
  17    H       -0.073680578    -1.507017073     0.839534661
  18    H       -2.533754526    -0.448655489     0.528074870
  19    H       -1.028563299    -1.801953172    -1.837162752
  20    H       -1.824144279    -2.675552124    -0.508152264
  21    H       -2.780420747    -1.731062971    -1.668324016
  22    H       -1.697817945     2.111587547     0.240502410
  23    H       -3.354467108     1.627303777    -0.278802581
  24    H       -2.256572017     2.463005363    -1.436223964


           Empirical Formula: C7 H15 N O  =    24 atoms



      MOLECULAR POINT GROUP   :   C1  


                  EIGENVALUES  
 -36.37357 -29.43577 -27.82913 -27.01061 -23.55943 -23.33932 -22.40867 -20.61227
 -19.63004 -17.03993 -16.66806 -16.41881 -15.13281 -15.01389 -14.31502 -13.98204
 -13.70053 -13.44160 -13.11100 -12.66307 -12.43068 -11.92789 -11.91685 -11.79506
 -11.08611 -10.12324  -9.44253   2.45200   2.77537   3.01054   3.69107   4.00549
   4.18103   4.36034   4.55343   5.15500   5.27084   5.53939   5.63569   5.74552
   5.80586   5.85395   5.99527   6.02412   6.18037   6.20947   6.28228   6.56819
   6.78138   6.88607   7.00082


              NET ATOMIC CHARGES AND DIPOLE CONTRIBUTIONS

  ATOM NO.   TYPE          CHARGE      No. of ELECS.   s-Pop       p-Pop       
    1          C          -0.428633        4.4286     1.05074     3.37790
    2          C          -0.284014        4.2840     1.05656     3.22746
    3          C          -0.036782        4.0368     1.07208     2.96471
    4          N          -0.505415        5.5054     1.72606     3.77935
    5          C          -0.139876        4.1399     1.07901     3.06087
    6          C           0.146086        3.8539     1.08214     2.77178
    7          C          -0.474918        4.4749     1.05850     3.41642
    8          O          -0.392041        6.3920     1.88008     4.51196
    9          C          -0.203857        4.2039     1.08411     3.11974
   10          H           0.146619        0.8534     0.85338
   11          H           0.150535        0.8495     0.84947
   12          H           0.145118        0.8549     0.85488
   13          H           0.150529        0.8495     0.84947
   14          H           0.137278        0.8627     0.86272
   15          H           0.185302        0.8147     0.81470
   16          H           0.252975        0.7470     0.74702
   17          H           0.147288        0.8527     0.85271
   18          H           0.127682        0.8723     0.87232
   19          H           0.160134        0.8399     0.83987
   20          H           0.147440        0.8526     0.85256
   21          H           0.161627        0.8384     0.83837
   22          H           0.153035        0.8470     0.84696
   23          H           0.116412        0.8836     0.88359
   24          H           0.137477        0.8625     0.86252
 DIPOLE           X         Y         Z       TOTAL
 POINT-CHG.     0.377    -0.978     0.353     1.106
 HYBRID         0.764    -0.607     0.394     1.052
 SUM            1.140    -1.585     0.747     2.091


          ATOMIC ORBITAL ELECTRON POPULATIONS

     Atom    s        px        py        pz   
    1  C   1.05074   1.16562   1.13300   1.07928
    2  C   1.05656   1.03294   1.11897   1.07555
    3  C   1.07208   0.92935   1.05900   0.97636
    4  N   1.72606   1.35425   1.32750   1.09761
    5  C   1.07901   1.04342   0.96435   1.05309
    6  C   1.08214   0.98817   0.85133   0.93228
    7  C   1.05850   1.19660   1.07818   1.14164
    8  O   1.88008   1.87053   1.26762   1.37381
    9  C   1.08411   1.09729   0.89752   1.12493
   10  H   0.85338
   11  H   0.84947
   12  H   0.85488
   13  H   0.84947
   14  H   0.86272
   15  H   0.81470
   16  H   0.74702
   17  H   0.85271
   18  H   0.87232
   19  H   0.83987
   20  H   0.85256
   21  H   0.83837
   22  H   0.84696
   23  H   0.88359
   24  H   0.86252

 **********************
 *                    *
 * JOB ENDED NORMALLY *
 *                    *
 **********************



 TOTAL JOB TIME:             1.23 SECONDS

 == MOPAC DONE ==
