 *******************************************************************************
 **                                                                           **
 **                              MOPAC v23.2                                  **
 **                                                                           **
 *******************************************************************************
 **          Digital Object Identifier (DOI): 10.5281/zenodo.6511958          **
 **    Visit the DOI location for information on how to cite this program.    **
 *******************************************************************************

                              PM7 CALCULATION RESULTS

 *******************************************************************************
 *  CALCULATION DONE: (MAX THREADS = 40)             Fri Sep 19 21:57:37 2025  *
 *  PM7        - The PM7 Hamiltonian to be used
 *  EPS=37.5   - USE ANDREAS KLAMT'S COSMO IMPLICIT SOLVATION MODEL
 *  1SCF       - DO 1 SCF AND THEN STOP 
 *  T=         - A TIME OF 172800.0 SECONDS REQUESTED
 *  DUMP=N     - RESTART FILE WRITTEN EVERY 7200.0 SECONDS REQUESTED
 *  RELSCF     - DEFAULT SCF CRITERION MULTIPLIED BY 0.0001
 *              (DEFAULT SCF CRITERION = 0.00010)
 *  GRADIENTS  - ALL GRADIENTS TO BE PRINTED
 *  DISP       - PRINT DISPERSION AND HYDROGEN BOND ENERGIES
 *******************************************************************************
PM7 1SCF GRADIENTS EPS=37.5 DISP RELSCF=0.0001
 Title: ASE calculation

   ATOM   CHEMICAL          X               Y               Z
  NUMBER   SYMBOL      (ANGSTROMS)     (ANGSTROMS)     (ANGSTROMS)

     1       C         -2.68601270  *   1.40558728  *   0.55224852  *
     2       C         -2.06463812  *   0.03630863  *   0.27405825  *
     3       C         -0.56354444  *   0.17767267  *  -0.01224942  *
     4       C          0.09153763  *  -1.19090709  *  -0.23248355  *
     5       C          1.50709951  *  -1.07779370  *  -0.81214716  *
     6       C          2.54601049  *  -0.49210439  *   0.15566033  *
     7       O          2.22389128  *  -0.73962349  *   1.51395834  *
     8       C          2.64171428  *   1.04235793  *   0.08017588  *
     9       O          3.76028083  *   1.48131660  *   0.82037589  *
    10       H         -2.22611840  *   1.88219972  *   1.42549022  *
    11       H         -2.55736395  *   2.08435092  *  -0.29799874  *
    12       H         -3.76028083  *   1.32440425  *   0.74985001  *
    13       H         -2.57467139  *  -0.44307482  *  -0.58190627  *
    14       H         -2.22670393  *  -0.63536347  *   1.13781518  *
    15       H         -0.07074525  *   0.69042592  *   0.83869339  *
    16       H         -0.41184058  *   0.82237304  *  -0.89663936  *
    17       H          0.10530960  *  -1.75076473  *   0.72172347  *
    18       H         -0.53009231  *  -1.79640190  *  -0.92160962  *
    19       H          1.47980979  *  -0.47209273  *  -1.73971996  *
    20       H          1.83845485  *  -2.08435092  *  -1.13659727  *
    21       H          3.55135441  *  -0.94252988  *  -0.02345017  *
    22       H          2.01934640  *  -1.68220193  *   1.65811398  *
    23       H          1.73508819  *   1.53036745  *   0.47885648  *
    24       H          2.84992095  *   1.39907948  *  -0.94402048  *
    25       H          3.69916369  *   1.13742049  *   1.73971996  *



          CARTESIAN COORDINATES 

    NO.       ATOM           X           Y           Z

     1         C         -2.6860      1.4056      0.5522
     2         C         -2.0646      0.0363      0.2741
     3         C         -0.5635      0.1777     -0.0122
     4         C          0.0915     -1.1909     -0.2325
     5         C          1.5071     -1.0778     -0.8121
     6         C          2.5460     -0.4921      0.1557
     7         O          2.2239     -0.7396      1.5140
     8         C          2.6417      1.0424      0.0802
     9         O          3.7603      1.4813      0.8204
    10         H         -2.2261      1.8822      1.4255
    11         H         -2.5574      2.0844     -0.2980
    12         H         -3.7603      1.3244      0.7499
    13         H         -2.5747     -0.4431     -0.5819
    14         H         -2.2267     -0.6354      1.1378
    15         H         -0.0707      0.6904      0.8387
    16         H         -0.4118      0.8224     -0.8966
    17         H          0.1053     -1.7508      0.7217
    18         H         -0.5301     -1.7964     -0.9216
    19         H          1.4798     -0.4721     -1.7397
    20         H          1.8385     -2.0844     -1.1366
    21         H          3.5514     -0.9425     -0.0235
    22         H          2.0193     -1.6822      1.6581
    23         H          1.7351      1.5304      0.4789
    24         H          2.8499      1.3991     -0.9440
    25         H          3.6992      1.1374      1.7397

 General Reference for PM7:
 "Optimization of Parameters for Semiempirical Methods VI: More Modifications to the 
 NDDO Approximations and Re-optimization of Parameters", J. J. P. Stewart, J. Mol. Mod., 1:32, 19 (2013)
 https://link.springer.com/article/10.1007/s00894-012-1667-x

           Empirical Formula: C7 H16 O2  =    25 atoms



      MOLECULAR POINT GROUP   :   C1  


      RHF CALCULATION, NO. OF DOUBLY OCCUPIED LEVELS = 28

  SCF CRITERION =    0.1000E-07

 -------------------------------------------------------------------------------
 PM7 1SCF GRADIENTS EPS=37.5 DISP RELSCF=0.0001
 Title: ASE calculation



     1SCF WAS SPECIFIED, SO BFGS WAS NOT USED                 
     SCF FIELD WAS ACHIEVED                                   


                              PM7 CALCULATION
                                                       MOPAC v23.2 Linux
                                                       Fri Sep 19 21:57:38 2025




          FINAL HEAT OF FORMATION =       -131.07457 KCAL/MOL =    -548.41599 KJ/MOL

          TOTAL ENERGY            =     -38455.31849 KCAL/MOL = ELECTRONIC ENERGY + CORE-CORE REPULSION + SOLVATION ENERGY
          ENERGY OF ATOMS         =      38326.81232 KCAL/MOL
                              SUM =       -128.50617 KCAL/MOL
          DISPERSION ENERGY       =         -2.46398 KCAL/MOL
          H-BOND ENERGY           =         -0.10442 KCAL/MOL
                              SUM =       -131.07457 KCAL/MOL = FINAL HEAT OF FORMATION

          VAN DER WAALS AREA      =        187.30 SQUARE ANGSTROMS


          TOTAL ENERGY            =      -1667.58044 EV
          ELECTRONIC ENERGY       =      -2460.08304 EV 
          CORE-CORE REPULSION     =        792.50260 EV

          DIELECTRIC ENERGY       =         -0.41172 EV
          COSMO AREA              =        187.30 SQUARE ANGSTROMS
          COSMO VOLUME            =        187.98 CUBIC ANGSTROMS

          GRADIENT NORM           =          8.92508          =       1.78502 PER ATOM
          IONIZATION POTENTIAL    =         10.634671 EV
          HOMO LUMO ENERGIES (EV) =        -10.635  2.500
          NO. OF FILLED LEVELS    =         28
          MOLECULAR WEIGHT        =        132.2022         POINT GROUP:  C1  

          MOLECULAR DIMENSIONS (Angstroms)

            Atom       Atom       Distance
            H    21    H    12     7.69396
            H    25    H    18     5.02401
            H    24    H    22     3.98214


          SCF CALCULATIONS        =          2

          WALL-CLOCK TIME         =      1.094 SECONDS
          COMPUTATION TIME        =      0.592 SECONDS

          LARGEST ATOMIC GRADIENTS

          Atom     Label                     Cartesian Gradients           Cartesian Coordinates       |Gradient|
                                           X          Y          Z        X          Y          Z

             8       C                   2.359      1.523      3.296    2.64171    1.04236    0.08018      4.330
            22       H                   1.666      3.915     -0.448    2.01935   -1.68220    1.65811      4.278
            25       H                  -1.400      0.405     -2.385    3.69916    1.13742    1.73972      2.795
             9       O                  -1.640     -1.756     -1.245    3.76028    1.48132    0.82038      2.707
             5       C                   0.551     -1.551     -1.904    1.50710   -1.07779   -0.81215      2.517
             7       O                  -1.038     -1.896     -0.051    2.22389   -0.73962    1.51396      2.162
             6       C                   0.040     -1.622      1.395    2.54601   -0.49210    0.15566      2.140
            24       H                   1.017      0.271      1.041    2.84992    1.39908   -0.94402      1.480
            15       H                   0.068     -0.225      1.049   -0.07075    0.69043    0.83869      1.075
             4       C                  -0.102     -0.949     -0.185    0.09154   -1.19091   -0.23248      0.972



       FINAL  POINT  AND  DERIVATIVES

   PARAMETER     ATOM    TYPE            VALUE        GRADIENT
      1          1  C    CARTESIAN X    -2.686013     -0.174844  KCAL/ANGSTROM
      2          1  C    CARTESIAN Y     1.405587      0.712674  KCAL/ANGSTROM
      3          1  C    CARTESIAN Z     0.552249     -0.177577  KCAL/ANGSTROM
      4          2  C    CARTESIAN X    -2.064638     -0.035186  KCAL/ANGSTROM
      5          2  C    CARTESIAN Y     0.036309     -0.874691  KCAL/ANGSTROM
      6          2  C    CARTESIAN Z     0.274058     -0.241040  KCAL/ANGSTROM
      7          3  C    CARTESIAN X    -0.563544      0.240649  KCAL/ANGSTROM
      8          3  C    CARTESIAN Y     0.177673      0.041577  KCAL/ANGSTROM
      9          3  C    CARTESIAN Z    -0.012249     -0.700064  KCAL/ANGSTROM
     10          4  C    CARTESIAN X     0.091538     -0.102129  KCAL/ANGSTROM
     11          4  C    CARTESIAN Y    -1.190907     -0.948721  KCAL/ANGSTROM
     12          4  C    CARTESIAN Z    -0.232484     -0.185365  KCAL/ANGSTROM
     13          5  C    CARTESIAN X     1.507100      0.550552  KCAL/ANGSTROM
     14          5  C    CARTESIAN Y    -1.077794     -1.551081  KCAL/ANGSTROM
     15          5  C    CARTESIAN Z    -0.812147     -1.904408  KCAL/ANGSTROM
     16          6  C    CARTESIAN X     2.546010      0.040360  KCAL/ANGSTROM
     17          6  C    CARTESIAN Y    -0.492104     -1.622233  KCAL/ANGSTROM
     18          6  C    CARTESIAN Z     0.155660      1.394828  KCAL/ANGSTROM
     19          7  O    CARTESIAN X     2.223891     -1.037775  KCAL/ANGSTROM
     20          7  O    CARTESIAN Y    -0.739623     -1.895594  KCAL/ANGSTROM
     21          7  O    CARTESIAN Z     1.513958     -0.051051  KCAL/ANGSTROM
     22          8  C    CARTESIAN X     2.641714      2.359156  KCAL/ANGSTROM
     23          8  C    CARTESIAN Y     1.042358      1.522989  KCAL/ANGSTROM
     24          8  C    CARTESIAN Z     0.080176      3.295519  KCAL/ANGSTROM
     25          9  O    CARTESIAN X     3.760281     -1.640422  KCAL/ANGSTROM
     26          9  O    CARTESIAN Y     1.481317     -1.756206  KCAL/ANGSTROM
     27          9  O    CARTESIAN Z     0.820376     -1.245255  KCAL/ANGSTROM
     28         10  H    CARTESIAN X    -2.226118      0.026353  KCAL/ANGSTROM
     29         10  H    CARTESIAN Y     1.882200     -0.414791  KCAL/ANGSTROM
     30         10  H    CARTESIAN Z     1.425490     -0.181708  KCAL/ANGSTROM
     31         11  H    CARTESIAN X    -2.557364      0.056985  KCAL/ANGSTROM
     32         11  H    CARTESIAN Y     2.084351     -0.278688  KCAL/ANGSTROM
     33         11  H    CARTESIAN Z    -0.297999      0.176913  KCAL/ANGSTROM
     34         12  H    CARTESIAN X    -3.760281      0.317718  KCAL/ANGSTROM
     35         12  H    CARTESIAN Y     1.324404     -0.013079  KCAL/ANGSTROM
     36         12  H    CARTESIAN Z     0.749850     -0.011178  KCAL/ANGSTROM
     37         13  H    CARTESIAN X    -2.574671     -0.256291  KCAL/ANGSTROM
     38         13  H    CARTESIAN Y    -0.443075      0.554475  KCAL/ANGSTROM
     39         13  H    CARTESIAN Z    -0.581906      0.082651  KCAL/ANGSTROM
     40         14  H    CARTESIAN X    -2.226704     -0.153941  KCAL/ANGSTROM
     41         14  H    CARTESIAN Y    -0.635363      0.471543  KCAL/ANGSTROM
     42         14  H    CARTESIAN Z     1.137815      0.086824  KCAL/ANGSTROM
     43         15  H    CARTESIAN X    -0.070745      0.067817  KCAL/ANGSTROM
     44         15  H    CARTESIAN Y     0.690426     -0.225349  KCAL/ANGSTROM
     45         15  H    CARTESIAN Z     0.838693      1.048544  KCAL/ANGSTROM
     46         16  H    CARTESIAN X    -0.411841     -0.392566  KCAL/ANGSTROM
     47         16  H    CARTESIAN Y     0.822373     -0.524532  KCAL/ANGSTROM
     48         16  H    CARTESIAN Z    -0.896639      0.199672  KCAL/ANGSTROM
     49         17  H    CARTESIAN X     0.105310     -0.283779  KCAL/ANGSTROM
     50         17  H    CARTESIAN Y    -1.750765      0.829630  KCAL/ANGSTROM
     51         17  H    CARTESIAN Z     0.721723     -0.132653  KCAL/ANGSTROM
     52         18  H    CARTESIAN X    -0.530092      0.128228  KCAL/ANGSTROM
     53         18  H    CARTESIAN Y    -1.796402      0.354386  KCAL/ANGSTROM
     54         18  H    CARTESIAN Z    -0.921610      0.224297  KCAL/ANGSTROM
     55         19  H    CARTESIAN X     1.479810     -0.493908  KCAL/ANGSTROM
     56         19  H    CARTESIAN Y    -0.472093      0.058102  KCAL/ANGSTROM
     57         19  H    CARTESIAN Z    -1.739720      0.568929  KCAL/ANGSTROM
     58         20  H    CARTESIAN X     1.838455     -0.523337  KCAL/ANGSTROM
     59         20  H    CARTESIAN Y    -2.084351      0.808483  KCAL/ANGSTROM
     60         20  H    CARTESIAN Z    -1.136597      0.026934  KCAL/ANGSTROM
     61         21  H    CARTESIAN X     3.551354     -0.046445  KCAL/ANGSTROM
     62         21  H    CARTESIAN Y    -0.942530      0.948383  KCAL/ANGSTROM
     63         21  H    CARTESIAN Z    -0.023450     -0.189340  KCAL/ANGSTROM
     64         22  H    CARTESIAN X     2.019346      1.665966  KCAL/ANGSTROM
     65         22  H    CARTESIAN Y    -1.682202      3.914792  KCAL/ANGSTROM
     66         22  H    CARTESIAN Z     1.658114     -0.447854  KCAL/ANGSTROM
     67         23  H    CARTESIAN X     1.735088      0.070092  KCAL/ANGSTROM
     68         23  H    CARTESIAN Y     1.530367     -0.788487  KCAL/ANGSTROM
     69         23  H    CARTESIAN Z     0.478856     -0.294350  KCAL/ANGSTROM
     70         24  H    CARTESIAN X     2.849921      1.016653  KCAL/ANGSTROM
     71         24  H    CARTESIAN Y     1.399079      0.271315  KCAL/ANGSTROM
     72         24  H    CARTESIAN Z    -0.944020      1.041378  KCAL/ANGSTROM
     73         25  H    CARTESIAN X     3.699164     -1.399913  KCAL/ANGSTROM
     74         25  H    CARTESIAN Y     1.137420      0.405092  KCAL/ANGSTROM
     75         25  H    CARTESIAN Z     1.739720     -2.384663  KCAL/ANGSTROM




   ATOM   CHEMICAL          X               Y               Z
  NUMBER   SYMBOL      (ANGSTROMS)     (ANGSTROMS)     (ANGSTROMS)

     1       C         -2.68601270  *   1.40558728  *   0.55224852  *
     2       C         -2.06463812  *   0.03630863  *   0.27405825  *
     3       C         -0.56354444  *   0.17767267  *  -0.01224942  *
     4       C          0.09153763  *  -1.19090709  *  -0.23248355  *
     5       C          1.50709951  *  -1.07779370  *  -0.81214716  *
     6       C          2.54601049  *  -0.49210439  *   0.15566033  *
     7       O          2.22389128  *  -0.73962349  *   1.51395834  *
     8       C          2.64171428  *   1.04235793  *   0.08017588  *
     9       O          3.76028083  *   1.48131660  *   0.82037589  *
    10       H         -2.22611840  *   1.88219972  *   1.42549022  *
    11       H         -2.55736395  *   2.08435092  *  -0.29799874  *
    12       H         -3.76028083  *   1.32440425  *   0.74985001  *
    13       H         -2.57467139  *  -0.44307482  *  -0.58190627  *
    14       H         -2.22670393  *  -0.63536347  *   1.13781518  *
    15       H         -0.07074525  *   0.69042592  *   0.83869339  *
    16       H         -0.41184058  *   0.82237304  *  -0.89663936  *
    17       H          0.10530960  *  -1.75076473  *   0.72172347  *
    18       H         -0.53009231  *  -1.79640190  *  -0.92160962  *
    19       H          1.47980979  *  -0.47209273  *  -1.73971996  *
    20       H          1.83845485  *  -2.08435092  *  -1.13659727  *
    21       H          3.55135441  *  -0.94252988  *  -0.02345017  *
    22       H          2.01934640  *  -1.68220193  *   1.65811398  *
    23       H          1.73508819  *   1.53036745  *   0.47885648  *
    24       H          2.84992095  *   1.39907948  *  -0.94402048  *
    25       H          3.69916369  *   1.13742049  *   1.73971996  *

                             CARTESIAN COORDINATES

   1    C       -2.686012701     1.405587278     0.552248515
   2    C       -2.064638121     0.036308629     0.274058248
   3    C       -0.563544442     0.177672673    -0.012249419
   4    C        0.091537627    -1.190907087    -0.232483549
   5    C        1.507099510    -1.077793696    -0.812147163
   6    C        2.546010488    -0.492104387     0.155660327
   7    O        2.223891278    -0.739623487     1.513958339
   8    C        2.641714281     1.042357935     0.080175876
   9    O        3.760280831     1.481316602     0.820375894
  10    H       -2.226118404     1.882199721     1.425490218
  11    H       -2.557363948     2.084350920    -0.297998738
  12    H       -3.760280831     1.324404254     0.749850013
  13    H       -2.574671386    -0.443074822    -0.581906274
  14    H       -2.226703930    -0.635363473     1.137815178
  15    H       -0.070745247     0.690425921     0.838693387
  16    H       -0.411840579     0.822373037    -0.896639357
  17    H        0.105309597    -1.750764733     0.721723472
  18    H       -0.530092314    -1.796401904    -0.921609622
  19    H        1.479809786    -0.472092726    -1.739719956
  20    H        1.838454845    -2.084350920    -1.136597266
  21    H        3.551354409    -0.942529882    -0.023450167
  22    H        2.019346398    -1.682201933     1.658113980
  23    H        1.735088187     1.530367445     0.478856482
  24    H        2.849920951     1.399079481    -0.944020475
  25    H        3.699163686     1.137420493     1.739719956


           Empirical Formula: C7 H16 O2  =    25 atoms



      MOLECULAR POINT GROUP   :   C1  


                  EIGENVALUES  
 -30.51721 -29.18517 -28.60447 -27.05495 -25.25376 -23.40349 -21.21425 -20.10807
 -19.65783 -17.87216 -16.95691 -16.47956 -15.66201 -15.56698 -14.74844 -14.48280
 -14.02074 -13.89249 -13.10772 -12.92484 -12.62345 -12.25195 -11.85430 -11.63981
 -11.48334 -11.17182 -10.91918 -10.63467   2.50049   2.95703   3.77808   3.86437
   4.03337   4.32457   4.55338   4.83877   5.33075   5.42998   5.45203   5.62839
   5.77574   5.84762   5.89955   6.00115   6.07537   6.21301   6.27637   6.45270
   6.64889   6.71628   6.78808   7.06400


              NET ATOMIC CHARGES AND DIPOLE CONTRIBUTIONS

  ATOM NO.   TYPE          CHARGE      No. of ELECS.   s-Pop       p-Pop       
    1          C          -0.450425        4.4504     1.05301     3.39742
    2          C          -0.261686        4.2617     1.05630     3.20539
    3          C          -0.275112        4.2751     1.06118     3.21394
    4          C          -0.260942        4.2609     1.05746     3.20348
    5          C          -0.343170        4.3432     1.06846     3.27471
    6          C           0.127608        3.8724     1.09662     2.77577
    7          O          -0.628993        6.6290     1.84276     4.78623
    8          C          -0.023027        4.0230     1.09554     2.92748
    9          O          -0.620575        6.6206     1.84613     4.77445
   10          H           0.147941        0.8521     0.85206
   11          H           0.146334        0.8537     0.85367
   12          H           0.144118        0.8559     0.85588
   13          H           0.134820        0.8652     0.86518
   14          H           0.137572        0.8624     0.86243
   15          H           0.144256        0.8557     0.85574
   16          H           0.138911        0.8611     0.86109
   17          H           0.142968        0.8570     0.85703
   18          H           0.140435        0.8596     0.85957
   19          H           0.160014        0.8400     0.83999
   20          H           0.154589        0.8454     0.84541
   21          H           0.134747        0.8653     0.86525
   22          H           0.355573        0.6444     0.64443
   23          H           0.140400        0.8596     0.85960
   24          H           0.152139        0.8479     0.84786
   25          H           0.361506        0.6385     0.63849
 DIPOLE           X         Y         Z       TOTAL
 POINT-CHG.    -1.911    -2.389    -1.982     3.645
 HYBRID        -0.008    -0.322     0.662     0.736
 SUM           -1.919    -2.710    -1.319     3.573


          ATOMIC ORBITAL ELECTRON POPULATIONS

     Atom    s        px        py        pz   
    1  C   1.05301   1.15135   1.07083   1.17525
    2  C   1.05630   1.01400   1.03658   1.15481
    3  C   1.06118   1.00814   1.04556   1.16024
    4  C   1.05746   1.00577   1.05290   1.14481
    5  C   1.06846   1.02249   1.16225   1.08996
    6  C   1.09662   1.02820   0.98421   0.76336
    7  O   1.84276   1.93866   1.46290   1.38467
    8  C   1.09554   0.91392   0.98755   1.02602
    9  O   1.84613   1.53988   1.81037   1.42419
   10  H   0.85206
   11  H   0.85367
   12  H   0.85588
   13  H   0.86518
   14  H   0.86243
   15  H   0.85574
   16  H   0.86109
   17  H   0.85703
   18  H   0.85957
   19  H   0.83999
   20  H   0.84541
   21  H   0.86525
   22  H   0.64443
   23  H   0.85960
   24  H   0.84786
   25  H   0.63849

 **********************
 *                    *
 * JOB ENDED NORMALLY *
 *                    *
 **********************



 TOTAL JOB TIME:             1.55 SECONDS

 == MOPAC DONE ==
