 *******************************************************************************
 **                                                                           **
 **                              MOPAC v23.2                                  **
 **                                                                           **
 *******************************************************************************
 **          Digital Object Identifier (DOI): 10.5281/zenodo.6511958          **
 **    Visit the DOI location for information on how to cite this program.    **
 *******************************************************************************

                              PM7 CALCULATION RESULTS

 *******************************************************************************
 *  CALCULATION DONE: (MAX THREADS = 40)             Fri Sep 19 21:33:13 2025  *
 *  PM7        - The PM7 Hamiltonian to be used
 *  1SCF       - DO 1 SCF AND THEN STOP 
 *  T=         - A TIME OF 172800.0 SECONDS REQUESTED
 *  DUMP=N     - RESTART FILE WRITTEN EVERY 7200.0 SECONDS REQUESTED
 *  RELSCF     - DEFAULT SCF CRITERION MULTIPLIED BY 0.0001
 *              (DEFAULT SCF CRITERION = 0.00010)
 *  GRADIENTS  - ALL GRADIENTS TO BE PRINTED
 *  DISP       - PRINT DISPERSION AND HYDROGEN BOND ENERGIES
 *******************************************************************************
PM7 1SCF GRADIENTS DISP RELSCF=0.0001
 Title: ASE calculation

   ATOM   CHEMICAL          X               Y               Z
  NUMBER   SYMBOL      (ANGSTROMS)     (ANGSTROMS)     (ANGSTROMS)

     1       O         -3.21884961  *   0.21270470  *  -0.33174372  *
     2       C         -2.29755566  *  -0.68109990  *   0.25319088  *
     3       C         -0.92156549  *  -0.47826805  *  -0.37754399  *
     4       C          0.26708203  *  -1.05153694  *   0.43149319  *
     5       C          0.41991271  *   0.30456782  *   1.12590132  *
     6       N         -0.39489591  *   0.94536015  *  -0.04991905  *
     7       C          0.90208263  *   0.97875969  *  -0.87487017  *
     8       C          1.45980545  *  -0.10557044  *   0.08453788  *
     9       O          2.76010431  *  -0.38259430  *   0.31011321  *
    10       H         -2.85544516  *   1.12891254  *  -0.28578260  *
    11       H         -2.71307088  *  -1.67978824  *   0.02195444  *
    12       H         -2.28808725  *  -0.52255725  *   1.34711550  *
    13       H         -0.94037657  *  -0.70749880  *  -1.45510649  *
    14       H          0.35658647  *  -2.04668706  *   0.79612392  *
    15       H          0.41141910  *   0.67064422  *   2.11690393  *
    16       H          0.79114332  *   0.72963649  *  -1.93152099  *
    17       H          1.39714257  *   1.95551573  *  -0.77282127  *
    18       H          3.11320750  *  -0.97144473  *  -0.40482568  *



          CARTESIAN COORDINATES 

    NO.       ATOM           X           Y           Z

     1         O         -3.2188      0.2127     -0.3317
     2         C         -2.2976     -0.6811      0.2532
     3         C         -0.9216     -0.4783     -0.3775
     4         C          0.2671     -1.0515      0.4315
     5         C          0.4199      0.3046      1.1259
     6         N         -0.3949      0.9454     -0.0499
     7         C          0.9021      0.9788     -0.8749
     8         C          1.4598     -0.1056      0.0845
     9         O          2.7601     -0.3826      0.3101
    10         H         -2.8554      1.1289     -0.2858
    11         H         -2.7131     -1.6798      0.0220
    12         H         -2.2881     -0.5226      1.3471
    13         H         -0.9404     -0.7075     -1.4551
    14         H          0.3566     -2.0467      0.7961
    15         H          0.4114      0.6706      2.1169
    16         H          0.7911      0.7296     -1.9315
    17         H          1.3971      1.9555     -0.7728
    18         H          3.1132     -0.9714     -0.4048

 General Reference for PM7:
 "Optimization of Parameters for Semiempirical Methods VI: More Modifications to the 
 NDDO Approximations and Re-optimization of Parameters", J. J. P. Stewart, J. Mol. Mod., 1:32, 19 (2013)
 https://link.springer.com/article/10.1007/s00894-012-1667-x

           Empirical Formula: C6 H9 N O2  =    18 atoms



      MOLECULAR POINT GROUP   :   C1  


      RHF CALCULATION, NO. OF DOUBLY OCCUPIED LEVELS = 25

  SCF CRITERION =    0.1000E-07

 -------------------------------------------------------------------------------
 PM7 1SCF GRADIENTS DISP RELSCF=0.0001
 Title: ASE calculation



     1SCF WAS SPECIFIED, SO BFGS WAS NOT USED                 
     SCF FIELD WAS ACHIEVED                                   


                              PM7 CALCULATION
                                                       MOPAC v23.2 Linux
                                                       Fri Sep 19 21:33:14 2025




          FINAL HEAT OF FORMATION =         20.18425 KCAL/MOL =      84.45089 KJ/MOL

          TOTAL ENERGY            =     -37617.02488 KCAL/MOL = ELECTRONIC ENERGY + CORE-CORE REPULSION
          ENERGY OF ATOMS         =      37638.97832 KCAL/MOL
                              SUM =         21.95344 KCAL/MOL
          DISPERSION ENERGY       =         -1.54425 KCAL/MOL
          H-BOND ENERGY           =         -0.22495 KCAL/MOL
                              SUM =         20.18425 KCAL/MOL = FINAL HEAT OF FORMATION



          TOTAL ENERGY            =      -1631.22859 EV
          ELECTRONIC ENERGY       =      -7653.51147 EV 
          CORE-CORE REPULSION     =       6022.28288 EV
          COSMO AREA              =        155.11 SQUARE ANGSTROMS
          COSMO VOLUME            =        150.58 CUBIC ANGSTROMS

          GRADIENT NORM           =          1.45214          =       0.34227 PER ATOM
          IONIZATION POTENTIAL    =         10.126109 EV
          HOMO LUMO ENERGIES (EV) =        -10.126  1.359
          NO. OF FILLED LEVELS    =         25
          MOLECULAR WEIGHT        =        127.1426         POINT GROUP:  C1  

          MOLECULAR DIMENSIONS (Angstroms)

            Atom       Atom       Distance
            H    18    O     1     6.44224
            H    17    H    11     4.39450
            H    16    H    15     3.96169


          SCF CALCULATIONS        =          1

          WALL-CLOCK TIME         =      0.687 SECONDS
          COMPUTATION TIME        =      0.979 SECONDS

          LARGEST ATOMIC GRADIENTS

          Atom     Label                     Cartesian Gradients           Cartesian Coordinates       |Gradient|
                                           X          Y          Z        X          Y          Z

            13       H                   0.318     -0.068      0.324   -0.94038   -0.70750   -1.45511      0.459
            14       H                   0.005     -0.358      0.250    0.35659   -2.04669    0.79612      0.437
             1       O                  -0.204      0.225     -0.308   -3.21885    0.21270   -0.33174      0.433
            10       H                   0.300      0.076      0.292   -2.85545    1.12891   -0.28578      0.425
             2       C                  -0.372      0.043     -0.150   -2.29756   -0.68110    0.25319      0.403
             5       C                   0.017      0.351     -0.115    0.41991    0.30457    1.12590      0.370
             6       N                  -0.163     -0.007     -0.326   -0.39490    0.94536   -0.04992      0.365
             8       C                  -0.110     -0.260     -0.220    1.45981   -0.10557    0.08454      0.358
            18       H                  -0.014      0.286     -0.200    3.11321   -0.97144   -0.40483      0.349
            11       H                  -0.016     -0.149     -0.301   -2.71307   -1.67979    0.02195      0.336



       FINAL  POINT  AND  DERIVATIVES

   PARAMETER     ATOM    TYPE            VALUE        GRADIENT
      1          1  O    CARTESIAN X    -3.218850     -0.204146  KCAL/ANGSTROM
      2          1  O    CARTESIAN Y     0.212705      0.225295  KCAL/ANGSTROM
      3          1  O    CARTESIAN Z    -0.331744     -0.308436  KCAL/ANGSTROM
      4          2  C    CARTESIAN X    -2.297556     -0.372118  KCAL/ANGSTROM
      5          2  C    CARTESIAN Y    -0.681100      0.043245  KCAL/ANGSTROM
      6          2  C    CARTESIAN Z     0.253191     -0.149746  KCAL/ANGSTROM
      7          3  C    CARTESIAN X    -0.921565     -0.088149  KCAL/ANGSTROM
      8          3  C    CARTESIAN Y    -0.478268      0.058203  KCAL/ANGSTROM
      9          3  C    CARTESIAN Z    -0.377544      0.218093  KCAL/ANGSTROM
     10          4  C    CARTESIAN X     0.267082      0.213636  KCAL/ANGSTROM
     11          4  C    CARTESIAN Y    -1.051537     -0.048389  KCAL/ANGSTROM
     12          4  C    CARTESIAN Z     0.431493      0.212301  KCAL/ANGSTROM
     13          5  C    CARTESIAN X     0.419913      0.016972  KCAL/ANGSTROM
     14          5  C    CARTESIAN Y     0.304568      0.351445  KCAL/ANGSTROM
     15          5  C    CARTESIAN Z     1.125901     -0.115459  KCAL/ANGSTROM
     16          6  N    CARTESIAN X    -0.394896     -0.162692  KCAL/ANGSTROM
     17          6  N    CARTESIAN Y     0.945360     -0.007496  KCAL/ANGSTROM
     18          6  N    CARTESIAN Z    -0.049919     -0.326419  KCAL/ANGSTROM
     19          7  C    CARTESIAN X     0.902083     -0.226757  KCAL/ANGSTROM
     20          7  C    CARTESIAN Y     0.978760      0.133250  KCAL/ANGSTROM
     21          7  C    CARTESIAN Z    -0.874870     -0.082329  KCAL/ANGSTROM
     22          8  C    CARTESIAN X     1.459805     -0.110095  KCAL/ANGSTROM
     23          8  C    CARTESIAN Y    -0.105570     -0.260119  KCAL/ANGSTROM
     24          8  C    CARTESIAN Z     0.084538     -0.219761  KCAL/ANGSTROM
     25          9  O    CARTESIAN X     2.760104      0.013906  KCAL/ANGSTROM
     26          9  O    CARTESIAN Y    -0.382594      0.030607  KCAL/ANGSTROM
     27          9  O    CARTESIAN Z     0.310113     -0.055538  KCAL/ANGSTROM
     28         10  H    CARTESIAN X    -2.855445      0.299844  KCAL/ANGSTROM
     29         10  H    CARTESIAN Y     1.128913      0.075546  KCAL/ANGSTROM
     30         10  H    CARTESIAN Z    -0.285783      0.292088  KCAL/ANGSTROM
     31         11  H    CARTESIAN X    -2.713071     -0.015630  KCAL/ANGSTROM
     32         11  H    CARTESIAN Y    -1.679788     -0.148751  KCAL/ANGSTROM
     33         11  H    CARTESIAN Z     0.021954     -0.300638  KCAL/ANGSTROM
     34         12  H    CARTESIAN X    -2.288087      0.191129  KCAL/ANGSTROM
     35         12  H    CARTESIAN Y    -0.522557     -0.105950  KCAL/ANGSTROM
     36         12  H    CARTESIAN Z     1.347116     -0.058605  KCAL/ANGSTROM
     37         13  H    CARTESIAN X    -0.940377      0.317649  KCAL/ANGSTROM
     38         13  H    CARTESIAN Y    -0.707499     -0.068050  KCAL/ANGSTROM
     39         13  H    CARTESIAN Z    -1.455106      0.323638  KCAL/ANGSTROM
     40         14  H    CARTESIAN X     0.356586      0.005204  KCAL/ANGSTROM
     41         14  H    CARTESIAN Y    -2.046687     -0.358027  KCAL/ANGSTROM
     42         14  H    CARTESIAN Z     0.796124      0.250116  KCAL/ANGSTROM
     43         15  H    CARTESIAN X     0.411419      0.094094  KCAL/ANGSTROM
     44         15  H    CARTESIAN Y     0.670644      0.058941  KCAL/ANGSTROM
     45         15  H    CARTESIAN Z     2.116904      0.199506  KCAL/ANGSTROM
     46         16  H    CARTESIAN X     0.791143     -0.174031  KCAL/ANGSTROM
     47         16  H    CARTESIAN Y     0.729636     -0.263246  KCAL/ANGSTROM
     48         16  H    CARTESIAN Z    -1.931521      0.088263  KCAL/ANGSTROM
     49         17  H    CARTESIAN X     1.397143      0.214928  KCAL/ANGSTROM
     50         17  H    CARTESIAN Y     1.955516     -0.002265  KCAL/ANGSTROM
     51         17  H    CARTESIAN Z    -0.772821      0.233420  KCAL/ANGSTROM
     52         18  H    CARTESIAN X     3.113207     -0.013760  KCAL/ANGSTROM
     53         18  H    CARTESIAN Y    -0.971445      0.285743  KCAL/ANGSTROM
     54         18  H    CARTESIAN Z    -0.404826     -0.200487  KCAL/ANGSTROM




   ATOM   CHEMICAL          X               Y               Z
  NUMBER   SYMBOL      (ANGSTROMS)     (ANGSTROMS)     (ANGSTROMS)

     1       O         -3.21884961  *   0.21270470  *  -0.33174372  *
     2       C         -2.29755566  *  -0.68109990  *   0.25319088  *
     3       C         -0.92156549  *  -0.47826805  *  -0.37754399  *
     4       C          0.26708203  *  -1.05153694  *   0.43149319  *
     5       C          0.41991271  *   0.30456782  *   1.12590132  *
     6       N         -0.39489591  *   0.94536015  *  -0.04991905  *
     7       C          0.90208263  *   0.97875969  *  -0.87487017  *
     8       C          1.45980545  *  -0.10557044  *   0.08453788  *
     9       O          2.76010431  *  -0.38259430  *   0.31011321  *
    10       H         -2.85544516  *   1.12891254  *  -0.28578260  *
    11       H         -2.71307088  *  -1.67978824  *   0.02195444  *
    12       H         -2.28808725  *  -0.52255725  *   1.34711550  *
    13       H         -0.94037657  *  -0.70749880  *  -1.45510649  *
    14       H          0.35658647  *  -2.04668706  *   0.79612392  *
    15       H          0.41141910  *   0.67064422  *   2.11690393  *
    16       H          0.79114332  *   0.72963649  *  -1.93152099  *
    17       H          1.39714257  *   1.95551573  *  -0.77282127  *
    18       H          3.11320750  *  -0.97144473  *  -0.40482568  *

                             CARTESIAN COORDINATES

   1    O       -3.218849605     0.212704703    -0.331743725
   2    C       -2.297555656    -0.681099896     0.253190877
   3    C       -0.921565494    -0.478268052    -0.377543989
   4    C        0.267082033    -1.051536935     0.431493189
   5    C        0.419912706     0.304567817     1.125901321
   6    N       -0.394895909     0.945360152    -0.049919045
   7    C        0.902082630     0.978759694    -0.874870168
   8    C        1.459805453    -0.105570442     0.084537885
   9    O        2.760104314    -0.382594299     0.310113214
  10    H       -2.855445164     1.128912541    -0.285782601
  11    H       -2.713070875    -1.679788244     0.021954442
  12    H       -2.288087255    -0.522557251     1.347115502
  13    H       -0.940376565    -0.707498802    -1.455106490
  14    H        0.356586474    -2.046687062     0.796123918
  15    H        0.411419102     0.670644217     2.116903931
  16    H        0.791143321     0.729636487    -1.931520989
  17    H        1.397142570     1.955515731    -0.772821272
  18    H        3.113207498    -0.971444734    -0.404825678


           Empirical Formula: C6 H9 N O2  =    18 atoms



      MOLECULAR POINT GROUP   :   C1  


                  EIGENVALUES  
 -37.40296 -30.63791 -29.41107 -27.12003 -26.05342 -23.85200 -22.19264 -19.80678
 -19.11942 -18.27270 -17.50228 -16.64670 -16.16676 -15.98862 -15.21583 -14.65995
 -14.01276 -13.28342 -12.83533 -12.40385 -12.01157 -11.43784 -10.91974 -10.71084
 -10.12611   1.35936   1.51756   2.14813   2.50647   2.65170   2.71706   2.89721
   3.25985   3.77507   3.93202   4.11493   5.08884   5.20574   5.26748   5.46832
   5.59870   5.64433   5.67459   5.72828   6.33439


              NET ATOMIC CHARGES AND DIPOLE CONTRIBUTIONS

  ATOM NO.   TYPE          CHARGE      No. of ELECS.   s-Pop       p-Pop       
    1          O          -0.535743        6.5357     1.85397     4.68177
    2          C          -0.007780        4.0078     1.08482     2.92296
    3          C          -0.041228        4.0412     1.10041     2.94082
    4          C          -0.284872        4.2849     1.09151     3.19336
    5          C          -0.071992        4.0720     1.09937     2.97262
    6          N          -0.359741        5.3597     1.80078     3.55897
    7          C          -0.177308        4.1773     1.09768     3.07963
    8          C           0.154963        3.8450     1.07593     2.76910
    9          O          -0.455500        6.4555     1.83842     4.61708
   10          H           0.332988        0.6670     0.66701
   11          H           0.144162        0.8558     0.85584
   12          H           0.129783        0.8702     0.87022
   13          H           0.154797        0.8452     0.84520
   14          H           0.178886        0.8211     0.82111
   15          H           0.189094        0.8109     0.81091
   16          H           0.149353        0.8506     0.85065
   17          H           0.171301        0.8287     0.82870
   18          H           0.328837        0.6712     0.67116
 DIPOLE           X         Y         Z       TOTAL
 POINT-CHG.     1.746    -1.563    -0.583     2.415
 HYBRID         0.826    -0.325    -0.128     0.897
 SUM            2.572    -1.888    -0.711     3.269


          ATOMIC ORBITAL ELECTRON POPULATIONS

     Atom    s        px        py        pz   
    1  O   1.85397   1.49420   1.33865   1.84892
    2  C   1.08482   0.88395   0.98964   1.04937
    3  C   1.10041   0.97762   0.87509   1.08811
    4  C   1.09151   1.02745   1.04663   1.11929
    5  C   1.09937   1.00085   0.95168   1.02010
    6  N   1.80078   1.17926   1.26804   1.11166
    7  C   1.09768   0.92601   1.09177   1.06185
    8  C   1.07593   0.77787   0.98670   1.00454
    9  O   1.83842   1.30100   1.74198   1.57410
   10  H   0.66701
   11  H   0.85584
   12  H   0.87022
   13  H   0.84520
   14  H   0.82111
   15  H   0.81091
   16  H   0.85065
   17  H   0.82870
   18  H   0.67116

 **********************
 *                    *
 * JOB ENDED NORMALLY *
 *                    *
 **********************



 TOTAL JOB TIME:             1.01 SECONDS

 == MOPAC DONE ==
