 *******************************************************************************
 **                                                                           **
 **                              MOPAC v23.2                                  **
 **                                                                           **
 *******************************************************************************
 **          Digital Object Identifier (DOI): 10.5281/zenodo.6511958          **
 **    Visit the DOI location for information on how to cite this program.    **
 *******************************************************************************

                              PM7 CALCULATION RESULTS

 *******************************************************************************
 *  CALCULATION DONE: (MAX THREADS = 40)             Fri Sep 19 21:41:30 2025  *
 *  PM7        - The PM7 Hamiltonian to be used
 *  1SCF       - DO 1 SCF AND THEN STOP 
 *  T=         - A TIME OF 172800.0 SECONDS REQUESTED
 *  DUMP=N     - RESTART FILE WRITTEN EVERY 7200.0 SECONDS REQUESTED
 *  RELSCF     - DEFAULT SCF CRITERION MULTIPLIED BY 0.0001
 *              (DEFAULT SCF CRITERION = 0.00010)
 *  GRADIENTS  - ALL GRADIENTS TO BE PRINTED
 *  DISP       - PRINT DISPERSION AND HYDROGEN BOND ENERGIES
 *******************************************************************************
PM7 1SCF GRADIENTS DISP RELSCF=0.0001
 Title: ASE calculation

   ATOM   CHEMICAL          X               Y               Z
  NUMBER   SYMBOL      (ANGSTROMS)     (ANGSTROMS)     (ANGSTROMS)

     1       C         -2.42284515  *  -1.64387249  *   0.39366173  *
     2       C         -1.34136307  *  -0.61861640  *   0.37258972  *
     3       C         -1.45374385  *   0.56701175  *   0.98175495  *
     4       C         -0.35895966  *   1.57961216  *   0.93872474  *
     5       O          0.65060376  *   1.27470691  *  -0.00822562  *
     6       C          1.05906983  *  -0.08520635  *   0.01585212  *
     7       C          2.20977847  *  -0.12367602  *  -1.00252626  *
     8       O          3.36411033  *   0.46166919  *  -0.43842674  *
     9       C         -0.10989736  *  -0.99136503  *  -0.39480295  *
    10       H         -2.08718653  *  -2.56799102  *   0.88528371  *
    11       H         -3.31920001  *  -1.30393773  *   0.92889113  *
    12       H         -2.74096413  *  -1.91323933  *  -0.62369581  *
    13       H         -2.33621689  *   0.86183033  *   1.53864747  *
    14       H          0.12073031  *   1.70176629  *   1.93072251  *
    15       H         -0.71753240  *   2.56546564  *   0.57796497  *
    16       H          1.42227052  *  -0.33338067  *   1.03766239  *
    17       H          1.95036813  *   0.41297666  *  -1.93394551  *
    18       H          2.52853105  *  -1.15582024  *  -1.23238618  *
    19       H          3.15648520  *   1.37325684  *  -0.13770559  *
    20       H          0.15614193  *  -2.05370499  *  -0.23387489  *
    21       H         -0.31671602  *  -0.88799235  *  -1.48122111  *



          CARTESIAN COORDINATES 

    NO.       ATOM           X           Y           Z

     1         C         -2.4228     -1.6439      0.3937
     2         C         -1.3414     -0.6186      0.3726
     3         C         -1.4537      0.5670      0.9818
     4         C         -0.3590      1.5796      0.9387
     5         O          0.6506      1.2747     -0.0082
     6         C          1.0591     -0.0852      0.0159
     7         C          2.2098     -0.1237     -1.0025
     8         O          3.3641      0.4617     -0.4384
     9         C         -0.1099     -0.9914     -0.3948
    10         H         -2.0872     -2.5680      0.8853
    11         H         -3.3192     -1.3039      0.9289
    12         H         -2.7410     -1.9132     -0.6237
    13         H         -2.3362      0.8618      1.5386
    14         H          0.1207      1.7018      1.9307
    15         H         -0.7175      2.5655      0.5780
    16         H          1.4223     -0.3334      1.0377
    17         H          1.9504      0.4130     -1.9339
    18         H          2.5285     -1.1558     -1.2324
    19         H          3.1565      1.3733     -0.1377
    20         H          0.1561     -2.0537     -0.2339
    21         H         -0.3167     -0.8880     -1.4812

 General Reference for PM7:
 "Optimization of Parameters for Semiempirical Methods VI: More Modifications to the 
 NDDO Approximations and Re-optimization of Parameters", J. J. P. Stewart, J. Mol. Mod., 1:32, 19 (2013)
 https://link.springer.com/article/10.1007/s00894-012-1667-x

           Empirical Formula: C7 H12 O2  =    21 atoms



      MOLECULAR POINT GROUP   :   C1  


      RHF CALCULATION, NO. OF DOUBLY OCCUPIED LEVELS = 26

  SCF CRITERION =    0.1000E-07

 -------------------------------------------------------------------------------
 PM7 1SCF GRADIENTS DISP RELSCF=0.0001
 Title: ASE calculation



     1SCF WAS SPECIFIED, SO BFGS WAS NOT USED                 
     SCF FIELD WAS ACHIEVED                                   


                              PM7 CALCULATION
                                                       MOPAC v23.2 Linux
                                                       Fri Sep 19 21:41:31 2025




          FINAL HEAT OF FORMATION =        -88.98318 KCAL/MOL =    -372.30561 KJ/MOL

          TOTAL ENERGY            =     -37184.05757 KCAL/MOL = ELECTRONIC ENERGY + CORE-CORE REPULSION
          ENERGY OF ATOMS         =      37097.27293 KCAL/MOL
                              SUM =        -86.78463 KCAL/MOL
          DISPERSION ENERGY       =         -2.12649 KCAL/MOL
          H-BOND ENERGY           =         -0.07205 KCAL/MOL
                              SUM =        -88.98318 KCAL/MOL = FINAL HEAT OF FORMATION



          TOTAL ENERGY            =      -1612.45335 EV
          ELECTRONIC ENERGY       =      -7928.23836 EV 
          CORE-CORE REPULSION     =       6315.78502 EV
          COSMO AREA              =        169.40 SQUARE ANGSTROMS
          COSMO VOLUME            =        167.29 CUBIC ANGSTROMS

          GRADIENT NORM           =          1.27038          =       0.27722 PER ATOM
          IONIZATION POTENTIAL    =          9.584973 EV
          HOMO LUMO ENERGIES (EV) =         -9.585  0.968
          NO. OF FILLED LEVELS    =         26
          MOLECULAR WEIGHT        =        128.1706         POINT GROUP:  C1  

          MOLECULAR DIMENSIONS (Angstroms)

            Atom       Atom       Distance
            H    19    H    11     7.08798
            H    18    H    15     4.92993
            H    14    H    17     2.86004


          SCF CALCULATIONS        =          1

          WALL-CLOCK TIME         =      0.719 SECONDS
          COMPUTATION TIME        =      0.944 SECONDS

          LARGEST ATOMIC GRADIENTS

          Atom     Label                     Cartesian Gradients           Cartesian Coordinates       |Gradient|
                                           X          Y          Z        X          Y          Z

             8       O                   0.442      0.083      0.084    3.36411    0.46167   -0.43843      0.457
            10       H                  -0.059      0.358     -0.256   -2.08719   -2.56799    0.88528      0.444
            21       H                  -0.140     -0.362      0.007   -0.31672   -0.88799   -1.48122      0.388
            11       H                   0.240     -0.221     -0.139   -3.31920   -1.30394    0.92889      0.355
             4       C                   0.139      0.187      0.244   -0.35896    1.57961    0.93872      0.337
            17       H                   0.047      0.192     -0.268    1.95037    0.41298   -1.93395      0.333
            12       H                  -0.122     -0.125      0.253   -2.74096   -1.91324   -0.62370      0.307
             7       C                  -0.271     -0.077      0.083    2.20978   -0.12368   -1.00253      0.294
            15       H                  -0.035     -0.285      0.004   -0.71753    2.56547    0.57796      0.287
             6       C                  -0.243      0.057     -0.019    1.05907   -0.08521    0.01585      0.251



       FINAL  POINT  AND  DERIVATIVES

   PARAMETER     ATOM    TYPE            VALUE        GRADIENT
      1          1  C    CARTESIAN X    -2.422845     -0.047308  KCAL/ANGSTROM
      2          1  C    CARTESIAN Y    -1.643872      0.098336  KCAL/ANGSTROM
      3          1  C    CARTESIAN Z     0.393662     -0.086538  KCAL/ANGSTROM
      4          2  C    CARTESIAN X    -1.341363     -0.028480  KCAL/ANGSTROM
      5          2  C    CARTESIAN Y    -0.618616      0.132192  KCAL/ANGSTROM
      6          2  C    CARTESIAN Z     0.372590      0.182631  KCAL/ANGSTROM
      7          3  C    CARTESIAN X    -1.453744      0.179553  KCAL/ANGSTROM
      8          3  C    CARTESIAN Y     0.567012      0.041623  KCAL/ANGSTROM
      9          3  C    CARTESIAN Z     0.981755     -0.128977  KCAL/ANGSTROM
     10          4  C    CARTESIAN X    -0.358960      0.138849  KCAL/ANGSTROM
     11          4  C    CARTESIAN Y     1.579612      0.186516  KCAL/ANGSTROM
     12          4  C    CARTESIAN Z     0.938725      0.244368  KCAL/ANGSTROM
     13          5  O    CARTESIAN X     0.650604     -0.138338  KCAL/ANGSTROM
     14          5  O    CARTESIAN Y     1.274707      0.139594  KCAL/ANGSTROM
     15          5  O    CARTESIAN Z    -0.008226     -0.007684  KCAL/ANGSTROM
     16          6  C    CARTESIAN X     1.059070     -0.243478  KCAL/ANGSTROM
     17          6  C    CARTESIAN Y    -0.085206      0.057192  KCAL/ANGSTROM
     18          6  C    CARTESIAN Z     0.015852     -0.018722  KCAL/ANGSTROM
     19          7  C    CARTESIAN X     2.209778     -0.271261  KCAL/ANGSTROM
     20          7  C    CARTESIAN Y    -0.123676     -0.077432  KCAL/ANGSTROM
     21          7  C    CARTESIAN Z    -1.002526      0.082870  KCAL/ANGSTROM
     22          8  O    CARTESIAN X     3.364110      0.441908  KCAL/ANGSTROM
     23          8  O    CARTESIAN Y     0.461669      0.083459  KCAL/ANGSTROM
     24          8  O    CARTESIAN Z    -0.438427      0.083507  KCAL/ANGSTROM
     25          9  C    CARTESIAN X    -0.109897     -0.152331  KCAL/ANGSTROM
     26          9  C    CARTESIAN Y    -0.991365     -0.129370  KCAL/ANGSTROM
     27          9  C    CARTESIAN Z    -0.394803      0.015185  KCAL/ANGSTROM
     28         10  H    CARTESIAN X    -2.087187     -0.058537  KCAL/ANGSTROM
     29         10  H    CARTESIAN Y    -2.567991      0.357517  KCAL/ANGSTROM
     30         10  H    CARTESIAN Z     0.885284     -0.256400  KCAL/ANGSTROM
     31         11  H    CARTESIAN X    -3.319200      0.240223  KCAL/ANGSTROM
     32         11  H    CARTESIAN Y    -1.303938     -0.220608  KCAL/ANGSTROM
     33         11  H    CARTESIAN Z     0.928891     -0.139421  KCAL/ANGSTROM
     34         12  H    CARTESIAN X    -2.740964     -0.121708  KCAL/ANGSTROM
     35         12  H    CARTESIAN Y    -1.913239     -0.125354  KCAL/ANGSTROM
     36         12  H    CARTESIAN Z    -0.623696      0.252852  KCAL/ANGSTROM
     37         13  H    CARTESIAN X    -2.336217      0.165390  KCAL/ANGSTROM
     38         13  H    CARTESIAN Y     0.861830      0.005738  KCAL/ANGSTROM
     39         13  H    CARTESIAN Z     1.538647     -0.179660  KCAL/ANGSTROM
     40         14  H    CARTESIAN X     0.120730      0.020008  KCAL/ANGSTROM
     41         14  H    CARTESIAN Y     1.701766     -0.042548  KCAL/ANGSTROM
     42         14  H    CARTESIAN Z     1.930723      0.120540  KCAL/ANGSTROM
     43         15  H    CARTESIAN X    -0.717532     -0.035401  KCAL/ANGSTROM
     44         15  H    CARTESIAN Y     2.565466     -0.285243  KCAL/ANGSTROM
     45         15  H    CARTESIAN Z     0.577965      0.004082  KCAL/ANGSTROM
     46         16  H    CARTESIAN X     1.422271     -0.066664  KCAL/ANGSTROM
     47         16  H    CARTESIAN Y    -0.333381     -0.045520  KCAL/ANGSTROM
     48         16  H    CARTESIAN Z     1.037662     -0.127807  KCAL/ANGSTROM
     49         17  H    CARTESIAN X     1.950368      0.046836  KCAL/ANGSTROM
     50         17  H    CARTESIAN Y     0.412977      0.191748  KCAL/ANGSTROM
     51         17  H    CARTESIAN Z    -1.933946     -0.268337  KCAL/ANGSTROM
     52         18  H    CARTESIAN X     2.528531      0.198960  KCAL/ANGSTROM
     53         18  H    CARTESIAN Y    -1.155820     -0.035470  KCAL/ANGSTROM
     54         18  H    CARTESIAN Z    -1.232386      0.031316  KCAL/ANGSTROM
     55         19  H    CARTESIAN X     3.156485     -0.057221  KCAL/ANGSTROM
     56         19  H    CARTESIAN Y     1.373257      0.084282  KCAL/ANGSTROM
     57         19  H    CARTESIAN Z    -0.137706      0.064131  KCAL/ANGSTROM
     58         20  H    CARTESIAN X     0.156142     -0.071284  KCAL/ANGSTROM
     59         20  H    CARTESIAN Y    -2.053705     -0.054315  KCAL/ANGSTROM
     60         20  H    CARTESIAN Z    -0.233875      0.125226  KCAL/ANGSTROM
     61         21  H    CARTESIAN X    -0.316716     -0.139744  KCAL/ANGSTROM
     62         21  H    CARTESIAN Y    -0.887992     -0.362351  KCAL/ANGSTROM
     63         21  H    CARTESIAN Z    -1.481221      0.006839  KCAL/ANGSTROM




   ATOM   CHEMICAL          X               Y               Z
  NUMBER   SYMBOL      (ANGSTROMS)     (ANGSTROMS)     (ANGSTROMS)

     1       C         -2.42284515  *  -1.64387249  *   0.39366173  *
     2       C         -1.34136307  *  -0.61861640  *   0.37258972  *
     3       C         -1.45374385  *   0.56701175  *   0.98175495  *
     4       C         -0.35895966  *   1.57961216  *   0.93872474  *
     5       O          0.65060376  *   1.27470691  *  -0.00822562  *
     6       C          1.05906983  *  -0.08520635  *   0.01585212  *
     7       C          2.20977847  *  -0.12367602  *  -1.00252626  *
     8       O          3.36411033  *   0.46166919  *  -0.43842674  *
     9       C         -0.10989736  *  -0.99136503  *  -0.39480295  *
    10       H         -2.08718653  *  -2.56799102  *   0.88528371  *
    11       H         -3.31920001  *  -1.30393773  *   0.92889113  *
    12       H         -2.74096413  *  -1.91323933  *  -0.62369581  *
    13       H         -2.33621689  *   0.86183033  *   1.53864747  *
    14       H          0.12073031  *   1.70176629  *   1.93072251  *
    15       H         -0.71753240  *   2.56546564  *   0.57796497  *
    16       H          1.42227052  *  -0.33338067  *   1.03766239  *
    17       H          1.95036813  *   0.41297666  *  -1.93394551  *
    18       H          2.52853105  *  -1.15582024  *  -1.23238618  *
    19       H          3.15648520  *   1.37325684  *  -0.13770559  *
    20       H          0.15614193  *  -2.05370499  *  -0.23387489  *
    21       H         -0.31671602  *  -0.88799235  *  -1.48122111  *

                             CARTESIAN COORDINATES

   1    C       -2.422845152    -1.643872493     0.393661734
   2    C       -1.341363066    -0.618616405     0.372589723
   3    C       -1.453743852     0.567011746     0.981754947
   4    C       -0.358959657     1.579612163     0.938724737
   5    O        0.650603764     1.274706905    -0.008225616
   6    C        1.059069833    -0.085206347     0.015852121
   7    C        2.209778468    -0.123676024    -1.002526261
   8    O        3.364110332     0.461669194    -0.438426739
   9    C       -0.109897356    -0.991365030    -0.394802953
  10    H       -2.087186532    -2.567991016     0.885283708
  11    H       -3.319200012    -1.303937725     0.928891133
  12    H       -2.740964131    -1.913239333    -0.623695815
  13    H       -2.336216892     0.861830333     1.538647473
  14    H        0.120730315     1.701766288     1.930722514
  15    H       -0.717532399     2.565465638     0.577964969
  16    H        1.422270521    -0.333380671     1.037662387
  17    H        1.950368128     0.412976660    -1.933945511
  18    H        2.528531055    -1.155820238    -1.232386184
  19    H        3.156485202     1.373256844    -0.137705592
  20    H        0.156141925    -2.053704988    -0.233874889
  21    H       -0.316716017    -0.887992347    -1.481221114


           Empirical Formula: C7 H12 O2  =    21 atoms



      MOLECULAR POINT GROUP   :   C1  


                  EIGENVALUES  
 -30.80020 -29.31129 -28.28496 -26.82484 -25.24516 -23.41323 -22.21754 -20.66821
 -18.27268 -17.05289 -16.74573 -16.49085 -15.48905 -14.98307 -14.52656 -14.41533
 -14.11581 -13.49621 -13.20154 -12.92776 -12.57853 -11.82804 -11.60576 -10.49133
 -10.11366  -9.58497   0.96835   2.20155   2.98654   3.52075   3.67050   4.12683
   4.34638   4.56259   4.87909   5.30980   5.42152   5.43085   5.44223   5.56949
   5.61700   5.85404   5.93005   6.01741   6.07662   6.32393   6.37253   6.65996


              NET ATOMIC CHARGES AND DIPOLE CONTRIBUTIONS

  ATOM NO.   TYPE          CHARGE      No. of ELECS.   s-Pop       p-Pop       
    1          C          -0.460762        4.4608     1.04992     3.41084
    2          C           0.064436        3.9356     1.06922     2.86635
    3          C          -0.279094        4.2791     1.08744     3.19166
    4          C          -0.022826        4.0228     1.07993     2.94289
    5          O          -0.418915        6.4189     1.87967     4.53924
    6          C           0.070402        3.9296     1.09777     2.83183
    7          C          -0.029539        4.0295     1.09137     2.93817
    8          O          -0.540440        6.5404     1.85219     4.68825
    9          C          -0.345087        4.3451     1.06345     3.28163
   10          H           0.158544        0.8415     0.84146
   11          H           0.155283        0.8447     0.84472
   12          H           0.158735        0.8413     0.84126
   13          H           0.155422        0.8446     0.84458
   14          H           0.126749        0.8733     0.87325
   15          H           0.147918        0.8521     0.85208
   16          H           0.136133        0.8639     0.86387
   17          H           0.133578        0.8664     0.86642
   18          H           0.144816        0.8552     0.85518
   19          H           0.323703        0.6763     0.67630
   20          H           0.155753        0.8442     0.84425
   21          H           0.165191        0.8348     0.83481
 DIPOLE           X         Y         Z       TOTAL
 POINT-CHG.    -2.502    -1.366     0.424     2.882
 HYBRID        -0.029     0.324    -0.002     0.325
 SUM           -2.531    -1.042     0.422     2.769


          ATOMIC ORBITAL ELECTRON POPULATIONS

     Atom    s        px        py        pz   
    1  C   1.04992   1.11061   1.11915   1.18109
    2  C   1.06922   0.94784   0.96167   0.95684
    3  C   1.08744   1.07720   1.01977   1.09469
    4  C   1.07993   0.91115   1.03984   0.99190
    5  O   1.87967   1.59663   1.31886   1.62375
    6  C   1.09777   0.94660   0.81265   1.07258
    7  C   1.09137   0.85617   1.06995   1.01206
    8  O   1.85219   1.40257   1.44101   1.84467
    9  C   1.06345   1.03374   1.11259   1.13530
   10  H   0.84146
   11  H   0.84472
   12  H   0.84126
   13  H   0.84458
   14  H   0.87325
   15  H   0.85208
   16  H   0.86387
   17  H   0.86642
   18  H   0.85518
   19  H   0.67630
   20  H   0.84425
   21  H   0.83481

 **********************
 *                    *
 * JOB ENDED NORMALLY *
 *                    *
 **********************



 TOTAL JOB TIME:             1.05 SECONDS

 == MOPAC DONE ==
