 *******************************************************************************
 **                                                                           **
 **                              MOPAC v23.2                                  **
 **                                                                           **
 *******************************************************************************
 **          Digital Object Identifier (DOI): 10.5281/zenodo.6511958          **
 **    Visit the DOI location for information on how to cite this program.    **
 *******************************************************************************

                              PM7 CALCULATION RESULTS

 *******************************************************************************
 *  CALCULATION DONE: (MAX THREADS = 40)             Fri Sep 19 21:38:47 2025  *
 *  PM7        - The PM7 Hamiltonian to be used
 *  1SCF       - DO 1 SCF AND THEN STOP 
 *  T=         - A TIME OF 172800.0 SECONDS REQUESTED
 *  DUMP=N     - RESTART FILE WRITTEN EVERY 7200.0 SECONDS REQUESTED
 *  RELSCF     - DEFAULT SCF CRITERION MULTIPLIED BY 0.0001
 *              (DEFAULT SCF CRITERION = 0.00010)
 *  GRADIENTS  - ALL GRADIENTS TO BE PRINTED
 *  DISP       - PRINT DISPERSION AND HYDROGEN BOND ENERGIES
 *******************************************************************************
PM7 1SCF GRADIENTS DISP RELSCF=0.0001
 Title: ASE calculation

   ATOM   CHEMICAL          X               Y               Z
  NUMBER   SYMBOL      (ANGSTROMS)     (ANGSTROMS)     (ANGSTROMS)

     1       C         -2.14418608  *   2.04887251  *  -1.45409379  *
     2       C         -1.29987967  *   1.39352895  *  -0.81604093  *
     3       C         -0.31999125  *   0.66505808  *  -0.10074617  *
     4       C          1.06675878  *   1.27194551  *  -0.25347127  *
     5       N          1.98928156  *   0.51694802  *  -0.93786038  *
     6       O          1.33924664  *   2.37178356  *   0.17441644  *
     7       C         -0.66435269  *  -0.02940267  *   1.20955984  *
     8       N         -0.36394759  *  -0.82479114  *   0.00872348  *
     9       C         -1.46472656  *  -1.52307626  *  -0.65209350  *
    10       H         -2.83714979  *   2.59466535  *  -1.97778310  *
    11       H          2.92127446  *   0.85399255  *  -1.06561066  *
    12       H          1.79030288  *  -0.42538139  *  -1.20691489  *
    13       H         -1.67483211  *   0.04430019  *   1.61231804  *
    14       H          0.08299863  *  -0.08340825  *   2.00841331  *
    15       H         -1.46812952  *  -2.56732228  *  -0.28827481  *
    16       H         -1.27890118  *  -1.54351312  *  -1.74109866  *
    17       H         -2.46625790  *  -1.09734861  *  -0.48852766  *



          CARTESIAN COORDINATES 

    NO.       ATOM           X           Y           Z

     1         C         -2.1442      2.0489     -1.4541
     2         C         -1.2999      1.3935     -0.8160
     3         C         -0.3200      0.6651     -0.1007
     4         C          1.0668      1.2719     -0.2535
     5         N          1.9893      0.5169     -0.9379
     6         O          1.3392      2.3718      0.1744
     7         C         -0.6644     -0.0294      1.2096
     8         N         -0.3639     -0.8248      0.0087
     9         C         -1.4647     -1.5231     -0.6521
    10         H         -2.8371      2.5947     -1.9778
    11         H          2.9213      0.8540     -1.0656
    12         H          1.7903     -0.4254     -1.2069
    13         H         -1.6748      0.0443      1.6123
    14         H          0.0830     -0.0834      2.0084
    15         H         -1.4681     -2.5673     -0.2883
    16         H         -1.2789     -1.5435     -1.7411
    17         H         -2.4663     -1.0973     -0.4885

 General Reference for PM7:
 "Optimization of Parameters for Semiempirical Methods VI: More Modifications to the 
 NDDO Approximations and Re-optimization of Parameters", J. J. P. Stewart, J. Mol. Mod., 1:32, 19 (2013)
 https://link.springer.com/article/10.1007/s00894-012-1667-x

           Empirical Formula: C6 H8 N2 O  =    17 atoms



      MOLECULAR POINT GROUP   :   C1  


      RHF CALCULATION, NO. OF DOUBLY OCCUPIED LEVELS = 24

  SCF CRITERION =    0.1000E-07

 -------------------------------------------------------------------------------
 PM7 1SCF GRADIENTS DISP RELSCF=0.0001
 Title: ASE calculation



     1SCF WAS SPECIFIED, SO BFGS WAS NOT USED                 
     SCF FIELD WAS ACHIEVED                                   


                              PM7 CALCULATION
                                                       MOPAC v23.2 Linux
                                                       Fri Sep 19 21:38:47 2025




          FINAL HEAT OF FORMATION =         47.16142 KCAL/MOL =     197.32338 KJ/MOL

          TOTAL ENERGY            =     -34826.85912 KCAL/MOL = ELECTRONIC ENERGY + CORE-CORE REPULSION
          ENERGY OF ATOMS         =      34865.63902 KCAL/MOL
                              SUM =         38.77990 KCAL/MOL
          DISPERSION ENERGY       =         -1.97969 KCAL/MOL
          H-BOND ENERGY           =         -0.11994 KCAL/MOL
          MM CORR. FOR -CO-NH-    =          0.04346 KCAL/MOL
                              SUM =         36.72372 KCAL/MOL = FINAL HEAT OF FORMATION

     *    WARNING - An energy term is incorrect or missing!

     *    FINAL HEAT OF FORMATION     =     47.16142 KCAL/MOL
     *    SUM OF CONTRIBUTIONS TO HoF =     36.72372 KCAL/MOL
     *                     DIFFERENCE =     10.43770 KCAL/MOL



          TOTAL ENERGY            =      -1510.23555 EV
          ELECTRONIC ENERGY       =      -6931.28540 EV 
          CORE-CORE REPULSION     =       5421.04985 EV
          COSMO AREA              =        165.38 SQUARE ANGSTROMS
          COSMO VOLUME            =        163.86 CUBIC ANGSTROMS

          GRADIENT NORM           =          1.19317          =       0.28939 PER ATOM
          IONIZATION POTENTIAL    =         10.070833 EV
          HOMO LUMO ENERGIES (EV) =        -10.071  0.588
          NO. OF FILLED LEVELS    =         24
          MOLECULAR WEIGHT        =        124.1420         POINT GROUP:  C1  

          MOLECULAR DIMENSIONS (Angstroms)

            Atom       Atom       Distance
            H    11    H    10     6.08453
            H    15    O     6     5.54666
            H    14    H    10     3.48522


          SCF CALCULATIONS        =          1

          WALL-CLOCK TIME         =      0.711 SECONDS
          COMPUTATION TIME        =      0.396 SECONDS

          LARGEST ATOMIC GRADIENTS

          Atom     Label                     Cartesian Gradients           Cartesian Coordinates       |Gradient|
                                           X          Y          Z        X          Y          Z

            11       H                  -0.391      0.082     -0.178    2.92127    0.85399   -1.06561      0.437
            16       H                  -0.146      0.387     -0.056   -1.27890   -1.54351   -1.74110      0.418
             1       C                   0.070     -0.346     -0.127   -2.14419    2.04887   -1.45409      0.375
             8       N                  -0.062     -0.031      0.360   -0.36395   -0.82479    0.00872      0.367
            17       H                   0.334     -0.113      0.070   -2.46626   -1.09735   -0.48853      0.359
             4       C                  -0.118      0.002     -0.326    1.06676    1.27195   -0.25347      0.347
            15       H                  -0.235      0.083     -0.160   -1.46813   -2.56732   -0.28827      0.296
             3       C                   0.132     -0.191     -0.175   -0.31999    0.66506   -0.10075      0.291
             7       C                  -0.147     -0.146      0.174   -0.66435   -0.02940    1.20956      0.271
             2       C                   0.229      0.057     -0.060   -1.29988    1.39353   -0.81604      0.244



       FINAL  POINT  AND  DERIVATIVES

   PARAMETER     ATOM    TYPE            VALUE        GRADIENT
      1          1  C    CARTESIAN X    -2.144186      0.069769  KCAL/ANGSTROM
      2          1  C    CARTESIAN Y     2.048873     -0.345554  KCAL/ANGSTROM
      3          1  C    CARTESIAN Z    -1.454094     -0.127438  KCAL/ANGSTROM
      4          2  C    CARTESIAN X    -1.299880      0.229272  KCAL/ANGSTROM
      5          2  C    CARTESIAN Y     1.393529      0.057072  KCAL/ANGSTROM
      6          2  C    CARTESIAN Z    -0.816041     -0.059880  KCAL/ANGSTROM
      7          3  C    CARTESIAN X    -0.319991      0.131688  KCAL/ANGSTROM
      8          3  C    CARTESIAN Y     0.665058     -0.190868  KCAL/ANGSTROM
      9          3  C    CARTESIAN Z    -0.100746     -0.175382  KCAL/ANGSTROM
     10          4  C    CARTESIAN X     1.066759     -0.117714  KCAL/ANGSTROM
     11          4  C    CARTESIAN Y     1.271946      0.002068  KCAL/ANGSTROM
     12          4  C    CARTESIAN Z    -0.253471     -0.326285  KCAL/ANGSTROM
     13          5  N    CARTESIAN X     1.989282     -0.042304  KCAL/ANGSTROM
     14          5  N    CARTESIAN Y     0.516948     -0.074865  KCAL/ANGSTROM
     15          5  N    CARTESIAN Z    -0.937860      0.165363  KCAL/ANGSTROM
     16          6  O    CARTESIAN X     1.339247      0.095609  KCAL/ANGSTROM
     17          6  O    CARTESIAN Y     2.371784     -0.006879  KCAL/ANGSTROM
     18          6  O    CARTESIAN Z     0.174416      0.211823  KCAL/ANGSTROM
     19          7  C    CARTESIAN X    -0.664353     -0.147142  KCAL/ANGSTROM
     20          7  C    CARTESIAN Y    -0.029403     -0.145877  KCAL/ANGSTROM
     21          7  C    CARTESIAN Z     1.209560      0.174249  KCAL/ANGSTROM
     22          8  N    CARTESIAN X    -0.363948     -0.062243  KCAL/ANGSTROM
     23          8  N    CARTESIAN Y    -0.824791     -0.030621  KCAL/ANGSTROM
     24          8  N    CARTESIAN Z     0.008723      0.360461  KCAL/ANGSTROM
     25          9  C    CARTESIAN X    -1.464727      0.200382  KCAL/ANGSTROM
     26          9  C    CARTESIAN Y    -1.523076      0.059038  KCAL/ANGSTROM
     27          9  C    CARTESIAN Z    -0.652093     -0.003706  KCAL/ANGSTROM
     28         10  H    CARTESIAN X    -2.837150      0.058445  KCAL/ANGSTROM
     29         10  H    CARTESIAN Y     2.594665     -0.057730  KCAL/ANGSTROM
     30         10  H    CARTESIAN Z    -1.977783      0.033659  KCAL/ANGSTROM
     31         11  H    CARTESIAN X     2.921274     -0.390617  KCAL/ANGSTROM
     32         11  H    CARTESIAN Y     0.853993      0.081725  KCAL/ANGSTROM
     33         11  H    CARTESIAN Z    -1.065611     -0.177664  KCAL/ANGSTROM
     34         12  H    CARTESIAN X     1.790303      0.117408  KCAL/ANGSTROM
     35         12  H    CARTESIAN Y    -0.425381      0.108053  KCAL/ANGSTROM
     36         12  H    CARTESIAN Z    -1.206915     -0.070737  KCAL/ANGSTROM
     37         13  H    CARTESIAN X    -1.674832     -0.159381  KCAL/ANGSTROM
     38         13  H    CARTESIAN Y     0.044300      0.106502  KCAL/ANGSTROM
     39         13  H    CARTESIAN Z     1.612318      0.088069  KCAL/ANGSTROM
     40         14  H    CARTESIAN X     0.082999      0.063406  KCAL/ANGSTROM
     41         14  H    CARTESIAN Y    -0.083408      0.079719  KCAL/ANGSTROM
     42         14  H    CARTESIAN Z     2.008413      0.054120  KCAL/ANGSTROM
     43         15  H    CARTESIAN X    -1.468130     -0.234757  KCAL/ANGSTROM
     44         15  H    CARTESIAN Y    -2.567322      0.083363  KCAL/ANGSTROM
     45         15  H    CARTESIAN Z    -0.288275     -0.160320  KCAL/ANGSTROM
     46         16  H    CARTESIAN X    -1.278901     -0.145864  KCAL/ANGSTROM
     47         16  H    CARTESIAN Y    -1.543513      0.387496  KCAL/ANGSTROM
     48         16  H    CARTESIAN Z    -1.741099     -0.055937  KCAL/ANGSTROM
     49         17  H    CARTESIAN X    -2.466258      0.334011  KCAL/ANGSTROM
     50         17  H    CARTESIAN Y    -1.097349     -0.112647  KCAL/ANGSTROM
     51         17  H    CARTESIAN Z    -0.488528      0.069574  KCAL/ANGSTROM




   ATOM   CHEMICAL          X               Y               Z
  NUMBER   SYMBOL      (ANGSTROMS)     (ANGSTROMS)     (ANGSTROMS)

     1       C         -2.14418608  *   2.04887251  *  -1.45409379  *
     2       C         -1.29987967  *   1.39352895  *  -0.81604093  *
     3       C         -0.31999125  *   0.66505808  *  -0.10074617  *
     4       C          1.06675878  *   1.27194551  *  -0.25347127  *
     5       N          1.98928156  *   0.51694802  *  -0.93786038  *
     6       O          1.33924664  *   2.37178356  *   0.17441644  *
     7       C         -0.66435269  *  -0.02940267  *   1.20955984  *
     8       N         -0.36394759  *  -0.82479114  *   0.00872348  *
     9       C         -1.46472656  *  -1.52307626  *  -0.65209350  *
    10       H         -2.83714979  *   2.59466535  *  -1.97778310  *
    11       H          2.92127446  *   0.85399255  *  -1.06561066  *
    12       H          1.79030288  *  -0.42538139  *  -1.20691489  *
    13       H         -1.67483211  *   0.04430019  *   1.61231804  *
    14       H          0.08299863  *  -0.08340825  *   2.00841331  *
    15       H         -1.46812952  *  -2.56732228  *  -0.28827481  *
    16       H         -1.27890118  *  -1.54351312  *  -1.74109866  *
    17       H         -2.46625790  *  -1.09734861  *  -0.48852766  *

                             CARTESIAN COORDINATES

   1    C       -2.144186076     2.048872513    -1.454093795
   2    C       -1.299879674     1.393528951    -0.816040932
   3    C       -0.319991255     0.665058081    -0.100746171
   4    C        1.066758777     1.271945512    -0.253471267
   5    N        1.989281561     0.516948017    -0.937860378
   6    O        1.339246641     2.371783558     0.174416437
   7    C       -0.664352686    -0.029402674     1.209559837
   8    N       -0.363947592    -0.824791138     0.008723476
   9    C       -1.464726556    -1.523076259    -0.652093499
  10    H       -2.837149789     2.594665354    -1.977783105
  11    H        2.921274458     0.853992547    -1.065610662
  12    H        1.790302878    -0.425381388    -1.206914894
  13    H       -1.674832112     0.044300193     1.612318040
  14    H        0.082998634    -0.083408249     2.008413311
  15    H       -1.468129521    -2.567322283    -0.288274814
  16    H       -1.278901184    -1.543513116    -1.741098665
  17    H       -2.466257898    -1.097348613    -0.488527661


           Empirical Formula: C6 H8 N2 O  =    17 atoms



      MOLECULAR POINT GROUP   :   C1  


                  EIGENVALUES  
 -37.36761 -36.43190 -30.26314 -27.08708 -26.20107 -23.75047 -22.39485 -21.06955
 -18.85952 -17.86745 -17.08713 -16.89692 -15.77558 -15.16905 -14.65170 -14.00361
 -13.75888 -13.06837 -12.56790 -11.51862 -11.40556 -10.45148 -10.25877 -10.07083
   0.58850   0.72220   1.33127   2.03917   2.27145   2.54085   3.32821   3.52386
   3.85758   4.27924   5.04742   5.09454   5.17827   5.27217   5.51649   5.65543
   5.94971   6.00080   6.48757   6.95627


              NET ATOMIC CHARGES AND DIPOLE CONTRIBUTIONS

  ATOM NO.   TYPE          CHARGE      No. of ELECS.   s-Pop       p-Pop       
    1          C          -0.143753        4.1438     1.14746     2.99629
    2          C          -0.104315        4.1043     1.09525     3.00907
    3          C          -0.003304        4.0033     1.03863     2.96467
    4          C           0.600128        3.3999     1.06966     2.33021
    5          N          -0.664330        5.6643     1.53754     4.12679
    6          O          -0.503911        6.5039     1.88041     4.62350
    7          C          -0.176506        4.1765     1.07704     3.09947
    8          N          -0.339935        5.3399     1.74698     3.59296
    9          C          -0.288322        4.2883     1.06170     3.22662
   10          H           0.192005        0.8080     0.80799
   11          H           0.312762        0.6872     0.68724
   12          H           0.319518        0.6805     0.68048
   13          H           0.160316        0.8397     0.83968
   14          H           0.180725        0.8193     0.81927
   15          H           0.162452        0.8375     0.83755
   16          H           0.158497        0.8415     0.84150
   17          H           0.137971        0.8620     0.86203
 DIPOLE           X         Y         Z       TOTAL
 POINT-CHG.    -1.643    -3.287    -1.049     3.822
 HYBRID        -0.324     0.070    -0.185     0.379
 SUM           -1.967    -3.217    -1.233     3.968


          ATOMIC ORBITAL ELECTRON POPULATIONS

     Atom    s        px        py        pz   
    1  C   1.14746   1.00465   0.98769   1.00395
    2  C   1.09525   0.99125   1.01284   1.00497
    3  C   1.03863   1.00851   0.90427   1.05189
    4  C   1.06966   0.81408   0.78829   0.72784
    5  N   1.53754   1.23872   1.27244   1.61564
    6  O   1.88041   1.80463   1.28635   1.53253
    7  C   1.07704   1.15909   0.99705   0.94333
    8  N   1.74698   1.38824   1.06710   1.13762
    9  C   1.06170   1.00772   1.10123   1.11767
   10  H   0.80799
   11  H   0.68724
   12  H   0.68048
   13  H   0.83968
   14  H   0.81927
   15  H   0.83755
   16  H   0.84150
   17  H   0.86203

 **********************
 *                    *
 * JOB ENDED NORMALLY *
 *                    *
 **********************



 TOTAL JOB TIME:             1.12 SECONDS

 == MOPAC DONE ==
