 *******************************************************************************
 **                                                                           **
 **                              MOPAC v23.2                                  **
 **                                                                           **
 *******************************************************************************
 **          Digital Object Identifier (DOI): 10.5281/zenodo.6511958          **
 **    Visit the DOI location for information on how to cite this program.    **
 *******************************************************************************

                              PM7 CALCULATION RESULTS

 *******************************************************************************
 *  CALCULATION DONE: (MAX THREADS = 40)             Fri Sep 19 21:33:03 2025  *
 *  PM7        - The PM7 Hamiltonian to be used
 *
 *
 *
 *                 CHARGE ON SYSTEM = +1
 *
 *
 *
 *  1SCF       - DO 1 SCF AND THEN STOP 
 *  T=         - A TIME OF 172800.0 SECONDS REQUESTED
 *  DUMP=N     - RESTART FILE WRITTEN EVERY 7200.0 SECONDS REQUESTED
 *  RELSCF     - DEFAULT SCF CRITERION MULTIPLIED BY 0.0001
 *              (DEFAULT SCF CRITERION = 0.00010)
 *  GRADIENTS  - ALL GRADIENTS TO BE PRINTED
 *  DISP       - PRINT DISPERSION AND HYDROGEN BOND ENERGIES
 *******************************************************************************
PM7 1SCF GRADIENTS DISP RELSCF=0.0001 CHARGE=1
 Title: ASE calculation

   ATOM   CHEMICAL          X               Y               Z
  NUMBER   SYMBOL      (ANGSTROMS)     (ANGSTROMS)     (ANGSTROMS)

     1       C          2.38935038  *   0.87586849  *   0.05331287  *
     2       C          0.96701939  *   0.75777813  *  -0.17537936  *
     3       N          0.04683165  *   1.82131794  *  -0.21481041  *
     4       C         -1.25644203  *   1.27735122  *  -0.50627600  *
     5       C         -2.24093842  *   1.72220043  *   0.46195799  *
     6       N         -3.03550589  *   2.07641912  *   1.21967595  *
     7       C         -1.06328524  *  -0.27812727  *  -0.56813859  *
     8       C         -1.69553741  *  -1.07812534  *   0.52085453  *
     9       O          0.41531021  *  -0.40688003  *  -0.37250688  *
    10       H          3.00874800  *   0.17308478  *  -0.55365563  *
    11       H          2.78285419  *   1.90705086  *  -0.13158541  *
    12       H          2.67617886  *   0.64723122  *   1.11438164  *
    13       H         -1.57079663  *   1.69251227  *  -1.53994444  *
    14       H         -1.21066069  *  -0.70262572  *  -1.59105662  *
    15       H         -1.52582779  *  -0.68241122  *   1.53605478  *
    16       H         -1.34393089  *  -2.12922176  *   0.53180476  *
    17       H         -2.79734901  *  -1.14613378  *   0.39838600  *



          CARTESIAN COORDINATES 

    NO.       ATOM           X           Y           Z

     1         C          2.3894      0.8759      0.0533
     2         C          0.9670      0.7578     -0.1754
     3         N          0.0468      1.8213     -0.2148
     4         C         -1.2564      1.2774     -0.5063
     5         C         -2.2409      1.7222      0.4620
     6         N         -3.0355      2.0764      1.2197
     7         C         -1.0633     -0.2781     -0.5681
     8         C         -1.6955     -1.0781      0.5209
     9         O          0.4153     -0.4069     -0.3725
    10         H          3.0087      0.1731     -0.5537
    11         H          2.7829      1.9071     -0.1316
    12         H          2.6762      0.6472      1.1144
    13         H         -1.5708      1.6925     -1.5399
    14         H         -1.2107     -0.7026     -1.5911
    15         H         -1.5258     -0.6824      1.5361
    16         H         -1.3439     -2.1292      0.5318
    17         H         -2.7973     -1.1461      0.3984

 General Reference for PM7:
 "Optimization of Parameters for Semiempirical Methods VI: More Modifications to the 
 NDDO Approximations and Re-optimization of Parameters", J. J. P. Stewart, J. Mol. Mod., 1:32, 19 (2013)
 https://link.springer.com/article/10.1007/s00894-012-1667-x

           Empirical Formula: C6 H8 N2 O  =    17 atoms



      MOLECULAR POINT GROUP   :   C1  


          UHF CALCULATION, NO. OF ALPHA ELECTRONS =   24
                           NO. OF BETA  ELECTRONS =   23
  SCF CRITERION =    0.1000E-07

 -------------------------------------------------------------------------------
 PM7 1SCF GRADIENTS DISP RELSCF=0.0001 CHARGE=1
 Title: ASE calculation



     1SCF WAS SPECIFIED, SO BFGS WAS NOT USED                 
     SCF FIELD WAS ACHIEVED                                   


                              PM7 CALCULATION
                                                       MOPAC v23.2 Linux
                                                       Fri Sep 19 21:33:04 2025




          FINAL HEAT OF FORMATION =        214.88760 KCAL/MOL =     899.08973 KJ/MOL

          TOTAL ENERGY            =     -34649.02040 KCAL/MOL = ELECTRONIC ENERGY + CORE-CORE REPULSION
          ENERGY OF ATOMS         =      34865.63902 KCAL/MOL
                              SUM =        216.61862 KCAL/MOL
          DISPERSION ENERGY       =         -1.73101 KCAL/MOL
                              SUM =        214.88760 KCAL/MOL = FINAL HEAT OF FORMATION



          TOTAL ENERGY            =      -1502.52373 EV
          ELECTRONIC ENERGY       =      -6966.65306 EV 
          CORE-CORE REPULSION     =       5464.12932 EV
          COSMO AREA              =        163.15 SQUARE ANGSTROMS
          COSMO VOLUME            =        157.57 CUBIC ANGSTROMS

          GRADIENT NORM           =          0.96607          =       0.23431 PER ATOM
          IONIZATION POTENTIAL    =         16.692152 EV
          ALPHA SOMO LUMO (EV)    =        -16.750 -6.193
          BETA  SOMO LUMO (EV)    =        -16.692 -8.374
          NO. OF ALPHA ELECTRONS  =         24
          NO. OF BETA  ELECTRONS  =         23
          MOLECULAR WEIGHT        =        124.1420         POINT GROUP:  C1  

          MOLECULAR DIMENSIONS (Angstroms)

            Atom       Atom       Distance
            H    10    N     6     6.58030
            H    16    H    11     5.09031
            H    12    H    13     3.72654


          SCF CALCULATIONS        =          1

          WALL-CLOCK TIME         =      1.070 SECONDS
          COMPUTATION TIME        =      0.808 SECONDS

          LARGEST ATOMIC GRADIENTS

          Atom     Label                     Cartesian Gradients           Cartesian Coordinates       |Gradient|
                                           X          Y          Z        X          Y          Z

             5       C                   0.222      0.232     -0.314   -2.24094    1.72220    0.46196      0.449
             4       C                   0.015     -0.379     -0.090   -1.25644    1.27735   -0.50628      0.390
             2       C                  -0.138     -0.090      0.218    0.96702    0.75778   -0.17538      0.273
            10       H                   0.108      0.175     -0.167    3.00875    0.17308   -0.55366      0.265
            16       H                  -0.062      0.237     -0.076   -1.34393   -2.12922    0.53180      0.257
            13       H                  -0.024      0.043      0.252   -1.57080    1.69251   -1.53994      0.257
            12       H                   0.036     -0.216     -0.020    2.67618    0.64723    1.11438      0.219
            14       H                   0.196      0.054     -0.080   -1.21066   -0.70263   -1.59106      0.219
             9       O                  -0.191     -0.098      0.024    0.41531   -0.40688   -0.37251      0.217
             3       N                  -0.151      0.034      0.122    0.04683    1.82132   -0.21481      0.197



       FINAL  POINT  AND  DERIVATIVES

   PARAMETER     ATOM    TYPE            VALUE        GRADIENT
      1          1  C    CARTESIAN X     2.389350     -0.061306  KCAL/ANGSTROM
      2          1  C    CARTESIAN Y     0.875868     -0.017052  KCAL/ANGSTROM
      3          1  C    CARTESIAN Z     0.053313     -0.034520  KCAL/ANGSTROM
      4          2  C    CARTESIAN X     0.967019     -0.138381  KCAL/ANGSTROM
      5          2  C    CARTESIAN Y     0.757778     -0.089527  KCAL/ANGSTROM
      6          2  C    CARTESIAN Z    -0.175379      0.217765  KCAL/ANGSTROM
      7          3  N    CARTESIAN X     0.046832     -0.150947  KCAL/ANGSTROM
      8          3  N    CARTESIAN Y     1.821318      0.033622  KCAL/ANGSTROM
      9          3  N    CARTESIAN Z    -0.214810      0.121549  KCAL/ANGSTROM
     10          4  C    CARTESIAN X    -1.256442      0.014532  KCAL/ANGSTROM
     11          4  C    CARTESIAN Y     1.277351     -0.379143  KCAL/ANGSTROM
     12          4  C    CARTESIAN Z    -0.506276     -0.089821  KCAL/ANGSTROM
     13          5  C    CARTESIAN X    -2.240938      0.222414  KCAL/ANGSTROM
     14          5  C    CARTESIAN Y     1.722200      0.232385  KCAL/ANGSTROM
     15          5  C    CARTESIAN Z     0.461958     -0.313816  KCAL/ANGSTROM
     16          6  N    CARTESIAN X    -3.035506     -0.065070  KCAL/ANGSTROM
     17          6  N    CARTESIAN Y     2.076419     -0.113411  KCAL/ANGSTROM
     18          6  N    CARTESIAN Z     1.219676      0.031304  KCAL/ANGSTROM
     19          7  C    CARTESIAN X    -1.063285      0.042077  KCAL/ANGSTROM
     20          7  C    CARTESIAN Y    -0.278127     -0.146773  KCAL/ANGSTROM
     21          7  C    CARTESIAN Z    -0.568139     -0.037606  KCAL/ANGSTROM
     22          8  C    CARTESIAN X    -1.695537     -0.059291  KCAL/ANGSTROM
     23          8  C    CARTESIAN Y    -1.078125      0.109759  KCAL/ANGSTROM
     24          8  C    CARTESIAN Z     0.520855      0.052003  KCAL/ANGSTROM
     25          9  O    CARTESIAN X     0.415310     -0.191409  KCAL/ANGSTROM
     26          9  O    CARTESIAN Y    -0.406880     -0.098401  KCAL/ANGSTROM
     27          9  O    CARTESIAN Z    -0.372507      0.024210  KCAL/ANGSTROM
     28         10  H    CARTESIAN X     3.008748      0.108425  KCAL/ANGSTROM
     29         10  H    CARTESIAN Y     0.173085      0.175461  KCAL/ANGSTROM
     30         10  H    CARTESIAN Z    -0.553656     -0.166617  KCAL/ANGSTROM
     31         11  H    CARTESIAN X     2.782854      0.034611  KCAL/ANGSTROM
     32         11  H    CARTESIAN Y     1.907051      0.104731  KCAL/ANGSTROM
     33         11  H    CARTESIAN Z    -0.131585     -0.007249  KCAL/ANGSTROM
     34         12  H    CARTESIAN X     2.676179      0.035613  KCAL/ANGSTROM
     35         12  H    CARTESIAN Y     0.647231     -0.215597  KCAL/ANGSTROM
     36         12  H    CARTESIAN Z     1.114382     -0.020137  KCAL/ANGSTROM
     37         13  H    CARTESIAN X    -1.570797     -0.023703  KCAL/ANGSTROM
     38         13  H    CARTESIAN Y     1.692512      0.042881  KCAL/ANGSTROM
     39         13  H    CARTESIAN Z    -1.539944      0.252030  KCAL/ANGSTROM
     40         14  H    CARTESIAN X    -1.210661      0.196232  KCAL/ANGSTROM
     41         14  H    CARTESIAN Y    -0.702626      0.054245  KCAL/ANGSTROM
     42         14  H    CARTESIAN Z    -1.591057     -0.079840  KCAL/ANGSTROM
     43         15  H    CARTESIAN X    -1.525828      0.035451  KCAL/ANGSTROM
     44         15  H    CARTESIAN Y    -0.682411      0.144152  KCAL/ANGSTROM
     45         15  H    CARTESIAN Z     1.536055      0.025511  KCAL/ANGSTROM
     46         16  H    CARTESIAN X    -1.343931     -0.061788  KCAL/ANGSTROM
     47         16  H    CARTESIAN Y    -2.129222      0.237216  KCAL/ANGSTROM
     48         16  H    CARTESIAN Z     0.531805     -0.076376  KCAL/ANGSTROM
     49         17  H    CARTESIAN X    -2.797349      0.062535  KCAL/ANGSTROM
     50         17  H    CARTESIAN Y    -1.146134     -0.074552  KCAL/ANGSTROM
     51         17  H    CARTESIAN Z     0.398386      0.101604  KCAL/ANGSTROM




   ATOM   CHEMICAL          X               Y               Z
  NUMBER   SYMBOL      (ANGSTROMS)     (ANGSTROMS)     (ANGSTROMS)

     1       C          2.38935038  *   0.87586849  *   0.05331287  *
     2       C          0.96701939  *   0.75777813  *  -0.17537936  *
     3       N          0.04683165  *   1.82131794  *  -0.21481041  *
     4       C         -1.25644203  *   1.27735122  *  -0.50627600  *
     5       C         -2.24093842  *   1.72220043  *   0.46195799  *
     6       N         -3.03550589  *   2.07641912  *   1.21967595  *
     7       C         -1.06328524  *  -0.27812727  *  -0.56813859  *
     8       C         -1.69553741  *  -1.07812534  *   0.52085453  *
     9       O          0.41531021  *  -0.40688003  *  -0.37250688  *
    10       H          3.00874800  *   0.17308478  *  -0.55365563  *
    11       H          2.78285419  *   1.90705086  *  -0.13158541  *
    12       H          2.67617886  *   0.64723122  *   1.11438164  *
    13       H         -1.57079663  *   1.69251227  *  -1.53994444  *
    14       H         -1.21066069  *  -0.70262572  *  -1.59105662  *
    15       H         -1.52582779  *  -0.68241122  *   1.53605478  *
    16       H         -1.34393089  *  -2.12922176  *   0.53180476  *
    17       H         -2.79734901  *  -1.14613378  *   0.39838600  *

                             CARTESIAN COORDINATES

   1    C        2.389350375     0.875868489     0.053312866
   2    C        0.967019391     0.757778133    -0.175379361
   3    N        0.046831650     1.821317937    -0.214810410
   4    C       -1.256442030     1.277351222    -0.506276004
   5    C       -2.240938415     1.722200426     0.461957986
   6    N       -3.035505892     2.076419121     1.219675953
   7    C       -1.063285239    -0.278127269    -0.568138587
   8    C       -1.695537409    -1.078125337     0.520854526
   9    O        0.415310207    -0.406880034    -0.372506881
  10    H        3.008748000     0.173084777    -0.553655629
  11    H        2.782854193     1.907050857    -0.131585414
  12    H        2.676178862     0.647231220     1.114381636
  13    H       -1.570796630     1.692512272    -1.539944445
  14    H       -1.210660695    -0.702625725    -1.591056624
  15    H       -1.525827791    -0.682411220     1.536054782
  16    H       -1.343930886    -2.129221761     0.531804760
  17    H       -2.797349006    -1.146133779     0.398385997


           Empirical Formula: C6 H8 N2 O  =    17 atoms



      MOLECULAR POINT GROUP   :   C1  


          ALPHA EIGENVALUES  
 -42.24838 -39.01935 -37.62733 -34.15902 -31.86388 -29.90220 -27.20205 -26.62106
 -24.03029 -23.29427 -21.96628 -21.38252 -20.80288 -20.53048 -19.83591 -19.10895
 -18.64377 -18.22964 -18.07803 -17.98134 -17.81757 -17.53585 -17.03856 -16.74976
  -6.19255  -5.12138  -4.22958  -3.45047  -3.29032  -2.74993  -2.53514  -2.06756
  -2.01892  -1.59598  -1.27575  -0.70405  -0.32508  -0.16484   0.08420   0.82723
   0.87902   1.11243   1.39802   2.07785


           BETA EIGENVALUES 
 -41.03051 -39.02463 -36.71418 -34.08256 -31.74417 -29.65812 -27.13977 -26.29970
 -23.61565 -23.04519 -21.62688 -21.08247 -20.65085 -20.45558 -19.51541 -19.04700
 -18.23965 -17.96439 -17.81698 -17.69284 -17.57706 -17.32334 -16.69215  -8.37367
  -5.01779  -5.00632  -3.96890  -3.36952  -3.08787  -2.67208  -2.51244  -1.96073
  -1.94318  -1.39894  -1.18609  -0.58004  -0.30334  -0.15948   0.08987   0.82815
   0.87990   1.11387   1.39391   2.07776


              NET ATOMIC CHARGES AND DIPOLE CONTRIBUTIONS

  ATOM NO.   TYPE          CHARGE      No. of ELECS.   s-Pop       p-Pop       
    1          C          -0.503807        4.5038     1.05666     3.44715
    2          C           0.530287        3.4697     1.16984     2.29987
    3          N          -0.196813        5.1968     1.80678     3.39003
    4          C          -0.063388        4.0634     1.07807     2.98532
    5          C           0.032915        3.9671     1.09029     2.87679
    6          N          -0.049899        5.0499     1.82580     3.22410
    7          C           0.103668        3.8963     1.14115     2.75518
    8          C          -0.503187        4.5032     1.05622     3.44697
    9          O          -0.182684        6.1827     1.87560     4.30708
   10          H           0.241205        0.7588     0.75880
   11          H           0.247815        0.7522     0.75219
   12          H           0.254847        0.7452     0.74515
   13          H           0.268068        0.7319     0.73193
   14          H           0.199420        0.8006     0.80058
   15          H           0.192659        0.8073     0.80734
   16          H           0.209335        0.7907     0.79067
   17          H           0.219559        0.7804     0.78044
 DIPOLE           X         Y         Z       TOTAL
 POINT-CHG.     4.485    -2.287    -2.423     5.587
 HYBRID         0.346    -0.786    -0.433     0.961
 SUM            4.831    -3.073    -2.856     6.398


          ATOMIC ORBITAL ELECTRON POPULATIONS

     Atom    s        px        py        pz   
    1  C   1.05666   0.95371   1.26344   1.23000
    2  C   1.16984   0.94114   0.75473   0.60400
    3  N   1.80678   1.07329   1.31776   0.99898
    4  C   1.07807   0.89856   0.98412   1.10264
    5  C   1.09029   0.94461   0.98479   0.94739
    6  N   1.82580   1.10308   1.02341   1.09762
    7  C   1.14115   0.68108   0.96229   1.11180
    8  C   1.05622   1.18795   1.16466   1.09436
    9  O   1.87560   1.35515   1.36223   1.58971
   10  H   0.75880
   11  H   0.75219
   12  H   0.74515
   13  H   0.73193
   14  H   0.80058
   15  H   0.80734
   16  H   0.79067
   17  H   0.78044


                    (SZ)    =    0.500000
                    (S**2)  =    0.768187


          ATOMIC ORBITAL SPIN POPULATIONS

    Atom   Total    s     px     py     pz   
         Atomic
    1  C  0.0052  0.000  0.000 -0.000  0.005
    2  C -0.0888 -0.012 -0.016 -0.020 -0.041
    3  N  0.8621  0.013  0.060  0.043  0.746
    4  C -0.0420 -0.006 -0.033 -0.005  0.002
    5  C  0.0396  0.011  0.014  0.003  0.012
    6  N -0.0022  0.000 -0.003  0.003 -0.003
    7  C -0.0091 -0.001 -0.009 -0.000  0.001
    8  C  0.0077  0.001  0.002  0.002  0.003
    9  O  0.1708  0.005  0.011  0.001  0.154
   10  H  0.0004  0.000
   11  H -0.0005 -0.001
   12  H  0.0023  0.002
   13  H  0.0512  0.051
   14  H  0.0046  0.005
   15  H -0.0003 -0.000
   16  H -0.0003 -0.000
   17  H -0.0006 -0.001

 **********************
 *                    *
 * JOB ENDED NORMALLY *
 *                    *
 **********************



 TOTAL JOB TIME:             1.52 SECONDS

 == MOPAC DONE ==
