 *******************************************************************************
 **                                                                           **
 **                              MOPAC v23.2                                  **
 **                                                                           **
 *******************************************************************************
 **          Digital Object Identifier (DOI): 10.5281/zenodo.6511958          **
 **    Visit the DOI location for information on how to cite this program.    **
 *******************************************************************************

                              PM7 CALCULATION RESULTS

 *******************************************************************************
 *  CALCULATION DONE: (MAX THREADS = 40)             Fri Sep 19 21:35:09 2025  *
 *  PM7        - The PM7 Hamiltonian to be used
 *
 *
 *
 *                 CHARGE ON SYSTEM = +1
 *
 *
 *
 *  1SCF       - DO 1 SCF AND THEN STOP 
 *  T=         - A TIME OF 172800.0 SECONDS REQUESTED
 *  DUMP=N     - RESTART FILE WRITTEN EVERY 7200.0 SECONDS REQUESTED
 *  RELSCF     - DEFAULT SCF CRITERION MULTIPLIED BY 0.0001
 *              (DEFAULT SCF CRITERION = 0.00010)
 *  GRADIENTS  - ALL GRADIENTS TO BE PRINTED
 *  DISP       - PRINT DISPERSION AND HYDROGEN BOND ENERGIES
 *******************************************************************************
PM7 1SCF GRADIENTS DISP RELSCF=0.0001 CHARGE=1
 Title: ASE calculation

   ATOM   CHEMICAL          X               Y               Z
  NUMBER   SYMBOL      (ANGSTROMS)     (ANGSTROMS)     (ANGSTROMS)

     1       O         -3.27869486  *  -0.15659450  *  -0.61765620  *
     2       C         -2.31193133  *  -0.54884245  *   0.31208304  *
     3       C         -0.94702532  *  -0.33946214  *  -0.35870030  *
     4       C          0.24938876  *  -1.04383824  *   0.39337031  *
     5       C          0.55507545  *   0.23531323  *   1.17936922  *
     6       N         -0.20378419  *   0.92172998  *   0.01600011  *
     7       C          0.99612819  *   1.03912689  *  -0.83919655  *
     8       C          1.52909786  *  -0.18523716  *   0.06267753  *
     9       O          2.80356888  *  -0.49978525  *   0.23075300  *
    10       H         -3.61442327  *   0.75471488  *  -0.43983272  *
    11       H         -2.50429550  *  -1.63861189  *   0.46398851  *
    12       H         -2.41188727  *  -0.02706816  *   1.28052157  *
    13       H         -1.04197185  *  -0.49050950  *  -1.46094308  *
    14       H          0.21631313  *  -2.07202301  *   0.70892719  *
    15       H          0.59696717  *   0.55907595  *   2.19744859  *
    16       H          0.85315481  *   0.90029569  *  -1.92154770  *
    17       H          1.60490700  *   1.95507963  *  -0.67558145  *
    18       H          3.15805228  *  -1.06430295  *  -0.52847193  *



          CARTESIAN COORDINATES 

    NO.       ATOM           X           Y           Z

     1         O         -3.2787     -0.1566     -0.6177
     2         C         -2.3119     -0.5488      0.3121
     3         C         -0.9470     -0.3395     -0.3587
     4         C          0.2494     -1.0438      0.3934
     5         C          0.5551      0.2353      1.1794
     6         N         -0.2038      0.9217      0.0160
     7         C          0.9961      1.0391     -0.8392
     8         C          1.5291     -0.1852      0.0627
     9         O          2.8036     -0.4998      0.2308
    10         H         -3.6144      0.7547     -0.4398
    11         H         -2.5043     -1.6386      0.4640
    12         H         -2.4119     -0.0271      1.2805
    13         H         -1.0420     -0.4905     -1.4609
    14         H          0.2163     -2.0720      0.7089
    15         H          0.5970      0.5591      2.1974
    16         H          0.8532      0.9003     -1.9215
    17         H          1.6049      1.9551     -0.6756
    18         H          3.1581     -1.0643     -0.5285

 General Reference for PM7:
 "Optimization of Parameters for Semiempirical Methods VI: More Modifications to the 
 NDDO Approximations and Re-optimization of Parameters", J. J. P. Stewart, J. Mol. Mod., 1:32, 19 (2013)
 https://link.springer.com/article/10.1007/s00894-012-1667-x

           Empirical Formula: C6 H9 N O2  =    18 atoms



      MOLECULAR POINT GROUP   :   C1  


          UHF CALCULATION, NO. OF ALPHA ELECTRONS =   25
                           NO. OF BETA  ELECTRONS =   24
  SCF CRITERION =    0.1000E-07

 -------------------------------------------------------------------------------
 PM7 1SCF GRADIENTS DISP RELSCF=0.0001 CHARGE=1
 Title: ASE calculation



     1SCF WAS SPECIFIED, SO BFGS WAS NOT USED                 
     SCF FIELD WAS ACHIEVED                                   


                              PM7 CALCULATION
                                                       MOPAC v23.2 Linux
                                                       Fri Sep 19 21:35:10 2025




          FINAL HEAT OF FORMATION =        231.96981 KCAL/MOL =     970.56166 KJ/MOL

          TOTAL ENERGY            =     -37405.46723 KCAL/MOL = ELECTRONIC ENERGY + CORE-CORE REPULSION
          ENERGY OF ATOMS         =      37638.97832 KCAL/MOL
                              SUM =        233.51109 KCAL/MOL
          DISPERSION ENERGY       =         -1.54129 KCAL/MOL
                              SUM =        231.96981 KCAL/MOL = FINAL HEAT OF FORMATION



          TOTAL ENERGY            =      -1622.05458 EV
          ELECTRONIC ENERGY       =      -7587.15722 EV 
          CORE-CORE REPULSION     =       5965.10264 EV
          COSMO AREA              =        157.00 SQUARE ANGSTROMS
          COSMO VOLUME            =        152.10 CUBIC ANGSTROMS

          GRADIENT NORM           =          0.93073          =       0.21937 PER ATOM
          IONIZATION POTENTIAL    =         15.036923 EV
          ALPHA SOMO LUMO (EV)    =        -15.037 -4.740
          BETA  SOMO LUMO (EV)    =        -15.069 -8.061
          NO. OF ALPHA ELECTRONS  =         25
          NO. OF BETA  ELECTRONS  =         24
          MOLECULAR WEIGHT        =        127.1426         POINT GROUP:  C1  

          MOLECULAR DIMENSIONS (Angstroms)

            Atom       Atom       Distance
            H    18    H    10     7.01307
            H    17    H    11     4.66831
            H    13    H    15     3.91035


          SCF CALCULATIONS        =          1

          WALL-CLOCK TIME         =      0.977 SECONDS
          COMPUTATION TIME        =      0.409 SECONDS

          LARGEST ATOMIC GRADIENTS

          Atom     Label                     Cartesian Gradients           Cartesian Coordinates       |Gradient|
                                           X          Y          Z        X          Y          Z

            13       H                   0.288      0.250      0.003   -1.04197   -0.49051   -1.46094      0.381
             8       C                   0.109      0.255      0.206    1.52910   -0.18524    0.06268      0.345
             9       O                  -0.257     -0.206     -0.037    2.80357   -0.49979    0.23075      0.331
            12       H                  -0.248     -0.124      0.086   -2.41189   -0.02707    1.28052      0.290
            17       H                  -0.177     -0.090     -0.198    1.60491    1.95508   -0.67558      0.280
            15       H                   0.082      0.040     -0.226    0.59697    0.55908    2.19745      0.244
             5       C                  -0.189      0.091     -0.015    0.55508    0.23531    1.17937      0.210
            10       H                   0.145     -0.118      0.096   -3.61442    0.75471   -0.43983      0.210
             1       O                   0.195     -0.044     -0.041   -3.27869   -0.15659   -0.61766      0.204
            18       H                  -0.029     -0.185      0.053    3.15805   -1.06430   -0.52847      0.194



       FINAL  POINT  AND  DERIVATIVES

   PARAMETER     ATOM    TYPE            VALUE        GRADIENT
      1          1  O    CARTESIAN X    -3.278695      0.195210  KCAL/ANGSTROM
      2          1  O    CARTESIAN Y    -0.156595     -0.044415  KCAL/ANGSTROM
      3          1  O    CARTESIAN Z    -0.617656     -0.040529  KCAL/ANGSTROM
      4          2  C    CARTESIAN X    -2.311931     -0.027197  KCAL/ANGSTROM
      5          2  C    CARTESIAN Y    -0.548842      0.052772  KCAL/ANGSTROM
      6          2  C    CARTESIAN Z     0.312083     -0.048316  KCAL/ANGSTROM
      7          3  C    CARTESIAN X    -0.947025      0.083739  KCAL/ANGSTROM
      8          3  C    CARTESIAN Y    -0.339462     -0.108429  KCAL/ANGSTROM
      9          3  C    CARTESIAN Z    -0.358700      0.044908  KCAL/ANGSTROM
     10          4  C    CARTESIAN X     0.249389      0.033955  KCAL/ANGSTROM
     11          4  C    CARTESIAN Y    -1.043838     -0.005210  KCAL/ANGSTROM
     12          4  C    CARTESIAN Z     0.393370      0.049066  KCAL/ANGSTROM
     13          5  C    CARTESIAN X     0.555075     -0.189320  KCAL/ANGSTROM
     14          5  C    CARTESIAN Y     0.235313      0.090679  KCAL/ANGSTROM
     15          5  C    CARTESIAN Z     1.179369     -0.014736  KCAL/ANGSTROM
     16          6  N    CARTESIAN X    -0.203784      0.025119  KCAL/ANGSTROM
     17          6  N    CARTESIAN Y     0.921730      0.046819  KCAL/ANGSTROM
     18          6  N    CARTESIAN Z     0.016000      0.067960  KCAL/ANGSTROM
     19          7  C    CARTESIAN X     0.996128     -0.017760  KCAL/ANGSTROM
     20          7  C    CARTESIAN Y     1.039127      0.008065  KCAL/ANGSTROM
     21          7  C    CARTESIAN Z    -0.839197     -0.010651  KCAL/ANGSTROM
     22          8  C    CARTESIAN X     1.529098      0.108620  KCAL/ANGSTROM
     23          8  C    CARTESIAN Y    -0.185237      0.255054  KCAL/ANGSTROM
     24          8  C    CARTESIAN Z     0.062678      0.205542  KCAL/ANGSTROM
     25          9  O    CARTESIAN X     2.803569     -0.256697  KCAL/ANGSTROM
     26          9  O    CARTESIAN Y    -0.499785     -0.206047  KCAL/ANGSTROM
     27          9  O    CARTESIAN Z     0.230753     -0.037235  KCAL/ANGSTROM
     28         10  H    CARTESIAN X    -3.614423      0.144967  KCAL/ANGSTROM
     29         10  H    CARTESIAN Y     0.754715     -0.117981  KCAL/ANGSTROM
     30         10  H    CARTESIAN Z    -0.439833      0.095966  KCAL/ANGSTROM
     31         11  H    CARTESIAN X    -2.504295     -0.029447  KCAL/ANGSTROM
     32         11  H    CARTESIAN Y    -1.638612      0.091378  KCAL/ANGSTROM
     33         11  H    CARTESIAN Z     0.463989      0.085631  KCAL/ANGSTROM
     34         12  H    CARTESIAN X    -2.411887     -0.247884  KCAL/ANGSTROM
     35         12  H    CARTESIAN Y    -0.027068     -0.123852  KCAL/ANGSTROM
     36         12  H    CARTESIAN Z     1.280522      0.085704  KCAL/ANGSTROM
     37         13  H    CARTESIAN X    -1.041972      0.287574  KCAL/ANGSTROM
     38         13  H    CARTESIAN Y    -0.490510      0.249654  KCAL/ANGSTROM
     39         13  H    CARTESIAN Z    -1.460943      0.002896  KCAL/ANGSTROM
     40         14  H    CARTESIAN X     0.216313      0.070614  KCAL/ANGSTROM
     41         14  H    CARTESIAN Y    -2.072023     -0.063517  KCAL/ANGSTROM
     42         14  H    CARTESIAN Z     0.708927     -0.148801  KCAL/ANGSTROM
     43         15  H    CARTESIAN X     0.596967      0.081574  KCAL/ANGSTROM
     44         15  H    CARTESIAN Y     0.559076      0.039590  KCAL/ANGSTROM
     45         15  H    CARTESIAN Z     2.197449     -0.226403  KCAL/ANGSTROM
     46         16  H    CARTESIAN X     0.853155     -0.056870  KCAL/ANGSTROM
     47         16  H    CARTESIAN Y     0.900296      0.109720  KCAL/ANGSTROM
     48         16  H    CARTESIAN Z    -1.921548      0.034057  KCAL/ANGSTROM
     49         17  H    CARTESIAN X     1.604907     -0.177471  KCAL/ANGSTROM
     50         17  H    CARTESIAN Y     1.955080     -0.089784  KCAL/ANGSTROM
     51         17  H    CARTESIAN Z    -0.675581     -0.197769  KCAL/ANGSTROM
     52         18  H    CARTESIAN X     3.158052     -0.028727  KCAL/ANGSTROM
     53         18  H    CARTESIAN Y    -1.064303     -0.184500  KCAL/ANGSTROM
     54         18  H    CARTESIAN Z    -0.528472      0.052705  KCAL/ANGSTROM




   ATOM   CHEMICAL          X               Y               Z
  NUMBER   SYMBOL      (ANGSTROMS)     (ANGSTROMS)     (ANGSTROMS)

     1       O         -3.27869486  *  -0.15659450  *  -0.61765620  *
     2       C         -2.31193133  *  -0.54884245  *   0.31208304  *
     3       C         -0.94702532  *  -0.33946214  *  -0.35870030  *
     4       C          0.24938876  *  -1.04383824  *   0.39337031  *
     5       C          0.55507545  *   0.23531323  *   1.17936922  *
     6       N         -0.20378419  *   0.92172998  *   0.01600011  *
     7       C          0.99612819  *   1.03912689  *  -0.83919655  *
     8       C          1.52909786  *  -0.18523716  *   0.06267753  *
     9       O          2.80356888  *  -0.49978525  *   0.23075300  *
    10       H         -3.61442327  *   0.75471488  *  -0.43983272  *
    11       H         -2.50429550  *  -1.63861189  *   0.46398851  *
    12       H         -2.41188727  *  -0.02706816  *   1.28052157  *
    13       H         -1.04197185  *  -0.49050950  *  -1.46094308  *
    14       H          0.21631313  *  -2.07202301  *   0.70892719  *
    15       H          0.59696717  *   0.55907595  *   2.19744859  *
    16       H          0.85315481  *   0.90029569  *  -1.92154770  *
    17       H          1.60490700  *   1.95507963  *  -0.67558145  *
    18       H          3.15805228  *  -1.06430295  *  -0.52847193  *

                             CARTESIAN COORDINATES

   1    O       -3.278694857    -0.156594505    -0.617656204
   2    C       -2.311931333    -0.548842449     0.312083037
   3    C       -0.947025323    -0.339462137    -0.358700298
   4    C        0.249388763    -1.043838239     0.393370315
   5    C        0.555075452     0.235313232     1.179369217
   6    N       -0.203784187     0.921729977     0.016000107
   7    C        0.996128189     1.039126892    -0.839196550
   8    C        1.529097857    -0.185237155     0.062677526
   9    O        2.803568879    -0.499785255     0.230753001
  10    H       -3.614423272     0.754714877    -0.439832715
  11    H       -2.504295496    -1.638611891     0.463988512
  12    H       -2.411887273    -0.027068163     1.280521572
  13    H       -1.041971848    -0.490509501    -1.460943080
  14    H        0.216313129    -2.072023014     0.708927192
  15    H        0.596967170     0.559075948     2.197448589
  16    H        0.853154812     0.900295692    -1.921547695
  17    H        1.604907005     1.955079633    -0.675581455
  18    H        3.158052284    -1.064302947    -0.528471929


           Empirical Formula: C6 H9 N O2  =    18 atoms



      MOLECULAR POINT GROUP   :   C1  


          ALPHA EIGENVALUES  
 -44.37407 -35.79622 -34.09639 -33.02344 -31.54093 -29.15759 -27.33450 -25.00652
 -24.29751 -23.57881 -22.86172 -22.29465 -21.32087 -21.13298 -20.62300 -19.58649
 -18.94424 -18.81912 -18.51349 -17.65359 -17.46627 -16.48280 -16.33575 -15.81624
 -15.03692  -4.73977  -4.04676  -3.32788  -3.23881  -3.09161  -2.75389  -2.60157
  -2.14282  -1.93184  -1.45008  -1.28471  -0.10392   0.17026   0.38587   0.43246
   0.58705   0.64609   0.73282   1.22117   2.00378


           BETA EIGENVALUES 
 -43.50746 -35.66894 -34.05847 -32.34856 -31.39075 -28.84557 -27.21735 -24.90275
 -24.07436 -23.06630 -22.73980 -22.09036 -21.15715 -20.95119 -20.32689 -19.43620
 -18.82381 -18.59989 -18.08360 -17.55254 -16.45094 -16.33676 -16.05124 -15.06900
  -8.06123  -4.27619  -3.98026  -3.13928  -3.07530  -2.75223  -2.68012  -2.35890
  -2.01582  -1.76095  -1.34193  -1.23331  -0.07106   0.19335   0.41168   0.45733
   0.61664   0.67468   0.73976   1.22179   2.00958


              NET ATOMIC CHARGES AND DIPOLE CONTRIBUTIONS

  ATOM NO.   TYPE          CHARGE      No. of ELECS.   s-Pop       p-Pop       
    1          O          -0.485200        6.4852     1.85138     4.63382
    2          C          -0.018083        4.0181     1.09006     2.92803
    3          C          -0.011449        4.0114     1.13792     2.87353
    4          C          -0.211499        4.2115     1.12479     3.08671
    5          C          -0.044599        4.0446     1.13370     2.91090
    6          N          -0.044233        5.0442     1.68283     3.36141
    7          C          -0.183839        4.1838     1.12572     3.05812
    8          C           0.216524        3.7835     1.09454     2.68893
    9          O          -0.374421        6.3744     1.83825     4.53617
   10          H           0.334554        0.6654     0.66545
   11          H           0.189454        0.8105     0.81055
   12          H           0.153559        0.8464     0.84644
   13          H           0.213560        0.7864     0.78644
   14          H           0.228363        0.7716     0.77164
   15          H           0.238982        0.7610     0.76102
   16          H           0.202260        0.7977     0.79774
   17          H           0.227189        0.7728     0.77281
   18          H           0.368878        0.6311     0.63112
 DIPOLE           X         Y         Z       TOTAL
 POINT-CHG.     1.880     0.058    -0.012     1.881
 HYBRID         0.104     0.664    -0.202     0.701
 SUM            1.984     0.722    -0.213     2.122


          ATOMIC ORBITAL ELECTRON POPULATIONS

     Atom    s        px        py        pz   
    1  O   1.85138   1.59911   1.47696   1.55775
    2  C   1.09006   0.82102   1.14182   0.96519
    3  C   1.13792   0.99905   0.72740   1.14708
    4  C   1.12479   0.94816   1.06467   1.07388
    5  C   1.13370   1.00501   0.88149   1.02440
    6  N   1.68283   1.11808   1.06240   1.18092
    7  C   1.12572   0.86934   1.09343   1.09535
    8  C   1.09454   0.82139   0.91443   0.95311
    9  O   1.83825   1.25653   1.73464   1.54499
   10  H   0.66545
   11  H   0.81055
   12  H   0.84644
   13  H   0.78644
   14  H   0.77164
   15  H   0.76102
   16  H   0.79774
   17  H   0.77281
   18  H   0.63112


                    (SZ)    =    0.500000
                    (S**2)  =    0.759859


          ATOMIC ORBITAL SPIN POPULATIONS

    Atom   Total    s     px     py     pz   
         Atomic
    1  O  0.0067  0.000  0.007  0.001 -0.002
    2  C  0.0137  0.002  0.008 -0.000  0.003
    3  C  0.0055 -0.005 -0.011  0.025 -0.003
    4  C  0.1095  0.006  0.070  0.028  0.005
    5  C -0.0139 -0.006 -0.010  0.020 -0.017
    6  N  0.7690  0.048  0.200  0.470  0.051
    7  C -0.0031 -0.007 -0.006  0.021 -0.010
    8  C  0.0644  0.012 -0.001  0.050  0.003
    9  O  0.0253  0.001 -0.004  0.015  0.013
   10  H -0.0001 -0.000
   11  H -0.0018 -0.002
   12  H  0.0020  0.002
   13  H  0.0035  0.004
   14  H  0.0052  0.005
   15  H  0.0007  0.001
   16  H  0.0015  0.002
   17  H  0.0113  0.011
   18  H  0.0006  0.001

 **********************
 *                    *
 * JOB ENDED NORMALLY *
 *                    *
 **********************



 TOTAL JOB TIME:             1.31 SECONDS

 == MOPAC DONE ==
