 *******************************************************************************
 **                                                                           **
 **                              MOPAC v23.2                                  **
 **                                                                           **
 *******************************************************************************
 **          Digital Object Identifier (DOI): 10.5281/zenodo.6511958          **
 **    Visit the DOI location for information on how to cite this program.    **
 *******************************************************************************

                              PM7 CALCULATION RESULTS

 *******************************************************************************
 *  CALCULATION DONE: (MAX THREADS = 40)             Fri Sep 19 21:35:34 2025  *
 *  PM7        - The PM7 Hamiltonian to be used
 *  1SCF       - DO 1 SCF AND THEN STOP 
 *  T=         - A TIME OF 172800.0 SECONDS REQUESTED
 *  DUMP=N     - RESTART FILE WRITTEN EVERY 7200.0 SECONDS REQUESTED
 *  RELSCF     - DEFAULT SCF CRITERION MULTIPLIED BY 0.0001
 *              (DEFAULT SCF CRITERION = 0.00010)
 *  GRADIENTS  - ALL GRADIENTS TO BE PRINTED
 *  DISP       - PRINT DISPERSION AND HYDROGEN BOND ENERGIES
 *******************************************************************************
PM7 1SCF GRADIENTS DISP RELSCF=0.0001
 Title: ASE calculation

   ATOM   CHEMICAL          X               Y               Z
  NUMBER   SYMBOL      (ANGSTROMS)     (ANGSTROMS)     (ANGSTROMS)

     1       C         -2.00833346  *  -0.30541093  *   0.17278679  *
     2       C         -0.75903585  *   0.12897671  *   1.04674693  *
     3       C         -0.35911275  *   1.01922073  *  -0.20357637  *
     4       O          0.95838246  *   1.37785169  *  -0.37869680  *
     5       C          1.88749484  *   0.30760305  *  -0.44898320  *
     6       C          1.26647423  *  -1.02485683  *  -0.13647154  *
     7       C          0.11202680  *  -1.12423768  *   0.83577955  *
     8       N         -0.07563536  *  -1.38105061  *  -0.66217603  *
     9       C         -0.95632871  *  -0.21738664  *  -1.01380144  *
    10       H         -2.82486485  *   0.41145134  *   0.13015478  *
    11       H         -2.41508745  *  -1.29643546  *   0.37058781  *
    12       H         -0.86251009  *   0.54572927  *   2.02943202  *
    13       H         -0.89362370  *   1.97315544  *  -0.30714166  *
    14       H          2.29483128  *   0.34009205  *  -1.47975705  *
    15       H          2.67896202  *   0.58096210  *   0.27653229  *
    16       H          1.98062304  *  -1.86452371  *  -0.18696523  *
    17       H          0.02746199  *  -1.93314752  *   1.54879495  *
    18       H         -1.23917555  *  -0.16588781  *  -2.05210715  *



          CARTESIAN COORDINATES 

    NO.       ATOM           X           Y           Z

     1         C         -2.0083     -0.3054      0.1728
     2         C         -0.7590      0.1290      1.0467
     3         C         -0.3591      1.0192     -0.2036
     4         O          0.9584      1.3779     -0.3787
     5         C          1.8875      0.3076     -0.4490
     6         C          1.2665     -1.0249     -0.1365
     7         C          0.1120     -1.1242      0.8358
     8         N         -0.0756     -1.3811     -0.6622
     9         C         -0.9563     -0.2174     -1.0138
    10         H         -2.8249      0.4115      0.1302
    11         H         -2.4151     -1.2964      0.3706
    12         H         -0.8625      0.5457      2.0294
    13         H         -0.8936      1.9732     -0.3071
    14         H          2.2948      0.3401     -1.4798
    15         H          2.6790      0.5810      0.2765
    16         H          1.9806     -1.8645     -0.1870
    17         H          0.0275     -1.9331      1.5488
    18         H         -1.2392     -0.1659     -2.0521

 General Reference for PM7:
 "Optimization of Parameters for Semiempirical Methods VI: More Modifications to the 
 NDDO Approximations and Re-optimization of Parameters", J. J. P. Stewart, J. Mol. Mod., 1:32, 19 (2013)
 https://link.springer.com/article/10.1007/s00894-012-1667-x

           Empirical Formula: C7 H9 N O  =    18 atoms



      MOLECULAR POINT GROUP   :   C1  


      RHF CALCULATION, NO. OF DOUBLY OCCUPIED LEVELS = 24

  SCF CRITERION =    0.1000E-07

 -------------------------------------------------------------------------------
 PM7 1SCF GRADIENTS DISP RELSCF=0.0001
 Title: ASE calculation



     1SCF WAS SPECIFIED, SO BFGS WAS NOT USED                 
     SCF FIELD WAS ACHIEVED                                   


                              PM7 CALCULATION
                                                       MOPAC v23.2 Linux
                                                       Fri Sep 19 21:35:35 2025




          FINAL HEAT OF FORMATION =         51.07504 KCAL/MOL =     213.69795 KJ/MOL

          TOTAL ENERGY            =     -33656.77140 KCAL/MOL = ELECTRONIC ENERGY + CORE-CORE REPULSION
          ENERGY OF ATOMS         =      33709.16394 KCAL/MOL
                              SUM =         52.39254 KCAL/MOL
          DISPERSION ENERGY       =         -1.31751 KCAL/MOL
                              SUM =         51.07504 KCAL/MOL = FINAL HEAT OF FORMATION



          TOTAL ENERGY            =      -1459.49574 EV
          ELECTRONIC ENERGY       =      -7450.98713 EV 
          CORE-CORE REPULSION     =       5991.49139 EV
          COSMO AREA              =        144.38 SQUARE ANGSTROMS
          COSMO VOLUME            =        142.92 CUBIC ANGSTROMS

          GRADIENT NORM           =          1.07044          =       0.25230 PER ATOM
          IONIZATION POTENTIAL    =          9.544946 EV
          HOMO LUMO ENERGIES (EV) =         -9.545  1.824
          NO. OF FILLED LEVELS    =         24
          MOLECULAR WEIGHT        =        123.1542         POINT GROUP:  C1  

          MOLECULAR DIMENSIONS (Angstroms)

            Atom       Atom       Distance
            H    15    H    10     5.50838
            H    13    H    17     4.33942
            H    18    H    12     3.98390


          SCF CALCULATIONS        =          1

          WALL-CLOCK TIME         =      0.781 SECONDS
          COMPUTATION TIME        =      0.564 SECONDS

          LARGEST ATOMIC GRADIENTS

          Atom     Label                     Cartesian Gradients           Cartesian Coordinates       |Gradient|
                                           X          Y          Z        X          Y          Z

             3       C                   0.298      0.112      0.156   -0.35911    1.01922   -0.20358      0.354
             9       C                  -0.132      0.243     -0.204   -0.95633   -0.21739   -1.01380      0.343
            12       H                  -0.068     -0.252     -0.213   -0.86251    0.54573    2.02943      0.337
             4       O                  -0.242     -0.160     -0.045    0.95838    1.37785   -0.37870      0.293
            17       H                   0.118     -0.084      0.246    0.02746   -1.93315    1.54879      0.285
             1       C                  -0.108     -0.105     -0.232   -2.00833   -0.30541    0.17279      0.277
             6       C                   0.180      0.191     -0.052    1.26647   -1.02486   -0.13647      0.268
             7       C                   0.048     -0.177      0.194    0.11203   -1.12424    0.83578      0.267
             8       N                   0.010      0.223     -0.125   -0.07564   -1.38105   -0.66218      0.256
            18       H                  -0.151     -0.188      0.019   -1.23918   -0.16589   -2.05211      0.241



       FINAL  POINT  AND  DERIVATIVES

   PARAMETER     ATOM    TYPE            VALUE        GRADIENT
      1          1  C    CARTESIAN X    -2.008333     -0.107960  KCAL/ANGSTROM
      2          1  C    CARTESIAN Y    -0.305411     -0.104800  KCAL/ANGSTROM
      3          1  C    CARTESIAN Z     0.172787     -0.232209  KCAL/ANGSTROM
      4          2  C    CARTESIAN X    -0.759036     -0.024699  KCAL/ANGSTROM
      5          2  C    CARTESIAN Y     0.128977      0.053289  KCAL/ANGSTROM
      6          2  C    CARTESIAN Z     1.046747      0.222832  KCAL/ANGSTROM
      7          3  C    CARTESIAN X    -0.359113      0.297516  KCAL/ANGSTROM
      8          3  C    CARTESIAN Y     1.019221      0.111871  KCAL/ANGSTROM
      9          3  C    CARTESIAN Z    -0.203576      0.156125  KCAL/ANGSTROM
     10          4  O    CARTESIAN X     0.958382     -0.241621  KCAL/ANGSTROM
     11          4  O    CARTESIAN Y     1.377852     -0.160253  KCAL/ANGSTROM
     12          4  O    CARTESIAN Z    -0.378697     -0.044890  KCAL/ANGSTROM
     13          5  C    CARTESIAN X     1.887495      0.051796  KCAL/ANGSTROM
     14          5  C    CARTESIAN Y     0.307603      0.005322  KCAL/ANGSTROM
     15          5  C    CARTESIAN Z    -0.448983      0.006096  KCAL/ANGSTROM
     16          6  C    CARTESIAN X     1.266474      0.180236  KCAL/ANGSTROM
     17          6  C    CARTESIAN Y    -1.024857      0.190670  KCAL/ANGSTROM
     18          6  C    CARTESIAN Z    -0.136472     -0.052398  KCAL/ANGSTROM
     19          7  C    CARTESIAN X     0.112027      0.048179  KCAL/ANGSTROM
     20          7  C    CARTESIAN Y    -1.124238     -0.176891  KCAL/ANGSTROM
     21          7  C    CARTESIAN Z     0.835780      0.194032  KCAL/ANGSTROM
     22          8  N    CARTESIAN X    -0.075635      0.010468  KCAL/ANGSTROM
     23          8  N    CARTESIAN Y    -1.381051      0.223420  KCAL/ANGSTROM
     24          8  N    CARTESIAN Z    -0.662176     -0.124920  KCAL/ANGSTROM
     25          9  C    CARTESIAN X    -0.956329     -0.131686  KCAL/ANGSTROM
     26          9  C    CARTESIAN Y    -0.217387      0.242930  KCAL/ANGSTROM
     27          9  C    CARTESIAN Z    -1.013801     -0.203582  KCAL/ANGSTROM
     28         10  H    CARTESIAN X    -2.824865     -0.137585  KCAL/ANGSTROM
     29         10  H    CARTESIAN Y     0.411451      0.082527  KCAL/ANGSTROM
     30         10  H    CARTESIAN Z     0.130155      0.020324  KCAL/ANGSTROM
     31         11  H    CARTESIAN X    -2.415087      0.195867  KCAL/ANGSTROM
     32         11  H    CARTESIAN Y    -1.296435      0.080735  KCAL/ANGSTROM
     33         11  H    CARTESIAN Z     0.370588      0.001698  KCAL/ANGSTROM
     34         12  H    CARTESIAN X    -0.862510     -0.067792  KCAL/ANGSTROM
     35         12  H    CARTESIAN Y     0.545729     -0.252028  KCAL/ANGSTROM
     36         12  H    CARTESIAN Z     2.029432     -0.212811  KCAL/ANGSTROM
     37         13  H    CARTESIAN X    -0.893624     -0.134174  KCAL/ANGSTROM
     38         13  H    CARTESIAN Y     1.973155      0.162712  KCAL/ANGSTROM
     39         13  H    CARTESIAN Z    -0.307142     -0.020060  KCAL/ANGSTROM
     40         14  H    CARTESIAN X     2.294831      0.062675  KCAL/ANGSTROM
     41         14  H    CARTESIAN Y     0.340092     -0.217692  KCAL/ANGSTROM
     42         14  H    CARTESIAN Z    -1.479757     -0.049184  KCAL/ANGSTROM
     43         15  H    CARTESIAN X     2.678962      0.167682  KCAL/ANGSTROM
     44         15  H    CARTESIAN Y     0.580962     -0.024651  KCAL/ANGSTROM
     45         15  H    CARTESIAN Z     0.276532      0.032395  KCAL/ANGSTROM
     46         16  H    CARTESIAN X     1.980623     -0.135960  KCAL/ANGSTROM
     47         16  H    CARTESIAN Y    -1.864524      0.054366  KCAL/ANGSTROM
     48         16  H    CARTESIAN Z    -0.186965      0.041870  KCAL/ANGSTROM
     49         17  H    CARTESIAN X     0.027462      0.117787  KCAL/ANGSTROM
     50         17  H    CARTESIAN Y    -1.933148     -0.083842  KCAL/ANGSTROM
     51         17  H    CARTESIAN Z     1.548795      0.245817  KCAL/ANGSTROM
     52         18  H    CARTESIAN X    -1.239176     -0.150733  KCAL/ANGSTROM
     53         18  H    CARTESIAN Y    -0.165888     -0.187691  KCAL/ANGSTROM
     54         18  H    CARTESIAN Z    -2.052107      0.018859  KCAL/ANGSTROM




   ATOM   CHEMICAL          X               Y               Z
  NUMBER   SYMBOL      (ANGSTROMS)     (ANGSTROMS)     (ANGSTROMS)

     1       C         -2.00833346  *  -0.30541093  *   0.17278679  *
     2       C         -0.75903585  *   0.12897671  *   1.04674693  *
     3       C         -0.35911275  *   1.01922073  *  -0.20357637  *
     4       O          0.95838246  *   1.37785169  *  -0.37869680  *
     5       C          1.88749484  *   0.30760305  *  -0.44898320  *
     6       C          1.26647423  *  -1.02485683  *  -0.13647154  *
     7       C          0.11202680  *  -1.12423768  *   0.83577955  *
     8       N         -0.07563536  *  -1.38105061  *  -0.66217603  *
     9       C         -0.95632871  *  -0.21738664  *  -1.01380144  *
    10       H         -2.82486485  *   0.41145134  *   0.13015478  *
    11       H         -2.41508745  *  -1.29643546  *   0.37058781  *
    12       H         -0.86251009  *   0.54572927  *   2.02943202  *
    13       H         -0.89362370  *   1.97315544  *  -0.30714166  *
    14       H          2.29483128  *   0.34009205  *  -1.47975705  *
    15       H          2.67896202  *   0.58096210  *   0.27653229  *
    16       H          1.98062304  *  -1.86452371  *  -0.18696523  *
    17       H          0.02746199  *  -1.93314752  *   1.54879495  *
    18       H         -1.23917555  *  -0.16588781  *  -2.05210715  *

                             CARTESIAN COORDINATES

   1    C       -2.008333461    -0.305410930     0.172786793
   2    C       -0.759035847     0.128976713     1.046746934
   3    C       -0.359112748     1.019220731    -0.203576368
   4    O        0.958382457     1.377851688    -0.378696797
   5    C        1.887494839     0.307603046    -0.448983202
   6    C        1.266474230    -1.024856829    -0.136471542
   7    C        0.112026799    -1.124237681     0.835779546
   8    N       -0.075635356    -1.381050612    -0.662176027
   9    C       -0.956328709    -0.217386642    -1.013801436
  10    H       -2.824864849     0.411451343     0.130154780
  11    H       -2.415087454    -1.296435459     0.370587811
  12    H       -0.862510087     0.545729267     2.029432019
  13    H       -0.893623697     1.973155437    -0.307141655
  14    H        2.294831283     0.340092052    -1.479757052
  15    H        2.678962025     0.580962103     0.276532290
  16    H        1.980623043    -1.864523710    -0.186965229
  17    H        0.027461991    -1.933147516     1.548794953
  18    H       -1.239175555    -0.165887809    -2.052107146


           Empirical Formula: C7 H9 N O  =    18 atoms



      MOLECULAR POINT GROUP   :   C1  


                  EIGENVALUES  
 -37.16340 -30.03608 -29.39827 -25.79108 -24.46964 -23.03884 -21.20772 -19.80966
 -18.06544 -17.78215 -17.42414 -16.31330 -15.99339 -14.50620 -13.61709 -13.60120
 -13.23495 -13.01289 -12.85343 -12.17073 -11.89095 -11.05811 -10.65078  -9.54495
   1.82380   1.89267   2.27963   2.80583   2.90658   2.91152   3.42082   3.55072
   3.95553   4.28016   4.47741   4.64530   5.29515   5.35356   5.53078   5.56593
   5.72573   5.82340   5.84711   5.94782   6.21851


              NET ATOMIC CHARGES AND DIPOLE CONTRIBUTIONS

  ATOM NO.   TYPE          CHARGE      No. of ELECS.   s-Pop       p-Pop       
    1          C          -0.300221        4.3002     1.08989     3.21034
    2          C          -0.179103        4.1791     1.09743     3.08167
    3          C           0.071528        3.9285     1.11669     2.81178
    4          O          -0.372603        6.3726     1.86815     4.50445
    5          C          -0.057579        4.0576     1.08779     2.96979
    6          C          -0.098243        4.0982     1.07609     3.02215
    7          C          -0.097385        4.0974     1.08552     3.01186
    8          N          -0.368852        5.3689     1.78747     3.58138
    9          C          -0.028143        4.0281     1.11017     2.91797
   10          H           0.147493        0.8525     0.85251
   11          H           0.163243        0.8368     0.83676
   12          H           0.157295        0.8427     0.84271
   13          H           0.156820        0.8432     0.84318
   14          H           0.146881        0.8531     0.85312
   15          H           0.148435        0.8516     0.85157
   16          H           0.178483        0.8215     0.82152
   17          H           0.170040        0.8300     0.82996
   18          H           0.161910        0.8381     0.83809
 DIPOLE           X         Y         Z       TOTAL
 POINT-CHG.    -0.132     0.136     0.913     0.932
 HYBRID         0.040     0.446     0.129     0.466
 SUM           -0.092     0.582     1.042     1.197


          ATOMIC ORBITAL ELECTRON POPULATIONS

     Atom    s        px        py        pz   
    1  C   1.08989   1.03054   1.16659   1.01321
    2  C   1.09743   0.99820   1.01400   1.06946
    3  C   1.11669   0.82175   1.02236   0.96768
    4  O   1.86815   1.23331   1.34249   1.92865
    5  C   1.08779   0.94938   0.88085   1.13956
    6  C   1.07609   0.93136   1.05789   1.03290
    7  C   1.08552   1.03732   1.05279   0.92175
    8  N   1.78747   1.10816   1.34592   1.12730
    9  C   1.11017   0.95626   0.91323   1.04848
   10  H   0.85251
   11  H   0.83676
   12  H   0.84271
   13  H   0.84318
   14  H   0.85312
   15  H   0.85157
   16  H   0.82152
   17  H   0.82996
   18  H   0.83809

 **********************
 *                    *
 * JOB ENDED NORMALLY *
 *                    *
 **********************



 TOTAL JOB TIME:             1.25 SECONDS

 == MOPAC DONE ==
