 *******************************************************************************
 **                                                                           **
 **                              MOPAC v23.2                                  **
 **                                                                           **
 *******************************************************************************
 **          Digital Object Identifier (DOI): 10.5281/zenodo.6511958          **
 **    Visit the DOI location for information on how to cite this program.    **
 *******************************************************************************

                              PM7 CALCULATION RESULTS

 *******************************************************************************
 *  CALCULATION DONE: (MAX THREADS = 40)             Fri Sep 19 21:27:47 2025  *
 *  PM7        - The PM7 Hamiltonian to be used
 *
 *
 *
 *                 CHARGE ON SYSTEM = +1
 *
 *
 *
 *  1SCF       - DO 1 SCF AND THEN STOP 
 *  T=         - A TIME OF 172800.0 SECONDS REQUESTED
 *  DUMP=N     - RESTART FILE WRITTEN EVERY 7200.0 SECONDS REQUESTED
 *  RELSCF     - DEFAULT SCF CRITERION MULTIPLIED BY 0.0001
 *              (DEFAULT SCF CRITERION = 0.00010)
 *  GRADIENTS  - ALL GRADIENTS TO BE PRINTED
 *  DISP       - PRINT DISPERSION AND HYDROGEN BOND ENERGIES
 *******************************************************************************
PM7 1SCF GRADIENTS DISP RELSCF=0.0001 CHARGE=1
 Title: ASE calculation

   ATOM   CHEMICAL          X               Y               Z
  NUMBER   SYMBOL      (ANGSTROMS)     (ANGSTROMS)     (ANGSTROMS)

     1       C         -2.54472849  *   1.21125742  *  -0.01617144  *
     2       C         -1.86377032  *   0.02425537  *  -0.70316199  *
     3       C         -2.66553840  *  -1.26766080  *  -0.51110189  *
     4       C         -0.52640071  *  -0.16842888  *  -0.10916606  *
     5       N         -0.07099676  *  -0.39904894  *   1.12744939  *
     6       C          1.27694146  *  -0.51677349  *   1.09393874  *
     7       C          1.69543183  *  -0.33948611  *  -0.29394030  *
     8       N          2.84921680  *  -0.34298540  *  -0.93434328  *
     9       O          0.55240081  *  -0.12026820  *  -1.03058678  *
    10       H         -1.99262023  *   2.15031011  *  -0.14880928  *
    11       H         -3.55327841  *   1.37081016  *  -0.43347921  *
    12       H         -2.67418505  *   1.04861715  *   1.06513028  *
    13       H         -1.77107398  *   0.24070188  *  -1.80691637  *
    14       H         -2.79771833  *  -1.52014599  *   0.55238438  *
    15       H         -3.67792194  *  -1.16006924  *  -0.93619901  *
    16       H         -2.20172218  *  -2.13025502  *  -1.00565079  *
    17       H          1.88604172  *  -0.70901341  *   1.97235850  *
    18       H          2.90208779  *  -0.17854334  *  -1.93965578  *
    19       H          3.73173229  *  -0.51049341  *  -0.45524736  *



          CARTESIAN COORDINATES 

    NO.       ATOM           X           Y           Z

     1         C         -2.5447      1.2113     -0.0162
     2         C         -1.8638      0.0243     -0.7032
     3         C         -2.6655     -1.2677     -0.5111
     4         C         -0.5264     -0.1684     -0.1092
     5         N         -0.0710     -0.3990      1.1274
     6         C          1.2769     -0.5168      1.0939
     7         C          1.6954     -0.3395     -0.2939
     8         N          2.8492     -0.3430     -0.9343
     9         O          0.5524     -0.1203     -1.0306
    10         H         -1.9926      2.1503     -0.1488
    11         H         -3.5533      1.3708     -0.4335
    12         H         -2.6742      1.0486      1.0651
    13         H         -1.7711      0.2407     -1.8069
    14         H         -2.7977     -1.5201      0.5524
    15         H         -3.6779     -1.1601     -0.9362
    16         H         -2.2017     -2.1303     -1.0057
    17         H          1.8860     -0.7090      1.9724
    18         H          2.9021     -0.1785     -1.9397
    19         H          3.7317     -0.5105     -0.4552

 General Reference for PM7:
 "Optimization of Parameters for Semiempirical Methods VI: More Modifications to the 
 NDDO Approximations and Re-optimization of Parameters", J. J. P. Stewart, J. Mol. Mod., 1:32, 19 (2013)
 https://link.springer.com/article/10.1007/s00894-012-1667-x

           Empirical Formula: C6 H10 N2 O  =    19 atoms



      MOLECULAR POINT GROUP   :   C1  


          UHF CALCULATION, NO. OF ALPHA ELECTRONS =   25
                           NO. OF BETA  ELECTRONS =   24
  SCF CRITERION =    0.1000E-07

 -------------------------------------------------------------------------------
 PM7 1SCF GRADIENTS DISP RELSCF=0.0001 CHARGE=1
 Title: ASE calculation



     1SCF WAS SPECIFIED, SO BFGS WAS NOT USED                 
     SCF FIELD WAS ACHIEVED                                   


                              PM7 CALCULATION
                                                       MOPAC v23.2 Linux
                                                       Fri Sep 19 21:27:48 2025




          FINAL HEAT OF FORMATION =        157.88406 KCAL/MOL =     660.58691 KJ/MOL

          TOTAL ENERGY            =     -35320.43021 KCAL/MOL = ELECTRONIC ENERGY + CORE-CORE REPULSION
          ENERGY OF ATOMS         =      35480.40871 KCAL/MOL
                              SUM =        159.97850 KCAL/MOL
          DISPERSION ENERGY       =         -2.09444 KCAL/MOL
                              SUM =        157.88406 KCAL/MOL = FINAL HEAT OF FORMATION



          TOTAL ENERGY            =      -1531.63882 EV
          ELECTRONIC ENERGY       =      -7361.77383 EV 
          CORE-CORE REPULSION     =       5830.13501 EV
          COSMO AREA              =        168.32 SQUARE ANGSTROMS
          COSMO VOLUME            =        161.62 CUBIC ANGSTROMS

          GRADIENT NORM           =          1.05065          =       0.24104 PER ATOM
          IONIZATION POTENTIAL    =         14.157098 EV
          ALPHA SOMO LUMO (EV)    =        -14.157 -5.489
          BETA  SOMO LUMO (EV)    =        -15.780 -6.956
          NO. OF ALPHA ELECTRONS  =         25
          NO. OF BETA  ELECTRONS  =         24
          MOLECULAR WEIGHT        =        126.1578         POINT GROUP:  C1  

          MOLECULAR DIMENSIONS (Angstroms)

            Atom       Atom       Distance
            H    19    H    11     7.52404
            H    10    H    16     4.28295
            H    18    H    17     3.98410


          SCF CALCULATIONS        =          1

          WALL-CLOCK TIME         =      0.883 SECONDS
          COMPUTATION TIME        =      0.691 SECONDS

          LARGEST ATOMIC GRADIENTS

          Atom     Label                     Cartesian Gradients           Cartesian Coordinates       |Gradient|
                                           X          Y          Z        X          Y          Z

            16       H                   0.391     -0.241     -0.021   -2.20172   -2.13026   -1.00565      0.459
            10       H                   0.234      0.235      0.020   -1.99262    2.15031   -0.14881      0.333
            11       H                  -0.058     -0.245     -0.216   -3.55328    1.37081   -0.43348      0.332
            18       H                  -0.100      0.299      0.034    2.90209   -0.17854   -1.93966      0.317
            19       H                   0.049     -0.273      0.048    3.73173   -0.51049   -0.45525      0.282
             4       C                  -0.185      0.067      0.198   -0.52640   -0.16843   -0.10917      0.279
            15       H                  -0.182      0.203     -0.052   -3.67792   -1.16007   -0.93620      0.278
             3       C                  -0.029     -0.243     -0.039   -2.66554   -1.26766   -0.51110      0.248
            14       H                   0.117      0.145      0.131   -2.79772   -1.52015    0.55238      0.228
             1       C                   0.025      0.188      0.066   -2.54473    1.21126   -0.01617      0.201



       FINAL  POINT  AND  DERIVATIVES

   PARAMETER     ATOM    TYPE            VALUE        GRADIENT
      1          1  C    CARTESIAN X    -2.544728      0.024512  KCAL/ANGSTROM
      2          1  C    CARTESIAN Y     1.211257      0.188178  KCAL/ANGSTROM
      3          1  C    CARTESIAN Z    -0.016171      0.065877  KCAL/ANGSTROM
      4          2  C    CARTESIAN X    -1.863770     -0.190248  KCAL/ANGSTROM
      5          2  C    CARTESIAN Y     0.024255     -0.013319  KCAL/ANGSTROM
      6          2  C    CARTESIAN Z    -0.703162      0.057056  KCAL/ANGSTROM
      7          3  C    CARTESIAN X    -2.665538     -0.029479  KCAL/ANGSTROM
      8          3  C    CARTESIAN Y    -1.267661     -0.242736  KCAL/ANGSTROM
      9          3  C    CARTESIAN Z    -0.511102     -0.039393  KCAL/ANGSTROM
     10          4  C    CARTESIAN X    -0.526401     -0.184899  KCAL/ANGSTROM
     11          4  C    CARTESIAN Y    -0.168429      0.067148  KCAL/ANGSTROM
     12          4  C    CARTESIAN Z    -0.109166      0.197767  KCAL/ANGSTROM
     13          5  N    CARTESIAN X    -0.070997      0.037684  KCAL/ANGSTROM
     14          5  N    CARTESIAN Y    -0.399049      0.120936  KCAL/ANGSTROM
     15          5  N    CARTESIAN Z     1.127449     -0.070815  KCAL/ANGSTROM
     16          6  C    CARTESIAN X     1.276941     -0.014485  KCAL/ANGSTROM
     17          6  C    CARTESIAN Y    -0.516773      0.062462  KCAL/ANGSTROM
     18          6  C    CARTESIAN Z     1.093939     -0.022410  KCAL/ANGSTROM
     19          7  C    CARTESIAN X     1.695432     -0.013320  KCAL/ANGSTROM
     20          7  C    CARTESIAN Y    -0.339486     -0.085888  KCAL/ANGSTROM
     21          7  C    CARTESIAN Z    -0.293940     -0.101128  KCAL/ANGSTROM
     22          8  N    CARTESIAN X     2.849217      0.114122  KCAL/ANGSTROM
     23          8  N    CARTESIAN Y    -0.342985     -0.048101  KCAL/ANGSTROM
     24          8  N    CARTESIAN Z    -0.934343     -0.045586  KCAL/ANGSTROM
     25          9  O    CARTESIAN X     0.552401      0.070225  KCAL/ANGSTROM
     26          9  O    CARTESIAN Y    -0.120268     -0.065586  KCAL/ANGSTROM
     27          9  O    CARTESIAN Z    -1.030587     -0.080172  KCAL/ANGSTROM
     28         10  H    CARTESIAN X    -1.992620      0.234158  KCAL/ANGSTROM
     29         10  H    CARTESIAN Y     2.150310      0.235308  KCAL/ANGSTROM
     30         10  H    CARTESIAN Z    -0.148809      0.020165  KCAL/ANGSTROM
     31         11  H    CARTESIAN X    -3.553278     -0.058348  KCAL/ANGSTROM
     32         11  H    CARTESIAN Y     1.370810     -0.244911  KCAL/ANGSTROM
     33         11  H    CARTESIAN Z    -0.433479     -0.216034  KCAL/ANGSTROM
     34         12  H    CARTESIAN X    -2.674185     -0.037516  KCAL/ANGSTROM
     35         12  H    CARTESIAN Y     1.048617     -0.137652  KCAL/ANGSTROM
     36         12  H    CARTESIAN Z     1.065130      0.048270  KCAL/ANGSTROM
     37         13  H    CARTESIAN X    -1.771074     -0.155244  KCAL/ANGSTROM
     38         13  H    CARTESIAN Y     0.240702      0.081881  KCAL/ANGSTROM
     39         13  H    CARTESIAN Z    -1.806916     -0.024342  KCAL/ANGSTROM
     40         14  H    CARTESIAN X    -2.797718      0.117457  KCAL/ANGSTROM
     41         14  H    CARTESIAN Y    -1.520146      0.144958  KCAL/ANGSTROM
     42         14  H    CARTESIAN Z     0.552384      0.131207  KCAL/ANGSTROM
     43         15  H    CARTESIAN X    -3.677922     -0.182429  KCAL/ANGSTROM
     44         15  H    CARTESIAN Y    -1.160069      0.203489  KCAL/ANGSTROM
     45         15  H    CARTESIAN Z    -0.936199     -0.051566  KCAL/ANGSTROM
     46         16  H    CARTESIAN X    -2.201722      0.390588  KCAL/ANGSTROM
     47         16  H    CARTESIAN Y    -2.130255     -0.241021  KCAL/ANGSTROM
     48         16  H    CARTESIAN Z    -1.005651     -0.021387  KCAL/ANGSTROM
     49         17  H    CARTESIAN X     1.886042     -0.072016  KCAL/ANGSTROM
     50         17  H    CARTESIAN Y    -0.709013     -0.051051  KCAL/ANGSTROM
     51         17  H    CARTESIAN Z     1.972359      0.070090  KCAL/ANGSTROM
     52         18  H    CARTESIAN X     2.902088     -0.100049  KCAL/ANGSTROM
     53         18  H    CARTESIAN Y    -0.178543      0.299309  KCAL/ANGSTROM
     54         18  H    CARTESIAN Z    -1.939656      0.033931  KCAL/ANGSTROM
     55         19  H    CARTESIAN X     3.731732      0.049287  KCAL/ANGSTROM
     56         19  H    CARTESIAN Y    -0.510493     -0.273405  KCAL/ANGSTROM
     57         19  H    CARTESIAN Z    -0.455247      0.048467  KCAL/ANGSTROM




   ATOM   CHEMICAL          X               Y               Z
  NUMBER   SYMBOL      (ANGSTROMS)     (ANGSTROMS)     (ANGSTROMS)

     1       C         -2.54472849  *   1.21125742  *  -0.01617144  *
     2       C         -1.86377032  *   0.02425537  *  -0.70316199  *
     3       C         -2.66553840  *  -1.26766080  *  -0.51110189  *
     4       C         -0.52640071  *  -0.16842888  *  -0.10916606  *
     5       N         -0.07099676  *  -0.39904894  *   1.12744939  *
     6       C          1.27694146  *  -0.51677349  *   1.09393874  *
     7       C          1.69543183  *  -0.33948611  *  -0.29394030  *
     8       N          2.84921680  *  -0.34298540  *  -0.93434328  *
     9       O          0.55240081  *  -0.12026820  *  -1.03058678  *
    10       H         -1.99262023  *   2.15031011  *  -0.14880928  *
    11       H         -3.55327841  *   1.37081016  *  -0.43347921  *
    12       H         -2.67418505  *   1.04861715  *   1.06513028  *
    13       H         -1.77107398  *   0.24070188  *  -1.80691637  *
    14       H         -2.79771833  *  -1.52014599  *   0.55238438  *
    15       H         -3.67792194  *  -1.16006924  *  -0.93619901  *
    16       H         -2.20172218  *  -2.13025502  *  -1.00565079  *
    17       H          1.88604172  *  -0.70901341  *   1.97235850  *
    18       H          2.90208779  *  -0.17854334  *  -1.93965578  *
    19       H          3.73173229  *  -0.51049341  *  -0.45524736  *

                             CARTESIAN COORDINATES

   1    C       -2.544728490     1.211257415    -0.016171441
   2    C       -1.863770320     0.024255366    -0.703161985
   3    C       -2.665538405    -1.267660798    -0.511101895
   4    C       -0.526400710    -0.168428875    -0.109166060
   5    N       -0.070996763    -0.399048938     1.127449391
   6    C        1.276941462    -0.516773493     1.093938745
   7    C        1.695431831    -0.339486110    -0.293940301
   8    N        2.849216798    -0.342985398    -0.934343277
   9    O        0.552400808    -0.120268203    -1.030586777
  10    H       -1.992620229     2.150310106    -0.148809278
  11    H       -3.553278405     1.370810158    -0.433479210
  12    H       -2.674185047     1.048617149     1.065130283
  13    H       -1.771073982     0.240701878    -1.806916374
  14    H       -2.797718326    -1.520145988     0.552384376
  15    H       -3.677921945    -1.160069244    -0.936199009
  16    H       -2.201722177    -2.130255016    -1.005650786
  17    H        1.886041718    -0.709013414     1.972358503
  18    H        2.902087793    -0.178543341    -1.939655777
  19    H        3.731732285    -0.510493413    -0.455247356


           Empirical Formula: C6 H10 N2 O  =    19 atoms



      MOLECULAR POINT GROUP   :   C1  


          ALPHA EIGENVALUES  
 -43.46011 -41.84969 -35.81127 -33.43377 -30.27941 -27.71030 -27.49615 -27.15505
 -24.42950 -23.82543 -22.45951 -21.87798 -21.65818 -19.86072 -19.24126 -18.99530
 -18.86526 -17.70804 -17.27676 -16.78501 -16.43115 -16.27782 -16.13832 -15.77353
 -14.15710  -5.48855  -4.46518  -4.19872  -3.46963  -2.69278  -2.10959  -1.91788
  -0.72864  -0.19730  -0.12068   0.02700   0.36520   0.58869   0.63594   1.49558
   2.15106   2.22804   2.26999   2.30384   3.31426   3.41417


           BETA EIGENVALUES 
 -42.80282 -41.94203 -36.03310 -33.37564 -30.08858 -27.68640 -27.43396 -27.05599
 -24.36370 -23.71982 -22.36411 -21.81244 -21.25042 -19.82251 -19.18662 -18.97712
 -18.30602 -17.23075 -17.05472 -16.68516 -16.41258 -16.33785 -16.05186 -15.78005
  -6.95594  -4.56924  -4.37374  -3.45029  -3.28316  -2.60498  -2.03316  -1.82159
  -0.65049  -0.08960  -0.02914   0.10165   0.39892   0.70471   0.73715   1.49973
   2.15350   2.23240   2.27315   2.30648   3.31521   3.41564


              NET ATOMIC CHARGES AND DIPOLE CONTRIBUTIONS

  ATOM NO.   TYPE          CHARGE      No. of ELECS.   s-Pop       p-Pop       
    1          C          -0.440447        4.4404     1.05681     3.38364
    2          C          -0.096192        4.0962     1.06224     3.03395
    3          C          -0.441187        4.4412     1.05722     3.38397
    4          C           0.421996        3.5780     1.18619     2.39182
    5          N          -0.328512        5.3285     1.74714     3.58137
    6          C           0.038361        3.9616     1.13068     2.83096
    7          C           0.271701        3.7283     1.09927     2.62903
    8          N          -0.327433        5.3274     1.49410     3.83334
    9          O          -0.284442        6.2844     1.88393     4.40051
   10          H           0.161233        0.8388     0.83877
   11          H           0.188380        0.8116     0.81162
   12          H           0.179332        0.8207     0.82067
   13          H           0.190382        0.8096     0.80962
   14          H           0.178674        0.8213     0.82133
   15          H           0.189400        0.8106     0.81060
   16          H           0.159984        0.8400     0.84002
   17          H           0.239153        0.7608     0.76085
   18          H           0.349186        0.6508     0.65081
   19          H           0.350432        0.6496     0.64957
 DIPOLE           X         Y         Z       TOTAL
 POINT-CHG.     6.033    -0.369    -1.117     6.147
 HYBRID         1.210     0.081    -1.176     1.689
 SUM            7.243    -0.288    -2.293     7.603


          ATOMIC ORBITAL ELECTRON POPULATIONS

     Atom    s        px        py        pz   
    1  C   1.05681   1.16269   1.05072   1.17023
    2  C   1.06224   0.88394   1.04025   1.10976
    3  C   1.05722   1.14538   1.02877   1.20982
    4  C   1.18619   0.86850   0.76492   0.75839
    5  N   1.74714   1.14449   1.18937   1.24750
    6  C   1.13068   0.91173   0.94862   0.97061
    7  C   1.09927   0.79110   0.90691   0.93102
    8  N   1.49410   1.13631   1.47252   1.22451
    9  O   1.88393   1.23836   1.74610   1.41605
   10  H   0.83877
   11  H   0.81162
   12  H   0.82067
   13  H   0.80962
   14  H   0.82133
   15  H   0.81060
   16  H   0.84002
   17  H   0.76085
   18  H   0.65081
   19  H   0.64957


                    (SZ)    =    0.500000
                    (S**2)  =    0.807248


          ATOMIC ORBITAL SPIN POPULATIONS

    Atom   Total    s     px     py     pz   
         Atomic
    1  C  0.0131  0.002  0.004  0.006  0.001
    2  C -0.0137 -0.002 -0.010  0.000 -0.002
    3  C  0.0154  0.002  0.006  0.007  0.000
    4  C  0.3630  0.011  0.014  0.320  0.018
    5  N -0.1204 -0.001 -0.018 -0.089 -0.013
    6  C  0.4841  0.013  0.019  0.429  0.024
    7  C -0.0003 -0.006 -0.006  0.022 -0.010
    8  N  0.3674  0.016  0.017  0.311  0.024
    9  O -0.0638 -0.002 -0.007 -0.048 -0.007
   10  H -0.0005 -0.001
   11  H  0.0003  0.000
   12  H -0.0003 -0.000
   13  H  0.0006  0.001
   14  H -0.0004 -0.000
   15  H  0.0004  0.000
   16  H -0.0006 -0.001
   17  H -0.0127 -0.013
   18  H -0.0159 -0.016
   19  H -0.0155 -0.016

 **********************
 *                    *
 * JOB ENDED NORMALLY *
 *                    *
 **********************



 TOTAL JOB TIME:             1.23 SECONDS

 == MOPAC DONE ==
