 *******************************************************************************
 **                                                                           **
 **                              MOPAC v23.2                                  **
 **                                                                           **
 *******************************************************************************
 **          Digital Object Identifier (DOI): 10.5281/zenodo.6511958          **
 **    Visit the DOI location for information on how to cite this program.    **
 *******************************************************************************

                              PM7 CALCULATION RESULTS

 *******************************************************************************
 *  CALCULATION DONE: (MAX THREADS = 40)             Fri Sep 19 21:36:01 2025  *
 *  PM7        - The PM7 Hamiltonian to be used
 *
 *
 *
 *                 CHARGE ON SYSTEM = +1
 *
 *
 *
 *  EPS=37.5   - USE ANDREAS KLAMT'S COSMO IMPLICIT SOLVATION MODEL
 *  1SCF       - DO 1 SCF AND THEN STOP 
 *  T=         - A TIME OF 172800.0 SECONDS REQUESTED
 *  DUMP=N     - RESTART FILE WRITTEN EVERY 7200.0 SECONDS REQUESTED
 *  RELSCF     - DEFAULT SCF CRITERION MULTIPLIED BY 0.0001
 *              (DEFAULT SCF CRITERION = 0.00010)
 *  GRADIENTS  - ALL GRADIENTS TO BE PRINTED
 *  DISP       - PRINT DISPERSION AND HYDROGEN BOND ENERGIES
 *******************************************************************************
PM7 1SCF GRADIENTS EPS=37.5 DISP RELSCF=0.0001 CHARGE=1
 Title: ASE calculation

   ATOM   CHEMICAL          X               Y               Z
  NUMBER   SYMBOL      (ANGSTROMS)     (ANGSTROMS)     (ANGSTROMS)

     1       C         -2.02373864  *   1.11323189  *  -0.77231433  *
     2       C         -0.91729425  *   1.04156352  *   0.28840449  *
     3       C         -0.77276802  *  -0.39431571  *   0.77507842  *
     4       C         -0.69373422  *  -1.55801020  *  -0.17818294  *
     5       C          0.50569049  *  -1.22869161  *   0.68394017  *
     6       C          1.77659804  *  -0.72454445  *  -0.01136665  *
     7       C          2.17388172  *   0.41347864  *   0.79449494  *
     8       C          1.53540959  *   1.70136503  *   0.64854086  *
     9       C          0.32382189  *   1.66944828  *  -0.20048374  *
    10       H         -1.76039134  *   0.57073469  *  -1.68758987  *
    11       H         -2.96133048  *   0.67636164  *  -0.39876102  *
    12       H         -2.24513082  *   2.15154625  *  -1.05610879  *
    13       H         -1.26900953  *   1.66428586  *   1.17138339  *
    14       H         -1.37732607  *  -0.55104075  *   1.68758987  *
    15       H         -0.66431549  *  -1.38813108  *  -1.25356258  *
    16       H         -1.26369231  *  -2.46952809  *   0.02553380  *
    17       H          0.73854262  *  -1.90187312  *   1.52181478  *
    18       H          2.52224642  *  -1.55426140  *  -0.07621145  *
    19       H          1.53889577  *  -0.46550965  *  -1.07915597  *
    20       H          2.96133048  *   0.28488584  *   1.56282641  *
    21       H          2.28523317  *   2.46952809  *   0.26372007  *
    22       H          1.30055433  *   2.18043772  *   1.65140412  *
    23       H          0.33116532  *   2.17867246  *  -1.15057132  *



          CARTESIAN COORDINATES 

    NO.       ATOM           X           Y           Z

     1         C         -2.0237      1.1132     -0.7723
     2         C         -0.9173      1.0416      0.2884
     3         C         -0.7728     -0.3943      0.7751
     4         C         -0.6937     -1.5580     -0.1782
     5         C          0.5057     -1.2287      0.6839
     6         C          1.7766     -0.7245     -0.0114
     7         C          2.1739      0.4135      0.7945
     8         C          1.5354      1.7014      0.6485
     9         C          0.3238      1.6694     -0.2005
    10         H         -1.7604      0.5707     -1.6876
    11         H         -2.9613      0.6764     -0.3988
    12         H         -2.2451      2.1515     -1.0561
    13         H         -1.2690      1.6643      1.1714
    14         H         -1.3773     -0.5510      1.6876
    15         H         -0.6643     -1.3881     -1.2536
    16         H         -1.2637     -2.4695      0.0255
    17         H          0.7385     -1.9019      1.5218
    18         H          2.5222     -1.5543     -0.0762
    19         H          1.5389     -0.4655     -1.0792
    20         H          2.9613      0.2849      1.5628
    21         H          2.2852      2.4695      0.2637
    22         H          1.3006      2.1804      1.6514
    23         H          0.3312      2.1787     -1.1506

 General Reference for PM7:
 "Optimization of Parameters for Semiempirical Methods VI: More Modifications to the 
 NDDO Approximations and Re-optimization of Parameters", J. J. P. Stewart, J. Mol. Mod., 1:32, 19 (2013)
 https://link.springer.com/article/10.1007/s00894-012-1667-x

           Empirical Formula: C9 H14  =    23 atoms



      MOLECULAR POINT GROUP   :   C1  


          UHF CALCULATION, NO. OF ALPHA ELECTRONS =   25
                           NO. OF BETA  ELECTRONS =   24
  SCF CRITERION =    0.1000E-07

 -------------------------------------------------------------------------------
 PM7 1SCF GRADIENTS EPS=37.5 DISP RELSCF=0.0001 CHARGE=1
 Title: ASE calculation



     1SCF WAS SPECIFIED, SO BFGS WAS NOT USED                 
     SCF FIELD WAS ACHIEVED                                   


                              PM7 CALCULATION
                                                       MOPAC v23.2 Linux
                                                       Fri Sep 19 21:36:03 2025




          FINAL HEAT OF FORMATION =        173.41539 KCAL/MOL =     725.56999 KJ/MOL

          TOTAL ENERGY            =     -29676.52619 KCAL/MOL = ELECTRONIC ENERGY + CORE-CORE REPULSION + SOLVATION ENERGY
          ENERGY OF ATOMS         =      29852.41387 KCAL/MOL
                              SUM =        175.88768 KCAL/MOL
          DISPERSION ENERGY       =         -2.47229 KCAL/MOL
                              SUM =        173.41539 KCAL/MOL = FINAL HEAT OF FORMATION

          VAN DER WAALS AREA      =        168.80 SQUARE ANGSTROMS


          TOTAL ENERGY            =      -1286.89598 EV
          ELECTRONIC ENERGY       =      -2248.90446 EV 
          CORE-CORE REPULSION     =        962.00848 EV

          DIELECTRIC ENERGY       =         -2.44258 EV
          COSMO AREA              =        168.80 SQUARE ANGSTROMS
          COSMO VOLUME            =        175.19 CUBIC ANGSTROMS

          GRADIENT NORM           =         22.32047          =       4.65414 PER ATOM
          IONIZATION POTENTIAL    =          9.539589 EV
          ALPHA SOMO LUMO (EV)    =         -9.540 -2.084
          BETA  SOMO LUMO (EV)    =        -11.364 -2.054
          NO. OF ALPHA ELECTRONS  =         25
          NO. OF BETA  ELECTRONS  =         24
          MOLECULAR WEIGHT        =        122.2096         POINT GROUP:  C1  

          MOLECULAR DIMENSIONS (Angstroms)

            Atom       Atom       Distance
            H    20    H    11     6.25132
            H    21    H    16     5.22138
            H    19    H    14     3.45670


          SCF CALCULATIONS        =          2

          WALL-CLOCK TIME         =      1.703 SECONDS
          COMPUTATION TIME        =      1.058 SECONDS

          LARGEST ATOMIC GRADIENTS

          Atom     Label                     Cartesian Gradients           Cartesian Coordinates       |Gradient|
                                           X          Y          Z        X          Y          Z

             6       C                  11.000      6.060      0.326    1.77660   -0.72454   -0.01137     12.563
             7       C                  -4.509     -9.484     -1.808    2.17388    0.41348    0.79449     10.656
             8       C                   7.292      6.125      3.705    1.53541    1.70137    0.64854     10.218
             5       C                   1.215      1.106      4.557    0.50569   -1.22869    0.68394      4.844
             1       C                   4.219     -0.580      0.994   -2.02374    1.11323   -0.77231      4.373
             4       C                   0.904      3.603      0.559   -0.69373   -1.55801   -0.17818      3.757
             9       C                  -2.127     -2.081      0.221    0.32382    1.66945   -0.20048      2.984
            21       H                  -2.486      0.617     -1.234    2.28523    2.46953    0.26372      2.843
            19       H                  -2.434     -0.845     -0.995    1.53890   -0.46551   -1.07916      2.762
            22       H                  -2.355     -0.018     -0.936    1.30055    2.18044    1.65140      2.534



       FINAL  POINT  AND  DERIVATIVES

   PARAMETER     ATOM    TYPE            VALUE        GRADIENT
      1          1  C    CARTESIAN X    -2.023739      4.218563  KCAL/ANGSTROM
      2          1  C    CARTESIAN Y     1.113232     -0.580174  KCAL/ANGSTROM
      3          1  C    CARTESIAN Z    -0.772314      0.994032  KCAL/ANGSTROM
      4          2  C    CARTESIAN X    -0.917294      1.462735  KCAL/ANGSTROM
      5          2  C    CARTESIAN Y     1.041564      0.188664  KCAL/ANGSTROM
      6          2  C    CARTESIAN Z     0.288404      0.259795  KCAL/ANGSTROM
      7          3  C    CARTESIAN X    -0.772768     -0.634873  KCAL/ANGSTROM
      8          3  C    CARTESIAN Y    -0.394316     -0.545153  KCAL/ANGSTROM
      9          3  C    CARTESIAN Z     0.775078     -1.467495  KCAL/ANGSTROM
     10          4  C    CARTESIAN X    -0.693734      0.903642  KCAL/ANGSTROM
     11          4  C    CARTESIAN Y    -1.558010      3.603111  KCAL/ANGSTROM
     12          4  C    CARTESIAN Z    -0.178183      0.559092  KCAL/ANGSTROM
     13          5  C    CARTESIAN X     0.505690      1.214519  KCAL/ANGSTROM
     14          5  C    CARTESIAN Y    -1.228692      1.105842  KCAL/ANGSTROM
     15          5  C    CARTESIAN Z     0.683940      4.556830  KCAL/ANGSTROM
     16          6  C    CARTESIAN X     1.776598     11.000223  KCAL/ANGSTROM
     17          6  C    CARTESIAN Y    -0.724544      6.059876  KCAL/ANGSTROM
     18          6  C    CARTESIAN Z    -0.011367      0.325611  KCAL/ANGSTROM
     19          7  C    CARTESIAN X     2.173882     -4.509446  KCAL/ANGSTROM
     20          7  C    CARTESIAN Y     0.413479     -9.484271  KCAL/ANGSTROM
     21          7  C    CARTESIAN Z     0.794495     -1.808404  KCAL/ANGSTROM
     22          8  C    CARTESIAN X     1.535410      7.291563  KCAL/ANGSTROM
     23          8  C    CARTESIAN Y     1.701365      6.124681  KCAL/ANGSTROM
     24          8  C    CARTESIAN Z     0.648541      3.704730  KCAL/ANGSTROM
     25          9  C    CARTESIAN X     0.323822     -2.127369  KCAL/ANGSTROM
     26          9  C    CARTESIAN Y     1.669448     -2.081136  KCAL/ANGSTROM
     27          9  C    CARTESIAN Z    -0.200484      0.221074  KCAL/ANGSTROM
     28         10  H    CARTESIAN X    -1.760391     -1.346601  KCAL/ANGSTROM
     29         10  H    CARTESIAN Y     0.570735     -0.233766  KCAL/ANGSTROM
     30         10  H    CARTESIAN Z    -1.687590     -0.504319  KCAL/ANGSTROM
     31         11  H    CARTESIAN X    -2.961330     -1.193207  KCAL/ANGSTROM
     32         11  H    CARTESIAN Y     0.676362      0.077324  KCAL/ANGSTROM
     33         11  H    CARTESIAN Z    -0.398761     -0.092188  KCAL/ANGSTROM
     34         12  H    CARTESIAN X    -2.245131     -1.237289  KCAL/ANGSTROM
     35         12  H    CARTESIAN Y     2.151546      0.776557  KCAL/ANGSTROM
     36         12  H    CARTESIAN Z    -1.056109     -0.339704  KCAL/ANGSTROM
     37         13  H    CARTESIAN X    -1.269010     -1.384371  KCAL/ANGSTROM
     38         13  H    CARTESIAN Y     1.664286      0.866438  KCAL/ANGSTROM
     39         13  H    CARTESIAN Z     1.171383     -0.437431  KCAL/ANGSTROM
     40         14  H    CARTESIAN X    -1.377326     -1.354274  KCAL/ANGSTROM
     41         14  H    CARTESIAN Y    -0.551041     -0.220015  KCAL/ANGSTROM
     42         14  H    CARTESIAN Z     1.687590      0.153315  KCAL/ANGSTROM
     43         15  H    CARTESIAN X    -0.664315     -0.902849  KCAL/ANGSTROM
     44         15  H    CARTESIAN Y    -1.388131     -0.585254  KCAL/ANGSTROM
     45         15  H    CARTESIAN Z    -1.253563     -0.340254  KCAL/ANGSTROM
     46         16  H    CARTESIAN X    -1.263692     -1.128796  KCAL/ANGSTROM
     47         16  H    CARTESIAN Y    -2.469528     -1.966009  KCAL/ANGSTROM
     48         16  H    CARTESIAN Z     0.025534     -0.027786  KCAL/ANGSTROM
     49         17  H    CARTESIAN X     0.738543     -0.249936  KCAL/ANGSTROM
     50         17  H    CARTESIAN Y    -1.901873     -1.269823  KCAL/ANGSTROM
     51         17  H    CARTESIAN Z     1.521815     -0.869001  KCAL/ANGSTROM
     52         18  H    CARTESIAN X     2.522246     -1.036408  KCAL/ANGSTROM
     53         18  H    CARTESIAN Y    -1.554261     -2.169401  KCAL/ANGSTROM
     54         18  H    CARTESIAN Z    -0.076211     -0.617596  KCAL/ANGSTROM
     55         19  H    CARTESIAN X     1.538896     -2.433711  KCAL/ANGSTROM
     56         19  H    CARTESIAN Y    -0.465510     -0.845497  KCAL/ANGSTROM
     57         19  H    CARTESIAN Z    -1.079156     -0.994865  KCAL/ANGSTROM
     58         20  H    CARTESIAN X     2.961330     -0.987599  KCAL/ANGSTROM
     59         20  H    CARTESIAN Y     0.284886     -0.531023  KCAL/ANGSTROM
     60         20  H    CARTESIAN Z     1.562826     -0.119635  KCAL/ANGSTROM
     61         21  H    CARTESIAN X     2.285233     -2.486275  KCAL/ANGSTROM
     62         21  H    CARTESIAN Y     2.469528      0.616578  KCAL/ANGSTROM
     63         21  H    CARTESIAN Z     0.263720     -1.234227  KCAL/ANGSTROM
     64         22  H    CARTESIAN X     1.300554     -2.354597  KCAL/ANGSTROM
     65         22  H    CARTESIAN Y     2.180438     -0.017823  KCAL/ANGSTROM
     66         22  H    CARTESIAN Z     1.651404     -0.935651  KCAL/ANGSTROM
     67         23  H    CARTESIAN X     0.331165     -0.723645  KCAL/ANGSTROM
     68         23  H    CARTESIAN Y     2.178672      1.110273  KCAL/ANGSTROM
     69         23  H    CARTESIAN Z    -1.150571     -0.985928  KCAL/ANGSTROM




   ATOM   CHEMICAL          X               Y               Z
  NUMBER   SYMBOL      (ANGSTROMS)     (ANGSTROMS)     (ANGSTROMS)

     1       C         -2.02373864  *   1.11323189  *  -0.77231433  *
     2       C         -0.91729425  *   1.04156352  *   0.28840449  *
     3       C         -0.77276802  *  -0.39431571  *   0.77507842  *
     4       C         -0.69373422  *  -1.55801020  *  -0.17818294  *
     5       C          0.50569049  *  -1.22869161  *   0.68394017  *
     6       C          1.77659804  *  -0.72454445  *  -0.01136665  *
     7       C          2.17388172  *   0.41347864  *   0.79449494  *
     8       C          1.53540959  *   1.70136503  *   0.64854086  *
     9       C          0.32382189  *   1.66944828  *  -0.20048374  *
    10       H         -1.76039134  *   0.57073469  *  -1.68758987  *
    11       H         -2.96133048  *   0.67636164  *  -0.39876102  *
    12       H         -2.24513082  *   2.15154625  *  -1.05610879  *
    13       H         -1.26900953  *   1.66428586  *   1.17138339  *
    14       H         -1.37732607  *  -0.55104075  *   1.68758987  *
    15       H         -0.66431549  *  -1.38813108  *  -1.25356258  *
    16       H         -1.26369231  *  -2.46952809  *   0.02553380  *
    17       H          0.73854262  *  -1.90187312  *   1.52181478  *
    18       H          2.52224642  *  -1.55426140  *  -0.07621145  *
    19       H          1.53889577  *  -0.46550965  *  -1.07915597  *
    20       H          2.96133048  *   0.28488584  *   1.56282641  *
    21       H          2.28523317  *   2.46952809  *   0.26372007  *
    22       H          1.30055433  *   2.18043772  *   1.65140412  *
    23       H          0.33116532  *   2.17867246  *  -1.15057132  *

                             CARTESIAN COORDINATES

   1    C       -2.023738638     1.113231892    -0.772314332
   2    C       -0.917294248     1.041563518     0.288404493
   3    C       -0.772768015    -0.394315713     0.775078422
   4    C       -0.693734223    -1.558010200    -0.178182942
   5    C        0.505690489    -1.228691611     0.683940172
   6    C        1.776598043    -0.724544450    -0.011366647
   7    C        2.173881725     0.413478641     0.794494942
   8    C        1.535409588     1.701365027     0.648540859
   9    C        0.323821886     1.669448281    -0.200483737
  10    H       -1.760391336     0.570734694    -1.687589868
  11    H       -2.961330481     0.676361642    -0.398761019
  12    H       -2.245130816     2.151546251    -1.056108792
  13    H       -1.269009525     1.664285858     1.171383391
  14    H       -1.377326069    -0.551040750     1.687589868
  15    H       -0.664315492    -1.388131082    -1.253562582
  16    H       -1.263692308    -2.469528092     0.025533797
  17    H        0.738542619    -1.901873120     1.521814785
  18    H        2.522246421    -1.554261404    -0.076211448
  19    H        1.538895767    -0.465509645    -1.079155974
  20    H        2.961330481     0.284885843     1.562826410
  21    H        2.285233174     2.469528092     0.263720068
  22    H        1.300554327     2.180437721     1.651404119
  23    H        0.331165320     2.178672462    -1.150571322


           Empirical Formula: C9 H14  =    23 atoms



      MOLECULAR POINT GROUP   :   C1  


          ALPHA EIGENVALUES  
 -32.17536 -29.59167 -28.33245 -25.66612 -23.37241 -22.44828 -20.64488 -19.54078
 -18.79793 -18.12644 -16.96025 -16.21832 -15.84054 -15.28458 -14.67222 -14.46869
 -13.87353 -13.43420 -12.91129 -12.77365 -12.54222 -12.03192 -11.59184 -11.38504
  -9.53959  -2.08375   1.71741   2.41609   2.68091   3.05027   3.28647   3.56578
   3.68230   3.86468   3.95285   4.17537   4.26795   4.48459   4.77552   5.20177
   5.26115   5.51211   5.53111   5.63402   5.67120   5.72214   5.78950   5.89999
   6.12676   6.83273


           BETA EIGENVALUES 
 -32.13571 -29.55242 -28.23851 -25.63059 -23.23663 -22.39145 -20.62589 -19.45448
 -18.65864 -18.05042 -16.90939 -16.13756 -15.71280 -15.18610 -14.62060 -14.40168
 -13.85501 -13.42988 -12.87800 -12.70992 -12.43267 -11.94928 -11.52178 -11.36387
  -2.05357   0.03924   1.72956   2.48374   2.78618   3.07978   3.37038   3.66989
   3.78314   3.88907   3.99753   4.22223   4.37377   4.62014   4.77984   5.23050
   5.29510   5.51659   5.57146   5.65307   5.67313   5.73527   5.83012   6.07157
   6.13356   6.83275


              NET ATOMIC CHARGES AND DIPOLE CONTRIBUTIONS

  ATOM NO.   TYPE          CHARGE      No. of ELECS.   s-Pop       p-Pop       
    1          C          -0.447729        4.4477     1.05620     3.39153
    2          C          -0.108205        4.1082     1.04888     3.05933
    3          C          -0.159397        4.1594     1.05954     3.09985
    4          C          -0.316196        4.3162     1.05853     3.25767
    5          C          -0.170433        4.1704     1.05185     3.11858
    6          C          -0.393531        4.3935     1.06760     3.32593
    7          C           0.464141        3.5359     1.20044     2.33542
    8          C          -0.417703        4.4177     1.06179     3.35591
    9          C          -0.170915        4.1709     1.11472     3.05620
   10          H           0.154722        0.8453     0.84528
   11          H           0.159576        0.8404     0.84042
   12          H           0.156395        0.8436     0.84360
   13          H           0.175313        0.8247     0.82469
   14          H           0.174422        0.8256     0.82558
   15          H           0.176015        0.8240     0.82398
   16          H           0.176161        0.8238     0.82384
   17          H           0.187327        0.8127     0.81267
   18          H           0.217483        0.7825     0.78252
   19          H           0.228013        0.7720     0.77199
   20          H           0.202639        0.7974     0.79736
   21          H           0.281289        0.7187     0.71871
   22          H           0.265356        0.7346     0.73464
   23          H           0.165258        0.8347     0.83474
 DIPOLE           X         Y         Z       TOTAL
 POINT-CHG.     7.053     1.647     2.466     7.651
 HYBRID         0.324     0.092    -0.062     0.343
 SUM            7.377     1.738     2.404     7.952


          ATOMIC ORBITAL ELECTRON POPULATIONS

     Atom    s        px        py        pz   
    1  C   1.05620   1.09733   1.18485   1.10935
    2  C   1.04888   0.99390   0.99141   1.07401
    3  C   1.05954   1.03916   0.96328   1.09742
    4  C   1.05853   1.06499   1.09793   1.09474
    5  C   1.05185   0.88534   1.12151   1.11172
    6  C   1.06760   1.10534   1.08861   1.13198
    7  C   1.20044   0.68973   0.90731   0.73837
    8  C   1.06179   1.10395   1.06167   1.19029
    9  C   1.11472   0.95109   1.05312   1.05199
   10  H   0.84528
   11  H   0.84042
   12  H   0.84360
   13  H   0.82469
   14  H   0.82558
   15  H   0.82398
   16  H   0.82384
   17  H   0.81267
   18  H   0.78252
   19  H   0.77199
   20  H   0.79736
   21  H   0.71871
   22  H   0.73464
   23  H   0.83474


                    (SZ)    =    0.500000
                    (S**2)  =    0.753861


          ATOMIC ORBITAL SPIN POPULATIONS

    Atom   Total    s     px     py     pz   
         Atomic
    1  C  0.0034  0.001  0.001  0.000  0.001
    2  C -0.0488 -0.006 -0.021 -0.014 -0.008
    3  C  0.0301  0.007  0.002  0.018  0.004
    4  C -0.0010 -0.000 -0.000 -0.000 -0.000
    5  C -0.0016  0.000 -0.000 -0.001 -0.000
    6  C  0.0000 -0.000 -0.000 -0.000  0.001
    7  C  0.0364  0.008 -0.001  0.020  0.009
    8  C -0.0471 -0.006 -0.021 -0.009 -0.012
    9  C  1.0072  0.027  0.114  0.666  0.201
   10  H -0.0003 -0.000
   11  H -0.0007 -0.001
   12  H -0.0003 -0.000
   13  H  0.0339  0.034
   14  H -0.0010 -0.001
   15  H  0.0002  0.000
   16  H  0.0004  0.000
   17  H  0.0001  0.000
   18  H  0.0001  0.000
   19  H -0.0005 -0.001
   20  H  0.0003  0.000
   21  H  0.0034  0.003
   22  H  0.0143  0.014
   23  H -0.0284 -0.028

 **********************
 *                    *
 * JOB ENDED NORMALLY *
 *                    *
 **********************



 TOTAL JOB TIME:             2.02 SECONDS

 == MOPAC DONE ==
