 *******************************************************************************
 **                                                                           **
 **                              MOPAC v23.2                                  **
 **                                                                           **
 *******************************************************************************
 **          Digital Object Identifier (DOI): 10.5281/zenodo.6511958          **
 **    Visit the DOI location for information on how to cite this program.    **
 *******************************************************************************

                              PM7 CALCULATION RESULTS

 *******************************************************************************
 *  CALCULATION DONE: (MAX THREADS = 40)             Fri Sep 19 21:31:03 2025  *
 *  PM7        - The PM7 Hamiltonian to be used
 *  1SCF       - DO 1 SCF AND THEN STOP 
 *  T=         - A TIME OF 172800.0 SECONDS REQUESTED
 *  DUMP=N     - RESTART FILE WRITTEN EVERY 7200.0 SECONDS REQUESTED
 *  RELSCF     - DEFAULT SCF CRITERION MULTIPLIED BY 0.0001
 *              (DEFAULT SCF CRITERION = 0.00010)
 *  GRADIENTS  - ALL GRADIENTS TO BE PRINTED
 *  DISP       - PRINT DISPERSION AND HYDROGEN BOND ENERGIES
 *******************************************************************************
PM7 1SCF GRADIENTS DISP RELSCF=0.0001
 Title: ASE calculation

   ATOM   CHEMICAL          X               Y               Z
  NUMBER   SYMBOL      (ANGSTROMS)     (ANGSTROMS)     (ANGSTROMS)

     1       C         -2.40710216  *   1.23745735  *  -0.51761527  *
     2       C         -1.90583023  *   0.12224827  *  -0.28998239  *
     3       C         -1.32248165  *  -1.15554006  *  -0.02849481  *
     4       C          0.22200636  *  -1.11321689  *  -0.10894921  *
     5       O          0.62681005  *  -0.87545185  *  -1.43002146  *
     6       C          0.81083008  *  -0.06066145  *   0.84570326  *
     7       C          2.31723873  *   0.11432799  *   0.60617457  *
     8       C          2.55566074  *   0.88236946  *  -0.59581960  *
     9       N          2.73988809  *   1.50554568  *  -1.55294514  *
    10       H         -2.82484430  *   2.15409808  *  -0.70466855  *
    11       H         -1.69090586  *  -1.91160648  *  -0.76777564  *
    12       H         -1.63743223  *  -1.54274428  *   0.96777554  *
    13       H          0.65306473  *  -2.12380832  *   0.08516849  *
    14       H          0.27496185  *  -0.02588007  *  -1.77385191  *
    15       H          0.62228194  *  -0.36258169  *   1.89336045  *
    16       H          0.28938431  *   0.91048784  *   0.72090165  *
    17       H          2.81571382  *  -0.88359733  *   0.53002215  *
    18       H          2.78678034  *   0.61628903  *   1.48601398  *



          CARTESIAN COORDINATES 

    NO.       ATOM           X           Y           Z

     1         C         -2.4071      1.2375     -0.5176
     2         C         -1.9058      0.1222     -0.2900
     3         C         -1.3225     -1.1555     -0.0285
     4         C          0.2220     -1.1132     -0.1089
     5         O          0.6268     -0.8755     -1.4300
     6         C          0.8108     -0.0607      0.8457
     7         C          2.3172      0.1143      0.6062
     8         C          2.5557      0.8824     -0.5958
     9         N          2.7399      1.5055     -1.5529
    10         H         -2.8248      2.1541     -0.7047
    11         H         -1.6909     -1.9116     -0.7678
    12         H         -1.6374     -1.5427      0.9678
    13         H          0.6531     -2.1238      0.0852
    14         H          0.2750     -0.0259     -1.7739
    15         H          0.6223     -0.3626      1.8934
    16         H          0.2894      0.9105      0.7209
    17         H          2.8157     -0.8836      0.5300
    18         H          2.7868      0.6163      1.4860

 General Reference for PM7:
 "Optimization of Parameters for Semiempirical Methods VI: More Modifications to the 
 NDDO Approximations and Re-optimization of Parameters", J. J. P. Stewart, J. Mol. Mod., 1:32, 19 (2013)
 https://link.springer.com/article/10.1007/s00894-012-1667-x

           Empirical Formula: C7 H9 N O  =    18 atoms



      MOLECULAR POINT GROUP   :   C1  


      RHF CALCULATION, NO. OF DOUBLY OCCUPIED LEVELS = 24

  SCF CRITERION =    0.1000E-07

 -------------------------------------------------------------------------------
 PM7 1SCF GRADIENTS DISP RELSCF=0.0001
 Title: ASE calculation



     1SCF WAS SPECIFIED, SO BFGS WAS NOT USED                 
     SCF FIELD WAS ACHIEVED                                   


                              PM7 CALCULATION
                                                       MOPAC v23.2 Linux
                                                       Fri Sep 19 21:31:03 2025




          FINAL HEAT OF FORMATION =         20.86900 KCAL/MOL =      87.31589 KJ/MOL

          TOTAL ENERGY            =     -33696.94008 KCAL/MOL = ELECTRONIC ENERGY + CORE-CORE REPULSION
          ENERGY OF ATOMS         =      33709.16394 KCAL/MOL
                              SUM =         12.22386 KCAL/MOL
          DISPERSION ENERGY       =         -1.88787 KCAL/MOL
          H-BOND ENERGY           =         -0.00308 KCAL/MOL
                              SUM =         10.33291 KCAL/MOL = FINAL HEAT OF FORMATION

     *    WARNING - An energy term is incorrect or missing!

     *    FINAL HEAT OF FORMATION     =     20.86900 KCAL/MOL
     *    SUM OF CONTRIBUTIONS TO HoF =     10.33291 KCAL/MOL
     *                     DIFFERENCE =     10.53609 KCAL/MOL



          TOTAL ENERGY            =      -1461.23762 EV
          ELECTRONIC ENERGY       =      -6761.75755 EV 
          CORE-CORE REPULSION     =       5300.51993 EV
          COSMO AREA              =        170.62 SQUARE ANGSTROMS
          COSMO VOLUME            =        171.53 CUBIC ANGSTROMS

          GRADIENT NORM           =          0.78498          =       0.18502 PER ATOM
          IONIZATION POTENTIAL    =         10.624817 EV
          HOMO LUMO ENERGIES (EV) =        -10.625  1.087
          NO. OF FILLED LEVELS    =         24
          MOLECULAR WEIGHT        =        123.1542         POINT GROUP:  C1  

          MOLECULAR DIMENSIONS (Angstroms)

            Atom       Atom       Distance
            H    17    H    10     6.52441
            H    12    N     9     5.58948
            H    18    H    11     3.72268


          SCF CALCULATIONS        =          1

          WALL-CLOCK TIME         =      0.453 SECONDS
          COMPUTATION TIME        =      0.567 SECONDS

          LARGEST ATOMIC GRADIENTS

          Atom     Label                     Cartesian Gradients           Cartesian Coordinates       |Gradient|
                                           X          Y          Z        X          Y          Z

            18       H                  -0.181      0.011      0.275    2.78678    0.61629    1.48601      0.330
            17       H                   0.260     -0.072      0.107    2.81571   -0.88360    0.53002      0.290
            15       H                  -0.158     -0.084      0.170    0.62228   -0.36258    1.89336      0.247
             5       O                  -0.146     -0.038     -0.167    0.62681   -0.87545   -1.43002      0.226
             8       C                  -0.113     -0.017     -0.191    2.55566    0.88237   -0.59582      0.223
             9       N                   0.148     -0.075     -0.143    2.73989    1.50555   -1.55295      0.219
            16       H                  -0.133      0.098     -0.033    0.28938    0.91049    0.72090      0.169
            10       H                  -0.023      0.074      0.148   -2.82484    2.15410   -0.70467      0.167
            12       H                   0.049      0.139     -0.016   -1.63743   -1.54274    0.96778      0.149
            13       H                  -0.018      0.124     -0.074    0.65306   -2.12381    0.08517      0.146



       FINAL  POINT  AND  DERIVATIVES

   PARAMETER     ATOM    TYPE            VALUE        GRADIENT
      1          1  C    CARTESIAN X    -2.407102      0.104786  KCAL/ANGSTROM
      2          1  C    CARTESIAN Y     1.237457      0.070648  KCAL/ANGSTROM
      3          1  C    CARTESIAN Z    -0.517615      0.041367  KCAL/ANGSTROM
      4          2  C    CARTESIAN X    -1.905830      0.000106  KCAL/ANGSTROM
      5          2  C    CARTESIAN Y     0.122248     -0.136252  KCAL/ANGSTROM
      6          2  C    CARTESIAN Z    -0.289982     -0.003263  KCAL/ANGSTROM
      7          3  C    CARTESIAN X    -1.322482      0.124546  KCAL/ANGSTROM
      8          3  C    CARTESIAN Y    -1.155540     -0.056593  KCAL/ANGSTROM
      9          3  C    CARTESIAN Z    -0.028495     -0.048489  KCAL/ANGSTROM
     10          4  C    CARTESIAN X     0.222006      0.096906  KCAL/ANGSTROM
     11          4  C    CARTESIAN Y    -1.113217      0.082646  KCAL/ANGSTROM
     12          4  C    CARTESIAN Z    -0.108949     -0.053736  KCAL/ANGSTROM
     13          5  O    CARTESIAN X     0.626810     -0.146335  KCAL/ANGSTROM
     14          5  O    CARTESIAN Y    -0.875452     -0.037769  KCAL/ANGSTROM
     15          5  O    CARTESIAN Z    -1.430021     -0.167465  KCAL/ANGSTROM
     16          6  C    CARTESIAN X     0.810830     -0.051520  KCAL/ANGSTROM
     17          6  C    CARTESIAN Y    -0.060661      0.005544  KCAL/ANGSTROM
     18          6  C    CARTESIAN Z     0.845703      0.037784  KCAL/ANGSTROM
     19          7  C    CARTESIAN X     2.317239      0.047456  KCAL/ANGSTROM
     20          7  C    CARTESIAN Y     0.114328      0.005714  KCAL/ANGSTROM
     21          7  C    CARTESIAN Z     0.606175     -0.024506  KCAL/ANGSTROM
     22          8  C    CARTESIAN X     2.555661     -0.113051  KCAL/ANGSTROM
     23          8  C    CARTESIAN Y     0.882369     -0.016810  KCAL/ANGSTROM
     24          8  C    CARTESIAN Z    -0.595820     -0.191362  KCAL/ANGSTROM
     25          9  N    CARTESIAN X     2.739888      0.147623  KCAL/ANGSTROM
     26          9  N    CARTESIAN Y     1.505546     -0.075405  KCAL/ANGSTROM
     27          9  N    CARTESIAN Z    -1.552945     -0.143227  KCAL/ANGSTROM
     28         10  H    CARTESIAN X    -2.824844     -0.023210  KCAL/ANGSTROM
     29         10  H    CARTESIAN Y     2.154098      0.074009  KCAL/ANGSTROM
     30         10  H    CARTESIAN Z    -0.704669      0.147637  KCAL/ANGSTROM
     31         11  H    CARTESIAN X    -1.690906      0.083136  KCAL/ANGSTROM
     32         11  H    CARTESIAN Y    -1.911606     -0.118133  KCAL/ANGSTROM
     33         11  H    CARTESIAN Z    -0.767776      0.012711  KCAL/ANGSTROM
     34         12  H    CARTESIAN X    -1.637432      0.049479  KCAL/ANGSTROM
     35         12  H    CARTESIAN Y    -1.542744      0.139335  KCAL/ANGSTROM
     36         12  H    CARTESIAN Z     0.967776     -0.016491  KCAL/ANGSTROM
     37         13  H    CARTESIAN X     0.653065     -0.018386  KCAL/ANGSTROM
     38         13  H    CARTESIAN Y    -2.123808      0.124068  KCAL/ANGSTROM
     39         13  H    CARTESIAN Z     0.085168     -0.074364  KCAL/ANGSTROM
     40         14  H    CARTESIAN X     0.274962     -0.088325  KCAL/ANGSTROM
     41         14  H    CARTESIAN Y    -0.025880     -0.014276  KCAL/ANGSTROM
     42         14  H    CARTESIAN Z    -1.773852     -0.036273  KCAL/ANGSTROM
     43         15  H    CARTESIAN X     0.622282     -0.158371  KCAL/ANGSTROM
     44         15  H    CARTESIAN Y    -0.362582     -0.083508  KCAL/ANGSTROM
     45         15  H    CARTESIAN Z     1.893360      0.170225  KCAL/ANGSTROM
     46         16  H    CARTESIAN X     0.289384     -0.133474  KCAL/ANGSTROM
     47         16  H    CARTESIAN Y     0.910488      0.097989  KCAL/ANGSTROM
     48         16  H    CARTESIAN Z     0.720902     -0.033014  KCAL/ANGSTROM
     49         17  H    CARTESIAN X     2.815714      0.259947  KCAL/ANGSTROM
     50         17  H    CARTESIAN Y    -0.883597     -0.072356  KCAL/ANGSTROM
     51         17  H    CARTESIAN Z     0.530022      0.107099  KCAL/ANGSTROM
     52         18  H    CARTESIAN X     2.786780     -0.181316  KCAL/ANGSTROM
     53         18  H    CARTESIAN Y     0.616289      0.011145  KCAL/ANGSTROM
     54         18  H    CARTESIAN Z     1.486014      0.275362  KCAL/ANGSTROM




   ATOM   CHEMICAL          X               Y               Z
  NUMBER   SYMBOL      (ANGSTROMS)     (ANGSTROMS)     (ANGSTROMS)

     1       C         -2.40710216  *   1.23745735  *  -0.51761527  *
     2       C         -1.90583023  *   0.12224827  *  -0.28998239  *
     3       C         -1.32248165  *  -1.15554006  *  -0.02849481  *
     4       C          0.22200636  *  -1.11321689  *  -0.10894921  *
     5       O          0.62681005  *  -0.87545185  *  -1.43002146  *
     6       C          0.81083008  *  -0.06066145  *   0.84570326  *
     7       C          2.31723873  *   0.11432799  *   0.60617457  *
     8       C          2.55566074  *   0.88236946  *  -0.59581960  *
     9       N          2.73988809  *   1.50554568  *  -1.55294514  *
    10       H         -2.82484430  *   2.15409808  *  -0.70466855  *
    11       H         -1.69090586  *  -1.91160648  *  -0.76777564  *
    12       H         -1.63743223  *  -1.54274428  *   0.96777554  *
    13       H          0.65306473  *  -2.12380832  *   0.08516849  *
    14       H          0.27496185  *  -0.02588007  *  -1.77385191  *
    15       H          0.62228194  *  -0.36258169  *   1.89336045  *
    16       H          0.28938431  *   0.91048784  *   0.72090165  *
    17       H          2.81571382  *  -0.88359733  *   0.53002215  *
    18       H          2.78678034  *   0.61628903  *   1.48601398  *

                             CARTESIAN COORDINATES

   1    C       -2.407102157     1.237457352    -0.517615273
   2    C       -1.905830228     0.122248271    -0.289982393
   3    C       -1.322481651    -1.155540061    -0.028494814
   4    C        0.222006356    -1.113216891    -0.108949209
   5    O        0.626810047    -0.875451854    -1.430021459
   6    C        0.810830083    -0.060661452     0.845703256
   7    C        2.317238735     0.114327994     0.606174571
   8    C        2.555660736     0.882369456    -0.595819601
   9    N        2.739888093     1.505545678    -1.552945141
  10    H       -2.824844297     2.154098084    -0.704668552
  11    H       -1.690905858    -1.911606480    -0.767775641
  12    H       -1.637432225    -1.542744284     0.967775543
  13    H        0.653064729    -2.123808321     0.085168494
  14    H        0.274961850    -0.025880068    -1.773851914
  15    H        0.622281942    -0.362581689     1.893360447
  16    H        0.289384305     0.910487843     0.720901648
  17    H        2.815713820    -0.883597330     0.530022149
  18    H        2.786780344     0.616289032     1.486013976


           Empirical Formula: C7 H9 N O  =    18 atoms



      MOLECULAR POINT GROUP   :   C1  


                  EIGENVALUES  
 -34.81599 -30.77243 -28.26123 -27.49168 -25.48916 -23.33113 -21.36510 -18.57335
 -18.29838 -17.07323 -16.58466 -16.30143 -15.46501 -14.88099 -14.41715 -13.91644
 -13.45359 -12.71786 -12.63221 -12.61269 -12.17110 -11.38598 -10.86820 -10.62482
   1.08677   1.21817   1.31195   1.43924   2.59278   2.96828   3.24169   3.34310
   3.75580   4.05544   4.68428   4.78753   4.90559   5.12929   5.24579   5.48403
   5.76835   5.98691   6.03686   6.08188   6.66557


              NET ATOMIC CHARGES AND DIPOLE CONTRIBUTIONS

  ATOM NO.   TYPE          CHARGE      No. of ELECS.   s-Pop       p-Pop       
    1          C          -0.217056        4.2171     1.14244     3.07462
    2          C          -0.071472        4.0715     1.10859     2.96288
    3          C          -0.316053        4.3161     1.05096     3.26509
    4          C           0.175149        3.8249     1.08720     2.73766
    5          O          -0.547555        6.5476     1.84685     4.70070
    6          C          -0.330599        4.3306     1.06972     3.26088
    7          C          -0.245390        4.2454     1.04486     3.20053
    8          C           0.132004        3.8680     1.11723     2.75077
    9          N          -0.272320        5.2723     1.83170     3.44062
   10          H           0.190040        0.8100     0.80996
   11          H           0.185037        0.8150     0.81496
   12          H           0.170689        0.8293     0.82931
   13          H           0.143064        0.8569     0.85694
   14          H           0.330285        0.6697     0.66972
   15          H           0.155666        0.8443     0.84433
   16          H           0.166001        0.8340     0.83400
   17          H           0.181443        0.8186     0.81856
   18          H           0.171068        0.8289     0.82893
 DIPOLE           X         Y         Z       TOTAL
 POINT-CHG.    -1.372    -1.967     4.334     4.953
 HYBRID        -0.210     0.181     0.057     0.283
 SUM           -1.581    -1.786     4.391     4.997


          ATOMIC ORBITAL ELECTRON POPULATIONS

     Atom    s        px        py        pz   
    1  C   1.14244   1.01448   1.02734   1.03280
    2  C   1.10859   0.99763   0.97355   0.99171
    3  C   1.05096   1.04867   1.04088   1.17554
    4  C   1.08720   0.91842   1.03053   0.78871
    5  O   1.84685   1.79463   1.54093   1.36514
    6  C   1.06972   1.00021   1.13889   1.12178
    7  C   1.04486   1.04583   1.12775   1.02696
    8  C   1.11723   0.91616   0.91343   0.92117
    9  N   1.83170   1.10541   1.14921   1.18600
   10  H   0.80996
   11  H   0.81496
   12  H   0.82931
   13  H   0.85694
   14  H   0.66972
   15  H   0.84433
   16  H   0.83400
   17  H   0.81856
   18  H   0.82893

 **********************
 *                    *
 * JOB ENDED NORMALLY *
 *                    *
 **********************



 TOTAL JOB TIME:             0.87 SECONDS

 == MOPAC DONE ==
