 *******************************************************************************
 **                                                                           **
 **                              MOPAC v23.2                                  **
 **                                                                           **
 *******************************************************************************
 **          Digital Object Identifier (DOI): 10.5281/zenodo.6511958          **
 **    Visit the DOI location for information on how to cite this program.    **
 *******************************************************************************

                              PM7 CALCULATION RESULTS

 *******************************************************************************
 *  CALCULATION DONE: (MAX THREADS = 40)             Fri Sep 19 21:31:49 2025  *
 *  PM7        - The PM7 Hamiltonian to be used
 *
 *
 *
 *                 CHARGE ON SYSTEM = +1
 *
 *
 *
 *  1SCF       - DO 1 SCF AND THEN STOP 
 *  T=         - A TIME OF 172800.0 SECONDS REQUESTED
 *  DUMP=N     - RESTART FILE WRITTEN EVERY 7200.0 SECONDS REQUESTED
 *  RELSCF     - DEFAULT SCF CRITERION MULTIPLIED BY 0.0001
 *              (DEFAULT SCF CRITERION = 0.00010)
 *  GRADIENTS  - ALL GRADIENTS TO BE PRINTED
 *  DISP       - PRINT DISPERSION AND HYDROGEN BOND ENERGIES
 *******************************************************************************
PM7 1SCF GRADIENTS DISP RELSCF=0.0001 CHARGE=1
 Title: ASE calculation

   ATOM   CHEMICAL          X               Y               Z
  NUMBER   SYMBOL      (ANGSTROMS)     (ANGSTROMS)     (ANGSTROMS)

     1       N          0.95067981  *   1.87408907  *  -0.27529184  *
     2       C          0.92176408  *   0.61685911  *  -0.21469550  *
     3       N          2.23539583  *  -0.05400321  *  -0.27616308  *
     4       C          2.05839037  *  -1.39736050  *  -0.20111289  *
     5       N          0.74164985  *  -1.73822401  *  -0.09231575  *
     6       C         -0.06072480  *  -0.54641233  *  -0.09116658  *
     7       C         -1.10758835  *  -0.46575512  *   1.07855110  *
     8       C         -2.26889756  *  -0.43832561  *   0.05982091  *
     9       C         -1.26179395  *  -0.56747558  *  -1.10484180  *
    10       H          0.16375795  *   2.50384147  *  -0.24912806  *
    11       H          3.10902828  *   0.46887606  *  -0.36222106  *
    12       H          2.86972623  *  -2.14789196  *  -0.22344803  *
    13       H         -1.00584482  *   0.42272326  *   1.71017438  *
    14       H         -1.09964249  *  -1.35353883  *   1.73201649  *
    15       H         -2.97421630  *  -1.27876685  *   0.14877455  *
    16       H         -2.86876776  *   0.48048510  *   0.05936522  *
    17       H         -1.25551397  *   0.25797026  *  -1.82401798  *
    18       H         -1.33982406  *  -1.51187774  *  -1.66803657  *



          CARTESIAN COORDINATES 

    NO.       ATOM           X           Y           Z

     1         N          0.9507      1.8741     -0.2753
     2         C          0.9218      0.6169     -0.2147
     3         N          2.2354     -0.0540     -0.2762
     4         C          2.0584     -1.3974     -0.2011
     5         N          0.7416     -1.7382     -0.0923
     6         C         -0.0607     -0.5464     -0.0912
     7         C         -1.1076     -0.4658      1.0786
     8         C         -2.2689     -0.4383      0.0598
     9         C         -1.2618     -0.5675     -1.1048
    10         H          0.1638      2.5038     -0.2491
    11         H          3.1090      0.4689     -0.3622
    12         H          2.8697     -2.1479     -0.2234
    13         H         -1.0058      0.4227      1.7102
    14         H         -1.0996     -1.3535      1.7320
    15         H         -2.9742     -1.2788      0.1488
    16         H         -2.8688      0.4805      0.0594
    17         H         -1.2555      0.2580     -1.8240
    18         H         -1.3398     -1.5119     -1.6680

 General Reference for PM7:
 "Optimization of Parameters for Semiempirical Methods VI: More Modifications to the 
 NDDO Approximations and Re-optimization of Parameters", J. J. P. Stewart, J. Mol. Mod., 1:32, 19 (2013)
 https://link.springer.com/article/10.1007/s00894-012-1667-x

           Empirical Formula: C6 H9 N3  =    18 atoms



      MOLECULAR POINT GROUP   :   Cs  


          UHF CALCULATION, NO. OF ALPHA ELECTRONS =   24
                           NO. OF BETA  ELECTRONS =   23
  SCF CRITERION =    0.1000E-07

 -------------------------------------------------------------------------------
 PM7 1SCF GRADIENTS DISP RELSCF=0.0001 CHARGE=1
 Title: ASE calculation



     1SCF WAS SPECIFIED, SO BFGS WAS NOT USED                 
     SCF FIELD WAS ACHIEVED                                   


                              PM7 CALCULATION
                                                       MOPAC v23.2 Linux
                                                       Fri Sep 19 21:31:49 2025




          FINAL HEAT OF FORMATION =        253.22879 KCAL/MOL =    1059.50924 KJ/MOL

          TOTAL ENERGY            =     -32451.82832 KCAL/MOL = ELECTRONIC ENERGY + CORE-CORE REPULSION
          ENERGY OF ATOMS         =      32707.06941 KCAL/MOL
                              SUM =        255.24110 KCAL/MOL
          DISPERSION ENERGY       =         -2.01231 KCAL/MOL
                              SUM =        253.22879 KCAL/MOL = FINAL HEAT OF FORMATION



          TOTAL ENERGY            =      -1407.24447 EV
          ELECTRONIC ENERGY       =      -6997.20617 EV 
          CORE-CORE REPULSION     =       5589.96170 EV
          COSMO AREA              =        158.79 SQUARE ANGSTROMS
          COSMO VOLUME            =        157.82 CUBIC ANGSTROMS

          GRADIENT NORM           =          0.74224          =       0.17495 PER ATOM
          IONIZATION POTENTIAL    =         15.281998 EV
          ALPHA SOMO LUMO (EV)    =        -15.516 -5.755
          BETA  SOMO LUMO (EV)    =        -15.282 -7.903
          NO. OF ALPHA ELECTRONS  =         24
          NO. OF BETA  ELECTRONS  =         23
          MOLECULAR WEIGHT        =        123.1572         POINT GROUP:  Cs  

          MOLECULAR DIMENSIONS (Angstroms)

            Atom       Atom       Distance
            H    15    H    11     6.34990
            H    12    H    10     5.21972
            H    17    H    13     3.54683


          SCF CALCULATIONS        =          1

          WALL-CLOCK TIME         =      0.852 SECONDS
          COMPUTATION TIME        =      0.665 SECONDS

          LARGEST ATOMIC GRADIENTS

          Atom     Label                     Cartesian Gradients           Cartesian Coordinates       |Gradient|
                                           X          Y          Z        X          Y          Z

             5       N                   0.316      0.104     -0.027    0.74165   -1.73822   -0.09232      0.333
             3       N                  -0.238      0.130      0.010    2.23540   -0.05400   -0.27616      0.272
             1       N                   0.258      0.023     -0.020    0.95068    1.87409   -0.27529      0.260
             4       C                   0.069      0.238     -0.017    2.05839   -1.39736   -0.20111      0.248
            11       H                  -0.109     -0.217      0.017    3.10903    0.46888   -0.36222      0.243
            10       H                   0.008     -0.229      0.009    0.16376    2.50384   -0.24913      0.229
            12       H                   0.058     -0.178      0.005    2.86973   -2.14789   -0.22345      0.187
             2       C                  -0.160      0.090      0.007    0.92176    0.61686   -0.21470      0.183
            16       H                  -0.121      0.006      0.008   -2.86877    0.48049    0.05937      0.121
             6       C                  -0.069     -0.064      0.008   -0.06072   -0.54641   -0.09117      0.094



       FINAL  POINT  AND  DERIVATIVES

   PARAMETER     ATOM    TYPE            VALUE        GRADIENT
      1          1  N    CARTESIAN X     0.950680      0.258343  KCAL/ANGSTROM
      2          1  N    CARTESIAN Y     1.874089      0.023333  KCAL/ANGSTROM
      3          1  N    CARTESIAN Z    -0.275292     -0.020385  KCAL/ANGSTROM
      4          2  C    CARTESIAN X     0.921764     -0.159682  KCAL/ANGSTROM
      5          2  C    CARTESIAN Y     0.616859      0.089960  KCAL/ANGSTROM
      6          2  C    CARTESIAN Z    -0.214695      0.007084  KCAL/ANGSTROM
      7          3  N    CARTESIAN X     2.235396     -0.238285  KCAL/ANGSTROM
      8          3  N    CARTESIAN Y    -0.054003      0.130412  KCAL/ANGSTROM
      9          3  N    CARTESIAN Z    -0.276163      0.010372  KCAL/ANGSTROM
     10          4  C    CARTESIAN X     2.058390      0.068855  KCAL/ANGSTROM
     11          4  C    CARTESIAN Y    -1.397360      0.238073  KCAL/ANGSTROM
     12          4  C    CARTESIAN Z    -0.201113     -0.016614  KCAL/ANGSTROM
     13          5  N    CARTESIAN X     0.741650      0.315574  KCAL/ANGSTROM
     14          5  N    CARTESIAN Y    -1.738224      0.104110  KCAL/ANGSTROM
     15          5  N    CARTESIAN Z    -0.092316     -0.027006  KCAL/ANGSTROM
     16          6  C    CARTESIAN X    -0.060725     -0.068824  KCAL/ANGSTROM
     17          6  C    CARTESIAN Y    -0.546412     -0.064009  KCAL/ANGSTROM
     18          6  C    CARTESIAN Z    -0.091167      0.008227  KCAL/ANGSTROM
     19          7  C    CARTESIAN X    -1.107588     -0.054601  KCAL/ANGSTROM
     20          7  C    CARTESIAN Y    -0.465755      0.012918  KCAL/ANGSTROM
     21          7  C    CARTESIAN Z     1.078551      0.042339  KCAL/ANGSTROM
     22          8  C    CARTESIAN X    -2.268898     -0.086280  KCAL/ANGSTROM
     23          8  C    CARTESIAN Y    -0.438326      0.007290  KCAL/ANGSTROM
     24          8  C    CARTESIAN Z     0.059821      0.006585  KCAL/ANGSTROM
     25          9  C    CARTESIAN X    -1.261794     -0.061221  KCAL/ANGSTROM
     26          9  C    CARTESIAN Y    -0.567476      0.008792  KCAL/ANGSTROM
     27          9  C    CARTESIAN Z    -1.104842     -0.034471  KCAL/ANGSTROM
     28         10  H    CARTESIAN X     0.163758      0.008021  KCAL/ANGSTROM
     29         10  H    CARTESIAN Y     2.503841     -0.229076  KCAL/ANGSTROM
     30         10  H    CARTESIAN Z    -0.249128      0.009320  KCAL/ANGSTROM
     31         11  H    CARTESIAN X     3.109028     -0.108814  KCAL/ANGSTROM
     32         11  H    CARTESIAN Y     0.468876     -0.216931  KCAL/ANGSTROM
     33         11  H    CARTESIAN Z    -0.362221      0.017427  KCAL/ANGSTROM
     34         12  H    CARTESIAN X     2.869726      0.057964  KCAL/ANGSTROM
     35         12  H    CARTESIAN Y    -2.147892     -0.177530  KCAL/ANGSTROM
     36         12  H    CARTESIAN Z    -0.223448      0.004575  KCAL/ANGSTROM
     37         13  H    CARTESIAN X    -1.005845      0.061156  KCAL/ANGSTROM
     38         13  H    CARTESIAN Y     0.422723      0.040278  KCAL/ANGSTROM
     39         13  H    CARTESIAN Z     1.710174      0.020674  KCAL/ANGSTROM
     40         14  H    CARTESIAN X    -1.099642      0.034365  KCAL/ANGSTROM
     41         14  H    CARTESIAN Y    -1.353539     -0.013818  KCAL/ANGSTROM
     42         14  H    CARTESIAN Z     1.732016     -0.017148  KCAL/ANGSTROM
     43         15  H    CARTESIAN X    -2.974216      0.002095  KCAL/ANGSTROM
     44         15  H    CARTESIAN Y    -1.278767      0.016444  KCAL/ANGSTROM
     45         15  H    CARTESIAN Z     0.148775     -0.000472  KCAL/ANGSTROM
     46         16  H    CARTESIAN X    -2.868768     -0.121010  KCAL/ANGSTROM
     47         16  H    CARTESIAN Y     0.480485      0.005687  KCAL/ANGSTROM
     48         16  H    CARTESIAN Z     0.059365      0.008438  KCAL/ANGSTROM
     49         17  H    CARTESIAN X    -1.255514      0.056461  KCAL/ANGSTROM
     50         17  H    CARTESIAN Y     0.257970      0.036782  KCAL/ANGSTROM
     51         17  H    CARTESIAN Z    -1.824018     -0.032552  KCAL/ANGSTROM
     52         18  H    CARTESIAN X    -1.339824      0.035882  KCAL/ANGSTROM
     53         18  H    CARTESIAN Y    -1.511878     -0.012720  KCAL/ANGSTROM
     54         18  H    CARTESIAN Z    -1.668037      0.013604  KCAL/ANGSTROM




   ATOM   CHEMICAL          X               Y               Z
  NUMBER   SYMBOL      (ANGSTROMS)     (ANGSTROMS)     (ANGSTROMS)

     1       N          0.95067981  *   1.87408907  *  -0.27529184  *
     2       C          0.92176408  *   0.61685911  *  -0.21469550  *
     3       N          2.23539583  *  -0.05400321  *  -0.27616308  *
     4       C          2.05839037  *  -1.39736050  *  -0.20111289  *
     5       N          0.74164985  *  -1.73822401  *  -0.09231575  *
     6       C         -0.06072480  *  -0.54641233  *  -0.09116658  *
     7       C         -1.10758835  *  -0.46575512  *   1.07855110  *
     8       C         -2.26889756  *  -0.43832561  *   0.05982091  *
     9       C         -1.26179395  *  -0.56747558  *  -1.10484180  *
    10       H          0.16375795  *   2.50384147  *  -0.24912806  *
    11       H          3.10902828  *   0.46887606  *  -0.36222106  *
    12       H          2.86972623  *  -2.14789196  *  -0.22344803  *
    13       H         -1.00584482  *   0.42272326  *   1.71017438  *
    14       H         -1.09964249  *  -1.35353883  *   1.73201649  *
    15       H         -2.97421630  *  -1.27876685  *   0.14877455  *
    16       H         -2.86876776  *   0.48048510  *   0.05936522  *
    17       H         -1.25551397  *   0.25797026  *  -1.82401798  *
    18       H         -1.33982406  *  -1.51187774  *  -1.66803657  *

                             CARTESIAN COORDINATES

   1    N        0.950679807     1.874089070    -0.275291839
   2    C        0.921764081     0.616859109    -0.214695498
   3    N        2.235395831    -0.054003207    -0.276163075
   4    C        2.058390372    -1.397360496    -0.201112885
   5    N        0.741649850    -1.738224007    -0.092315751
   6    C       -0.060724798    -0.546412335    -0.091166579
   7    C       -1.107588355    -0.465755121     1.078551098
   8    C       -2.268897555    -0.438325605     0.059820907
   9    C       -1.261793950    -0.567475577    -1.104841795
  10    H        0.163757951     2.503841468    -0.249128060
  11    H        3.109028276     0.468876058    -0.362221064
  12    H        2.869726230    -2.147891955    -0.223448032
  13    H       -1.005844821     0.422723257     1.710174376
  14    H       -1.099642492    -1.353538827     1.732016493
  15    H       -2.974216303    -1.278766847     0.148774552
  16    H       -2.868767761     0.480485100     0.059365219
  17    H       -1.255513972     0.257970264    -1.824017982
  18    H       -1.339824055    -1.511877745    -1.668036568


           Empirical Formula: C6 H9 N3  =    18 atoms



      MOLECULAR POINT GROUP   :   Cs  


          ALPHA EIGENVALUES  
 -44.70635 -41.00347 -39.46904 -34.59321 -29.77796 -27.72503 -27.62162 -26.48388
 -24.58443 -22.84201 -22.48825 -21.61056 -21.10724 -20.63724 -19.55505 -18.84336
 -18.32825 -17.86749 -17.68553 -16.70199 -16.62104 -16.07775 -15.68822 -15.51574
  -5.75478  -4.71621  -4.38964  -2.99922  -2.56197  -2.27285  -1.80193  -1.52275
  -1.32293  -0.86816  -0.81279  -0.47330   0.17647   0.50631   1.08979   1.30039
   1.61882   1.90554   1.98642   2.07452   2.58425


           BETA EIGENVALUES 
 -43.81128 -40.42185 -38.31028 -34.41910 -29.69438 -27.66299 -27.23527 -26.33036
 -24.47395 -22.77624 -22.32652 -20.97861 -20.66134 -20.59496 -19.47255 -17.99309
 -17.84975 -17.28586 -17.09495 -16.59233 -16.14720 -15.97453 -15.28200  -7.90290
  -4.94773  -4.09801  -4.04888  -2.90400  -2.35634  -2.07566  -1.63038  -1.46460
  -1.21210  -0.79600  -0.76580  -0.31992   0.35112   0.52959   1.10006   1.31676
   1.69424   1.90988   1.98885   2.07877   2.58410


              NET ATOMIC CHARGES AND DIPOLE CONTRIBUTIONS

  ATOM NO.   TYPE          CHARGE      No. of ELECS.   s-Pop       p-Pop       
    1          N          -0.368899        5.3689     1.69047     3.67843
    2          C           0.241936        3.7581     1.09384     2.66423
    3          N          -0.218158        5.2182     1.55821     3.65994
    4          C           0.203780        3.7962     1.13986     2.65636
    5          N          -0.181738        5.1817     1.78600     3.39574
    6          C          -0.005805        4.0058     1.09466     2.91115
    7          C          -0.220199        4.2202     1.08010     3.14010
    8          C          -0.263381        4.2634     1.06858     3.19480
    9          C          -0.220236        4.2202     1.08008     3.14016
   10          H           0.340522        0.6595     0.65948
   11          H           0.366597        0.6334     0.63340
   12          H           0.257650        0.7424     0.74235
   13          H           0.166648        0.8334     0.83335
   14          H           0.190471        0.8095     0.80953
   15          H           0.183241        0.8168     0.81676
   16          H           0.170455        0.8295     0.82955
   17          H           0.166649        0.8334     0.83335
   18          H           0.190469        0.8095     0.80953
 DIPOLE           X         Y         Z       TOTAL
 POINT-CHG.     2.908     0.070    -0.209     2.916
 HYBRID         0.725     0.979    -0.097     1.222
 SUM            3.633     1.049    -0.305     3.793


          ATOMIC ORBITAL ELECTRON POPULATIONS

     Atom    s        px        py        pz   
    1  N   1.69047   1.50188   1.11557   1.06099
    2  C   1.09384   0.81834   0.90518   0.94071
    3  N   1.55821   1.21738   1.15399   1.28857
    4  C   1.13986   0.97983   0.83808   0.83845
    5  N   1.78600   1.06964   1.33775   0.98836
    6  C   1.09466   0.95275   0.83970   1.11869
    7  C   1.08010   0.94838   1.19817   0.99354
    8  C   1.06858   1.02713   1.20797   0.95970
    9  C   1.08008   0.92231   1.20121   1.01664
   10  H   0.65948
   11  H   0.63340
   12  H   0.74235
   13  H   0.83335
   14  H   0.80953
   15  H   0.81676
   16  H   0.82955
   17  H   0.83335
   18  H   0.80953


                    (SZ)    =    0.500000
                    (S**2)  =    0.864860


          ATOMIC ORBITAL SPIN POPULATIONS

    Atom   Total    s     px     py     pz   
         Atomic
    1  N  0.2570  0.006  0.006  0.012  0.234
    2  C -0.1944 -0.010 -0.024 -0.011 -0.150
    3  N  0.5436  0.024  0.030  0.030  0.460
    4  C -0.3062 -0.015 -0.029 -0.025 -0.237
    5  N  0.6780  0.011  0.038  0.025  0.604
    6  C -0.0445 -0.008 -0.016 -0.017 -0.003
    7  C  0.0498  0.006  0.020  0.002  0.022
    8  C -0.0051 -0.001 -0.001 -0.000 -0.003
    9  C  0.0498  0.006  0.025  0.002  0.017
   10  H -0.0123 -0.012
   11  H -0.0213 -0.021
   12  H  0.0068  0.007
   13  H  0.0009  0.001
   14  H -0.0017 -0.002
   15  H  0.0002  0.000
   16  H  0.0002  0.000
   17  H  0.0009  0.001
   18  H -0.0017 -0.002

 **********************
 *                    *
 * JOB ENDED NORMALLY *
 *                    *
 **********************



 TOTAL JOB TIME:             1.26 SECONDS

 == MOPAC DONE ==
