 *******************************************************************************
 **                                                                           **
 **                              MOPAC v23.2                                  **
 **                                                                           **
 *******************************************************************************
 **          Digital Object Identifier (DOI): 10.5281/zenodo.6511958          **
 **    Visit the DOI location for information on how to cite this program.    **
 *******************************************************************************

                              PM7 CALCULATION RESULTS

 *******************************************************************************
 *  CALCULATION DONE: (MAX THREADS = 40)             Fri Sep 19 22:01:10 2025  *
 *  PM7        - The PM7 Hamiltonian to be used
 *  1SCF       - DO 1 SCF AND THEN STOP 
 *  T=         - A TIME OF 172800.0 SECONDS REQUESTED
 *  DUMP=N     - RESTART FILE WRITTEN EVERY 7200.0 SECONDS REQUESTED
 *  RELSCF     - DEFAULT SCF CRITERION MULTIPLIED BY 0.0001
 *              (DEFAULT SCF CRITERION = 0.00010)
 *  GRADIENTS  - ALL GRADIENTS TO BE PRINTED
 *  DISP       - PRINT DISPERSION AND HYDROGEN BOND ENERGIES
 *******************************************************************************
PM7 1SCF GRADIENTS DISP RELSCF=0.0001
 Title: ASE calculation

   ATOM   CHEMICAL          X               Y               Z
  NUMBER   SYMBOL      (ANGSTROMS)     (ANGSTROMS)     (ANGSTROMS)

     1       C          2.11515124  *  -1.68299770  *   0.67151973  *
     2       O          1.57255934  *  -0.48880302  *   1.23385258  *
     3       C          0.66373186  *   0.10429364  *   0.43719196  *
     4       C          0.09854981  *   1.54818811  *   0.74666628  *
     5       C         -0.67782989  *   1.09594581  *  -0.56056661  *
     6       C          0.71542829  *   0.59047344  *  -1.05659221  *
     7       O          1.39317221  *   0.58037252  *  -2.02080768  *
     8       C         -0.83513330  *  -0.35923246  *   0.07922094  *
     9       C         -1.81714379  *  -0.56640591  *   1.19538659  *
    10       H          1.32962872  *  -2.42095032  *   0.48811464  *
    11       H          2.66568488  *  -1.45615497  *  -0.24827370  *
    12       H          2.79684895  *  -2.02842716  *   1.45812322  *
    13       H          0.78595549  *   2.38627632  *   0.66191009  *
    14       H         -0.48582092  *   1.65999105  *   1.65465825  *
    15       H         -1.41699721  *   1.64238961  *  -1.08539264  *
    16       H         -0.90247483  *  -1.17381023  *  -0.65496443  *
    17       H         -1.81068331  *   0.23916991  *   1.94064345  *
    18       H         -2.84323719  *  -0.63750698  *   0.80976752  *
    19       H         -1.60218455  *  -1.49697785  *   1.73972081  *



          CARTESIAN COORDINATES 

    NO.       ATOM           X           Y           Z

     1         C          2.1152     -1.6830      0.6715
     2         O          1.5726     -0.4888      1.2339
     3         C          0.6637      0.1043      0.4372
     4         C          0.0985      1.5482      0.7467
     5         C         -0.6778      1.0959     -0.5606
     6         C          0.7154      0.5905     -1.0566
     7         O          1.3932      0.5804     -2.0208
     8         C         -0.8351     -0.3592      0.0792
     9         C         -1.8171     -0.5664      1.1954
    10         H          1.3296     -2.4210      0.4881
    11         H          2.6657     -1.4562     -0.2483
    12         H          2.7968     -2.0284      1.4581
    13         H          0.7860      2.3863      0.6619
    14         H         -0.4858      1.6600      1.6547
    15         H         -1.4170      1.6424     -1.0854
    16         H         -0.9025     -1.1738     -0.6550
    17         H         -1.8107      0.2392      1.9406
    18         H         -2.8432     -0.6375      0.8098
    19         H         -1.6022     -1.4970      1.7397

 General Reference for PM7:
 "Optimization of Parameters for Semiempirical Methods VI: More Modifications to the 
 NDDO Approximations and Re-optimization of Parameters", J. J. P. Stewart, J. Mol. Mod., 1:32, 19 (2013)
 https://link.springer.com/article/10.1007/s00894-012-1667-x

           Empirical Formula: C7 H10 O2  =    19 atoms



      MOLECULAR POINT GROUP   :   C1  


      RHF CALCULATION, NO. OF DOUBLY OCCUPIED LEVELS = 25

  SCF CRITERION =    0.1000E-07

 -------------------------------------------------------------------------------
 PM7 1SCF GRADIENTS DISP RELSCF=0.0001
 Title: ASE calculation



     1SCF WAS SPECIFIED, SO BFGS WAS NOT USED                 
     SCF FIELD WAS ACHIEVED                                   


                              PM7 CALCULATION
                                                       MOPAC v23.2 Linux
                                                       Fri Sep 19 22:01:11 2025




          FINAL HEAT OF FORMATION =          2.91070 KCAL/MOL =      12.17837 KJ/MOL

          TOTAL ENERGY            =     -36477.77005 KCAL/MOL = ELECTRONIC ENERGY + CORE-CORE REPULSION
          ENERGY OF ATOMS         =      36482.50324 KCAL/MOL
                              SUM =          4.73318 KCAL/MOL
          DISPERSION ENERGY       =         -1.82248 KCAL/MOL
                              SUM =          2.91070 KCAL/MOL = FINAL HEAT OF FORMATION



          TOTAL ENERGY            =      -1581.82582 EV
          ELECTRONIC ENERGY       =      -7617.00482 EV 
          CORE-CORE REPULSION     =       6035.17899 EV
          COSMO AREA              =        161.47 SQUARE ANGSTROMS
          COSMO VOLUME            =        161.15 CUBIC ANGSTROMS

          GRADIENT NORM           =          0.99063          =       0.22727 PER ATOM
          IONIZATION POTENTIAL    =          9.533275 EV
          HOMO LUMO ENERGIES (EV) =         -9.533  0.761
          NO. OF FILLED LEVELS    =         25
          MOLECULAR WEIGHT        =        126.1548         POINT GROUP:  C1  

          MOLECULAR DIMENSIONS (Angstroms)

            Atom       Atom       Distance
            H    15    H    12     6.14010
            H    19    O     7     5.18416
            H    16    H    13     3.89336


          SCF CALCULATIONS        =          1

          WALL-CLOCK TIME         =      0.516 SECONDS
          COMPUTATION TIME        =      0.533 SECONDS

          LARGEST ATOMIC GRADIENTS

          Atom     Label                     Cartesian Gradients           Cartesian Coordinates       |Gradient|
                                           X          Y          Z        X          Y          Z

             5       C                  -0.270     -0.291      0.186   -0.67783    1.09595   -0.56057      0.438
             6       C                   0.301      0.078      0.063    0.71543    0.59047   -1.05659      0.317
            18       H                   0.300     -0.031     -0.008   -2.84324   -0.63751    0.80977      0.302
            13       H                   0.010      0.271      0.104    0.78596    2.38628    0.66191      0.290
            14       H                  -0.130     -0.197     -0.142   -0.48582    1.65999    1.65466      0.276
             3       C                  -0.140      0.066      0.214    0.66373    0.10429    0.43719      0.264
            10       H                   0.107     -0.032     -0.228    1.32963   -2.42095    0.48811      0.254
             4       C                  -0.055      0.204      0.051    0.09855    1.54819    0.74667      0.217
            19       H                  -0.124      0.170     -0.009   -1.60218   -1.49698    1.73972      0.210
             7       O                  -0.001     -0.184      0.079    1.39317    0.58037   -2.02081      0.200



       FINAL  POINT  AND  DERIVATIVES

   PARAMETER     ATOM    TYPE            VALUE        GRADIENT
      1          1  C    CARTESIAN X     2.115151     -0.081804  KCAL/ANGSTROM
      2          1  C    CARTESIAN Y    -1.682998     -0.046347  KCAL/ANGSTROM
      3          1  C    CARTESIAN Z     0.671520     -0.146126  KCAL/ANGSTROM
      4          2  O    CARTESIAN X     1.572559      0.032248  KCAL/ANGSTROM
      5          2  O    CARTESIAN Y    -0.488803      0.003414  KCAL/ANGSTROM
      6          2  O    CARTESIAN Z     1.233853     -0.080510  KCAL/ANGSTROM
      7          3  C    CARTESIAN X     0.663732     -0.139538  KCAL/ANGSTROM
      8          3  C    CARTESIAN Y     0.104294      0.065872  KCAL/ANGSTROM
      9          3  C    CARTESIAN Z     0.437192      0.213637  KCAL/ANGSTROM
     10          4  C    CARTESIAN X     0.098550     -0.054535  KCAL/ANGSTROM
     11          4  C    CARTESIAN Y     1.548188      0.203741  KCAL/ANGSTROM
     12          4  C    CARTESIAN Z     0.746666      0.051099  KCAL/ANGSTROM
     13          5  C    CARTESIAN X    -0.677830     -0.269626  KCAL/ANGSTROM
     14          5  C    CARTESIAN Y     1.095946     -0.291185  KCAL/ANGSTROM
     15          5  C    CARTESIAN Z    -0.560567      0.186077  KCAL/ANGSTROM
     16          6  C    CARTESIAN X     0.715428      0.300796  KCAL/ANGSTROM
     17          6  C    CARTESIAN Y     0.590473      0.077911  KCAL/ANGSTROM
     18          6  C    CARTESIAN Z    -1.056592      0.062694  KCAL/ANGSTROM
     19          7  O    CARTESIAN X     1.393172     -0.001035  KCAL/ANGSTROM
     20          7  O    CARTESIAN Y     0.580373     -0.183535  KCAL/ANGSTROM
     21          7  O    CARTESIAN Z    -2.020808      0.078902  KCAL/ANGSTROM
     22          8  C    CARTESIAN X    -0.835133     -0.066193  KCAL/ANGSTROM
     23          8  C    CARTESIAN Y    -0.359232     -0.052539  KCAL/ANGSTROM
     24          8  C    CARTESIAN Z     0.079221      0.003265  KCAL/ANGSTROM
     25          9  C    CARTESIAN X    -1.817144      0.087992  KCAL/ANGSTROM
     26          9  C    CARTESIAN Y    -0.566406      0.091821  KCAL/ANGSTROM
     27          9  C    CARTESIAN Z     1.195387      0.077377  KCAL/ANGSTROM
     28         10  H    CARTESIAN X     1.329629      0.107364  KCAL/ANGSTROM
     29         10  H    CARTESIAN Y    -2.420950     -0.032285  KCAL/ANGSTROM
     30         10  H    CARTESIAN Z     0.488115     -0.227678  KCAL/ANGSTROM
     31         11  H    CARTESIAN X     2.665685     -0.000523  KCAL/ANGSTROM
     32         11  H    CARTESIAN Y    -1.456155     -0.101075  KCAL/ANGSTROM
     33         11  H    CARTESIAN Z    -0.248274      0.008049  KCAL/ANGSTROM
     34         12  H    CARTESIAN X     2.796849     -0.161393  KCAL/ANGSTROM
     35         12  H    CARTESIAN Y    -2.028427      0.011014  KCAL/ANGSTROM
     36         12  H    CARTESIAN Z     1.458123      0.007359  KCAL/ANGSTROM
     37         13  H    CARTESIAN X     0.785955      0.009792  KCAL/ANGSTROM
     38         13  H    CARTESIAN Y     2.386276      0.270556  KCAL/ANGSTROM
     39         13  H    CARTESIAN Z     0.661910      0.104115  KCAL/ANGSTROM
     40         14  H    CARTESIAN X    -0.485821     -0.129952  KCAL/ANGSTROM
     41         14  H    CARTESIAN Y     1.659991     -0.197069  KCAL/ANGSTROM
     42         14  H    CARTESIAN Z     1.654658     -0.142294  KCAL/ANGSTROM
     43         15  H    CARTESIAN X    -1.416997     -0.028165  KCAL/ANGSTROM
     44         15  H    CARTESIAN Y     1.642390      0.061151  KCAL/ANGSTROM
     45         15  H    CARTESIAN Z    -1.085393     -0.175409  KCAL/ANGSTROM
     46         16  H    CARTESIAN X    -0.902475      0.078325  KCAL/ANGSTROM
     47         16  H    CARTESIAN Y    -1.173810     -0.069194  KCAL/ANGSTROM
     48         16  H    CARTESIAN Z    -0.654964     -0.018247  KCAL/ANGSTROM
     49         17  H    CARTESIAN X    -1.810683      0.139810  KCAL/ANGSTROM
     50         17  H    CARTESIAN Y     0.239170      0.049007  KCAL/ANGSTROM
     51         17  H    CARTESIAN Z     1.940643      0.015436  KCAL/ANGSTROM
     52         18  H    CARTESIAN X    -2.843237      0.300339  KCAL/ANGSTROM
     53         18  H    CARTESIAN Y    -0.637507     -0.031015  KCAL/ANGSTROM
     54         18  H    CARTESIAN Z     0.809768     -0.008318  KCAL/ANGSTROM
     55         19  H    CARTESIAN X    -1.602185     -0.123905  KCAL/ANGSTROM
     56         19  H    CARTESIAN Y    -1.496978      0.169754  KCAL/ANGSTROM
     57         19  H    CARTESIAN Z     1.739721     -0.009432  KCAL/ANGSTROM




   ATOM   CHEMICAL          X               Y               Z
  NUMBER   SYMBOL      (ANGSTROMS)     (ANGSTROMS)     (ANGSTROMS)

     1       C          2.11515124  *  -1.68299770  *   0.67151973  *
     2       O          1.57255934  *  -0.48880302  *   1.23385258  *
     3       C          0.66373186  *   0.10429364  *   0.43719196  *
     4       C          0.09854981  *   1.54818811  *   0.74666628  *
     5       C         -0.67782989  *   1.09594581  *  -0.56056661  *
     6       C          0.71542829  *   0.59047344  *  -1.05659221  *
     7       O          1.39317221  *   0.58037252  *  -2.02080768  *
     8       C         -0.83513330  *  -0.35923246  *   0.07922094  *
     9       C         -1.81714379  *  -0.56640591  *   1.19538659  *
    10       H          1.32962872  *  -2.42095032  *   0.48811464  *
    11       H          2.66568488  *  -1.45615497  *  -0.24827370  *
    12       H          2.79684895  *  -2.02842716  *   1.45812322  *
    13       H          0.78595549  *   2.38627632  *   0.66191009  *
    14       H         -0.48582092  *   1.65999105  *   1.65465825  *
    15       H         -1.41699721  *   1.64238961  *  -1.08539264  *
    16       H         -0.90247483  *  -1.17381023  *  -0.65496443  *
    17       H         -1.81068331  *   0.23916991  *   1.94064345  *
    18       H         -2.84323719  *  -0.63750698  *   0.80976752  *
    19       H         -1.60218455  *  -1.49697785  *   1.73972081  *

                             CARTESIAN COORDINATES

   1    C        2.115151240    -1.682997702     0.671519726
   2    O        1.572559342    -0.488803024     1.233852580
   3    C        0.663731862     0.104293638     0.437191961
   4    C        0.098549815     1.548188114     0.746666285
   5    C       -0.677829890     1.095945807    -0.560566610
   6    C        0.715428288     0.590473443    -1.056592211
   7    O        1.393172211     0.580372521    -2.020807680
   8    C       -0.835133303    -0.359232462     0.079220939
   9    C       -1.817143787    -0.566405909     1.195386592
  10    H        1.329628719    -2.420950320     0.488114637
  11    H        2.665684876    -1.456154975    -0.248273704
  12    H        2.796848946    -2.028427161     1.458123223
  13    H        0.785955495     2.386276323     0.661910094
  14    H       -0.485820923     1.659991046     1.654658252
  15    H       -1.416997210     1.642389613    -1.085392637
  16    H       -0.902474828    -1.173810229    -0.654964432
  17    H       -1.810683314     0.239169906     1.940643454
  18    H       -2.843237192    -0.637506984     0.809767521
  19    H       -1.602184547    -1.496977847     1.739720812


           Empirical Formula: C7 H10 O2  =    19 atoms



      MOLECULAR POINT GROUP   :   C1  


                  EIGENVALUES  
 -33.07142 -31.45687 -30.30865 -26.19539 -24.82561 -22.96333 -21.41754 -20.17560
 -18.22746 -17.39111 -16.31700 -16.02419 -15.77429 -15.09592 -14.72905 -14.48998
 -13.48185 -13.40888 -13.31036 -12.48008 -12.23144 -11.83551 -11.74009 -10.70351
  -9.53327   0.76067   1.79466   2.15439   2.37135   2.64465   2.92442   3.09343
   3.98284   4.28078   4.54726   5.23011   5.25877   5.35689   5.43773   5.52830
   5.55480   5.73166   5.95477   6.00927   6.12954   6.72547


              NET ATOMIC CHARGES AND DIPOLE CONTRIBUTIONS

  ATOM NO.   TYPE          CHARGE      No. of ELECS.   s-Pop       p-Pop       
    1          C          -0.203341        4.2033     1.08727     3.11608
    2          O          -0.312728        6.3127     1.86561     4.44712
    3          C           0.113126        3.8869     1.13304     2.75383
    4          C          -0.298470        4.2985     1.08536     3.21311
    5          C          -0.239219        4.2392     1.11417     3.12505
    6          C           0.399951        3.6000     1.17441     2.42564
    7          O          -0.381490        6.3815     1.86743     4.51406
    8          C          -0.151612        4.1516     1.08804     3.06357
    9          C          -0.437322        4.4373     1.04761     3.38972
   10          H           0.129177        0.8708     0.87082
   11          H           0.141884        0.8581     0.85812
   12          H           0.151394        0.8486     0.84861
   13          H           0.154943        0.8451     0.84506
   14          H           0.162676        0.8373     0.83732
   15          H           0.168515        0.8315     0.83149
   16          H           0.142290        0.8577     0.85771
   17          H           0.153751        0.8462     0.84625
   18          H           0.152076        0.8479     0.84792
   19          H           0.154400        0.8456     0.84560
 DIPOLE           X         Y         Z       TOTAL
 POINT-CHG.    -1.668    -1.290     1.375     2.518
 HYBRID         0.068     0.138     0.067     0.168
 SUM           -1.600    -1.153     1.442     2.443


          ATOMIC ORBITAL ELECTRON POPULATIONS

     Atom    s        px        py        pz   
    1  C   1.08727   1.08778   0.90529   1.12300
    2  O   1.86561   1.58595   1.42846   1.43271
    3  C   1.13304   0.88457   0.92807   0.94120
    4  C   1.08536   1.10155   1.04288   1.06868
    5  C   1.11417   1.06467   1.03085   1.02953
    6  C   1.17441   0.84473   0.72108   0.85983
    7  O   1.86743   1.57272   1.52903   1.41232
    8  C   1.08804   1.00535   1.01176   1.04646
    9  C   1.04761   1.10982   1.18295   1.09694
   10  H   0.87082
   11  H   0.85812
   12  H   0.84861
   13  H   0.84506
   14  H   0.83732
   15  H   0.83149
   16  H   0.85771
   17  H   0.84625
   18  H   0.84792
   19  H   0.84560

 **********************
 *                    *
 * JOB ENDED NORMALLY *
 *                    *
 **********************



 TOTAL JOB TIME:             0.91 SECONDS

 == MOPAC DONE ==
