 *******************************************************************************
 **                                                                           **
 **                              MOPAC v23.2                                  **
 **                                                                           **
 *******************************************************************************
 **          Digital Object Identifier (DOI): 10.5281/zenodo.6511958          **
 **    Visit the DOI location for information on how to cite this program.    **
 *******************************************************************************

                              PM7 CALCULATION RESULTS

 *******************************************************************************
 *  CALCULATION DONE: (MAX THREADS = 40)             Fri Sep 19 21:33:14 2025  *
 *  PM7        - The PM7 Hamiltonian to be used
 *  EPS=37.5   - USE ANDREAS KLAMT'S COSMO IMPLICIT SOLVATION MODEL
 *  1SCF       - DO 1 SCF AND THEN STOP 
 *  T=         - A TIME OF 172800.0 SECONDS REQUESTED
 *  DUMP=N     - RESTART FILE WRITTEN EVERY 7200.0 SECONDS REQUESTED
 *  RELSCF     - DEFAULT SCF CRITERION MULTIPLIED BY 0.0001
 *              (DEFAULT SCF CRITERION = 0.00010)
 *  GRADIENTS  - ALL GRADIENTS TO BE PRINTED
 *  DISP       - PRINT DISPERSION AND HYDROGEN BOND ENERGIES
 *******************************************************************************
PM7 1SCF GRADIENTS EPS=37.5 DISP RELSCF=0.0001
 Title: ASE calculation

   ATOM   CHEMICAL          X               Y               Z
  NUMBER   SYMBOL      (ANGSTROMS)     (ANGSTROMS)     (ANGSTROMS)

     1       C          1.65759455  *   1.12559956  *   0.35251216  *
     2       N          1.93645702  *   0.04151403  *   0.96421811  *
     3       C          1.15522700  *  -1.19334619  *   0.83152337  *
     4       C          0.34646974  *  -1.07247028  *  -0.45123844  *
     5       O         -0.97346504  *  -1.66338265  *  -0.67961925  *
     6       C         -1.57379984  *  -0.35775571  *  -0.90335061  *
     7       C         -1.55809994  *   0.38896896  *   0.40679679  *
     8       C         -0.28792296  *   0.33105858  *  -0.42058572  *
     9       O          0.59032728  *   1.37882712  *  -0.52231353  *
    10       H          2.24211655  *   2.04539060  *   0.40820308  *
    11       H          1.87202003  *  -2.04539060  *   0.81545034  *
    12       H          0.51685444  *  -1.33715179  *   1.73090891  *
    13       H          0.93879253  *  -1.30515887  *  -1.35381368  *
    14       H         -2.24211655  *  -0.30223416  *  -1.73090891  *
    15       H         -1.65015651  *  -0.14546542  *   1.34903143  *
    16       H         -2.06313368  *   1.35139126  *   0.47421405  *



          CARTESIAN COORDINATES 

    NO.       ATOM           X           Y           Z

     1         C          1.6576      1.1256      0.3525
     2         N          1.9365      0.0415      0.9642
     3         C          1.1552     -1.1933      0.8315
     4         C          0.3465     -1.0725     -0.4512
     5         O         -0.9735     -1.6634     -0.6796
     6         C         -1.5738     -0.3578     -0.9034
     7         C         -1.5581      0.3890      0.4068
     8         C         -0.2879      0.3311     -0.4206
     9         O          0.5903      1.3788     -0.5223
    10         H          2.2421      2.0454      0.4082
    11         H          1.8720     -2.0454      0.8155
    12         H          0.5169     -1.3372      1.7309
    13         H          0.9388     -1.3052     -1.3538
    14         H         -2.2421     -0.3022     -1.7309
    15         H         -1.6502     -0.1455      1.3490
    16         H         -2.0631      1.3514      0.4742

 General Reference for PM7:
 "Optimization of Parameters for Semiempirical Methods VI: More Modifications to the 
 NDDO Approximations and Re-optimization of Parameters", J. J. P. Stewart, J. Mol. Mod., 1:32, 19 (2013)
 https://link.springer.com/article/10.1007/s00894-012-1667-x

           Empirical Formula: C6 H7 N O2  =    16 atoms



      MOLECULAR POINT GROUP   :   C1  


      RHF CALCULATION, NO. OF DOUBLY OCCUPIED LEVELS = 24

  SCF CRITERION =    0.1000E-07

 -------------------------------------------------------------------------------
 PM7 1SCF GRADIENTS EPS=37.5 DISP RELSCF=0.0001
 Title: ASE calculation



     1SCF WAS SPECIFIED, SO BFGS WAS NOT USED                 
     SCF FIELD WAS ACHIEVED                                   


                              PM7 CALCULATION
                                                       MOPAC v23.2 Linux
                                                       Fri Sep 19 21:33:15 2025




          FINAL HEAT OF FORMATION =         11.39274 KCAL/MOL =      47.66722 KJ/MOL

          TOTAL ENERGY            =     -37011.42737 KCAL/MOL = ELECTRONIC ENERGY + CORE-CORE REPULSION + SOLVATION ENERGY
          ENERGY OF ATOMS         =      37024.20862 KCAL/MOL
                              SUM =         12.78126 KCAL/MOL
          DISPERSION ENERGY       =         -1.38852 KCAL/MOL
                              SUM =         11.39274 KCAL/MOL = FINAL HEAT OF FORMATION

          VAN DER WAALS AREA      =        143.96 SQUARE ANGSTROMS


          TOTAL ENERGY            =      -1604.96739 EV
          ELECTRONIC ENERGY       =      -2418.13867 EV 
          CORE-CORE REPULSION     =        813.17128 EV

          DIELECTRIC ENERGY       =         -0.42096 EV
          COSMO AREA              =        143.96 SQUARE ANGSTROMS
          COSMO VOLUME            =        141.43 CUBIC ANGSTROMS

          GRADIENT NORM           =         12.92077          =       3.23019 PER ATOM
          IONIZATION POTENTIAL    =         10.351457 EV
          HOMO LUMO ENERGIES (EV) =        -10.351  0.448
          NO. OF FILLED LEVELS    =         24
          MOLECULAR WEIGHT        =        125.1268         POINT GROUP:  C1  

          MOLECULAR DIMENSIONS (Angstroms)

            Atom       Atom       Distance
            H    14    H    10     5.49504
            H    16    H    11     4.85354
            H    12    H    13     2.96614


          SCF CALCULATIONS        =          2

          WALL-CLOCK TIME         =      0.711 SECONDS
          COMPUTATION TIME        =      1.131 SECONDS

          LARGEST ATOMIC GRADIENTS

          Atom     Label                     Cartesian Gradients           Cartesian Coordinates       |Gradient|
                                           X          Y          Z        X          Y          Z

             1       C                   2.344     -5.025      4.167    1.65759    1.12560    0.35251      6.936
             9       O                  -3.242      1.347     -2.121    0.59033    1.37883   -0.52231      4.102
             7       C                  -2.408      2.252      2.284   -1.55810    0.38897    0.40680      4.011
            10       H                  -1.675     -3.525      0.043    2.24212    2.04539    0.40820      3.903
             2       N                  -0.274      3.457     -1.529    1.93646    0.04151    0.96422      3.790
             6       C                   1.626     -2.631     -1.945   -1.57380   -0.35776   -0.90335      3.654
             8       C                   2.667      1.924     -0.719   -0.28792    0.33106   -0.42059      3.366
             4       C                  -2.232     -1.255     -1.269    0.34647   -1.07247   -0.45124      2.858
            14       H                   1.204     -0.230      2.334   -2.24212   -0.30223   -1.73091      2.636
            16       H                   1.522     -1.285     -0.243   -2.06313    1.35139    0.47421      2.007



       FINAL  POINT  AND  DERIVATIVES

   PARAMETER     ATOM    TYPE            VALUE        GRADIENT
      1          1  C    CARTESIAN X     1.657595      2.344378  KCAL/ANGSTROM
      2          1  C    CARTESIAN Y     1.125600     -5.024562  KCAL/ANGSTROM
      3          1  C    CARTESIAN Z     0.352512      4.167116  KCAL/ANGSTROM
      4          2  N    CARTESIAN X     1.936457     -0.274078  KCAL/ANGSTROM
      5          2  N    CARTESIAN Y     0.041514      3.456708  KCAL/ANGSTROM
      6          2  N    CARTESIAN Z     0.964218     -1.529011  KCAL/ANGSTROM
      7          3  C    CARTESIAN X     1.155227      0.745960  KCAL/ANGSTROM
      8          3  C    CARTESIAN Y    -1.193346      0.838946  KCAL/ANGSTROM
      9          3  C    CARTESIAN Z     0.831523      0.205283  KCAL/ANGSTROM
     10          4  C    CARTESIAN X     0.346470     -2.232328  KCAL/ANGSTROM
     11          4  C    CARTESIAN Y    -1.072470     -1.254502  KCAL/ANGSTROM
     12          4  C    CARTESIAN Z    -0.451238     -1.269206  KCAL/ANGSTROM
     13          5  O    CARTESIAN X    -0.973465     -0.521995  KCAL/ANGSTROM
     14          5  O    CARTESIAN Y    -1.663383      1.083405  KCAL/ANGSTROM
     15          5  O    CARTESIAN Z    -0.679619     -0.532195  KCAL/ANGSTROM
     16          6  C    CARTESIAN X    -1.573800      1.626318  KCAL/ANGSTROM
     17          6  C    CARTESIAN Y    -0.357756     -2.631346  KCAL/ANGSTROM
     18          6  C    CARTESIAN Z    -0.903351     -1.945047  KCAL/ANGSTROM
     19          7  C    CARTESIAN X    -1.558100     -2.408312  KCAL/ANGSTROM
     20          7  C    CARTESIAN Y     0.388969      2.251807  KCAL/ANGSTROM
     21          7  C    CARTESIAN Z     0.406797      2.284135  KCAL/ANGSTROM
     22          8  C    CARTESIAN X    -0.287923      2.666562  KCAL/ANGSTROM
     23          8  C    CARTESIAN Y     0.331059      1.924094  KCAL/ANGSTROM
     24          8  C    CARTESIAN Z    -0.420586     -0.719411  KCAL/ANGSTROM
     25          9  O    CARTESIAN X     0.590327     -3.242314  KCAL/ANGSTROM
     26          9  O    CARTESIAN Y     1.378827      1.347098  KCAL/ANGSTROM
     27          9  O    CARTESIAN Z    -0.522314     -2.120738  KCAL/ANGSTROM
     28         10  H    CARTESIAN X     2.242117     -1.675444  KCAL/ANGSTROM
     29         10  H    CARTESIAN Y     2.045391     -3.525255  KCAL/ANGSTROM
     30         10  H    CARTESIAN Z     0.408203      0.042731  KCAL/ANGSTROM
     31         11  H    CARTESIAN X     1.872020     -0.113535  KCAL/ANGSTROM
     32         11  H    CARTESIAN Y    -2.045391      1.489472  KCAL/ANGSTROM
     33         11  H    CARTESIAN Z     0.815450      0.094394  KCAL/ANGSTROM
     34         12  H    CARTESIAN X     0.516854      0.954496  KCAL/ANGSTROM
     35         12  H    CARTESIAN Y    -1.337152      0.766800  KCAL/ANGSTROM
     36         12  H    CARTESIAN Z     1.730909     -1.040129  KCAL/ANGSTROM
     37         13  H    CARTESIAN X     0.938793     -0.657845  KCAL/ANGSTROM
     38         13  H    CARTESIAN Y    -1.305159      0.796236  KCAL/ANGSTROM
     39         13  H    CARTESIAN Z    -1.353814      1.466620  KCAL/ANGSTROM
     40         14  H    CARTESIAN X    -2.242117      1.203642  KCAL/ANGSTROM
     41         14  H    CARTESIAN Y    -0.302234     -0.230449  KCAL/ANGSTROM
     42         14  H    CARTESIAN Z    -1.730909      2.333725  KCAL/ANGSTROM
     43         15  H    CARTESIAN X    -1.650157      0.062780  KCAL/ANGSTROM
     44         15  H    CARTESIAN Y    -0.145465     -0.003258  KCAL/ANGSTROM
     45         15  H    CARTESIAN Z     1.349031     -1.195286  KCAL/ANGSTROM
     46         16  H    CARTESIAN X    -2.063134      1.521715  KCAL/ANGSTROM
     47         16  H    CARTESIAN Y     1.351391     -1.285195  KCAL/ANGSTROM
     48         16  H    CARTESIAN Z     0.474214     -0.242986  KCAL/ANGSTROM




   ATOM   CHEMICAL          X               Y               Z
  NUMBER   SYMBOL      (ANGSTROMS)     (ANGSTROMS)     (ANGSTROMS)

     1       C          1.65759455  *   1.12559956  *   0.35251216  *
     2       N          1.93645702  *   0.04151403  *   0.96421811  *
     3       C          1.15522700  *  -1.19334619  *   0.83152337  *
     4       C          0.34646974  *  -1.07247028  *  -0.45123844  *
     5       O         -0.97346504  *  -1.66338265  *  -0.67961925  *
     6       C         -1.57379984  *  -0.35775571  *  -0.90335061  *
     7       C         -1.55809994  *   0.38896896  *   0.40679679  *
     8       C         -0.28792296  *   0.33105858  *  -0.42058572  *
     9       O          0.59032728  *   1.37882712  *  -0.52231353  *
    10       H          2.24211655  *   2.04539060  *   0.40820308  *
    11       H          1.87202003  *  -2.04539060  *   0.81545034  *
    12       H          0.51685444  *  -1.33715179  *   1.73090891  *
    13       H          0.93879253  *  -1.30515887  *  -1.35381368  *
    14       H         -2.24211655  *  -0.30223416  *  -1.73090891  *
    15       H         -1.65015651  *  -0.14546542  *   1.34903143  *
    16       H         -2.06313368  *   1.35139126  *   0.47421405  *

                             CARTESIAN COORDINATES

   1    C        1.657594546     1.125599562     0.352512164
   2    N        1.936457021     0.041514028     0.964218111
   3    C        1.155227003    -1.193346185     0.831523368
   4    C        0.346469744    -1.072470276    -0.451238441
   5    O       -0.973465040    -1.663382648    -0.679619251
   6    C       -1.573799843    -0.357755712    -0.903350610
   7    C       -1.558099943     0.388968956     0.406796788
   8    C       -0.287922957     0.331058583    -0.420585717
   9    O        0.590327283     1.378827118    -0.522313528
  10    H        2.242116546     2.045390603     0.408203076
  11    H        1.872020029    -2.045390603     0.815450335
  12    H        0.516854437    -1.337151795     1.730908908
  13    H        0.938792528    -1.305158870    -1.353813675
  14    H       -2.242116546    -0.302234156    -1.730908908
  15    H       -1.650156507    -0.145465415     1.349031433
  16    H       -2.063133676     1.351391258     0.474214054


           Empirical Formula: C6 H7 N O2  =    16 atoms



      MOLECULAR POINT GROUP   :   C1  


                  EIGENVALUES  
 -36.26450 -32.88981 -30.79553 -27.67094 -26.61159 -23.29668 -22.33320 -21.24667
 -18.85941 -18.14659 -17.90102 -16.47022 -16.17564 -15.82005 -15.02498 -14.61750
 -13.87122 -13.62594 -13.12601 -12.12042 -11.67287 -10.88038 -10.76458 -10.35146
   0.44829   0.67093   1.07634   1.84625   2.55954   2.72856   3.07803   3.33714
   3.52335   3.56156   3.77647   4.96298   5.04437   5.16105   5.35683   5.41895
   5.60308   5.86365   6.16703


              NET ATOMIC CHARGES AND DIPOLE CONTRIBUTIONS

  ATOM NO.   TYPE          CHARGE      No. of ELECS.   s-Pop       p-Pop       
    1          C           0.313435        3.6866     1.14334     2.54323
    2          N          -0.528716        5.5287     1.73946     3.78926
    3          C          -0.135431        4.1354     1.07198     3.06345
    4          C           0.029897        3.9701     1.10908     2.86102
    5          O          -0.410927        6.4109     1.90955     4.50138
    6          C           0.095763        3.9042     1.10513     2.79911
    7          C          -0.386793        4.3868     1.06903     3.31777
    8          C           0.025476        3.9745     1.05923     2.91530
    9          O          -0.343898        6.3439     1.87188     4.47201
   10          H           0.218058        0.7819     0.78194
   11          H           0.183223        0.8168     0.81678
   12          H           0.182293        0.8177     0.81771
   13          H           0.178859        0.8211     0.82114
   14          H           0.196425        0.8036     0.80357
   15          H           0.187335        0.8127     0.81266
   16          H           0.195001        0.8050     0.80500
 DIPOLE           X         Y         Z       TOTAL
 POINT-CHG.    -0.320     1.270    -0.020     1.310
 HYBRID        -0.689     0.033    -0.436     0.816
 SUM           -1.009     1.304    -0.456     1.710


          ATOMIC ORBITAL ELECTRON POPULATIONS

     Atom    s        px        py        pz   
    1  C   1.14334   0.81398   0.94600   0.78325
    2  N   1.73946   1.37609   1.09143   1.32174
    3  C   1.07198   1.05335   0.94413   1.06597
    4  C   1.10908   0.87122   0.92352   1.06628
    5  O   1.90955   1.29358   1.28448   1.92332
    6  C   1.10513   0.99452   0.76682   1.03778
    7  C   1.06903   1.08413   1.16607   1.06757
    8  C   1.05923   0.89559   0.88236   1.13735
    9  O   1.87188   1.38823   1.44485   1.63893
   10  H   0.78194
   11  H   0.81678
   12  H   0.81771
   13  H   0.82114
   14  H   0.80357
   15  H   0.81266
   16  H   0.80500

 **********************
 *                    *
 * JOB ENDED NORMALLY *
 *                    *
 **********************



 TOTAL JOB TIME:             1.01 SECONDS

 == MOPAC DONE ==
