 *******************************************************************************
 **                                                                           **
 **                              MOPAC v23.2                                  **
 **                                                                           **
 *******************************************************************************
 **          Digital Object Identifier (DOI): 10.5281/zenodo.6511958          **
 **    Visit the DOI location for information on how to cite this program.    **
 *******************************************************************************

                              PM7 CALCULATION RESULTS

 *******************************************************************************
 *  CALCULATION DONE: (MAX THREADS = 40)             Fri Sep 19 21:31:50 2025  *
 *  PM7        - The PM7 Hamiltonian to be used
 *
 *
 *
 *                 CHARGE ON SYSTEM = +1
 *
 *
 *
 *  1SCF       - DO 1 SCF AND THEN STOP 
 *  T=         - A TIME OF 172800.0 SECONDS REQUESTED
 *  DUMP=N     - RESTART FILE WRITTEN EVERY 7200.0 SECONDS REQUESTED
 *  RELSCF     - DEFAULT SCF CRITERION MULTIPLIED BY 0.0001
 *              (DEFAULT SCF CRITERION = 0.00010)
 *  GRADIENTS  - ALL GRADIENTS TO BE PRINTED
 *  DISP       - PRINT DISPERSION AND HYDROGEN BOND ENERGIES
 *******************************************************************************
PM7 1SCF GRADIENTS DISP RELSCF=0.0001 CHARGE=1
 Title: ASE calculation

   ATOM   CHEMICAL          X               Y               Z
  NUMBER   SYMBOL      (ANGSTROMS)     (ANGSTROMS)     (ANGSTROMS)

     1       C         -3.05032413  *  -0.20521452  *   0.41097219  *
     2       C         -2.36965010  *   1.00940957  *  -0.20570424  *
     3       C         -0.93313647  *   1.15719860  *   0.24571649  *
     4       O         -0.28762337  *   0.02181912  *  -0.46681577  *
     5       C          0.97518877  *  -0.15662574  *  -0.30268663  *
     6       C          2.05872354  *   0.51564004  *   0.41532112  *
     7       C          3.19123727  *  -0.22446445  *   0.14299190  *
     8       N          2.87313790  *  -1.31333708  *  -0.69430270  *
     9       N          1.56742921  *  -1.26171492  *  -0.94956570  *
    10       H         -2.96895440  *  -0.22407193  *   1.50539903  *
    11       H         -2.64741405  *  -1.14999648  *   0.02929503  *
    12       H         -4.12871223  *  -0.21263818  *   0.18026844  *
    13       H         -2.92517487  *   1.93936145  *   0.07255276  *
    14       H         -2.43806414  *   0.96865191  *  -1.31690363  *
    15       H         -0.78280307  *   0.99638990  *   1.32809133  *
    16       H         -0.44768400  *   2.08651537  *  -0.10005029  *
    17       H          1.96179482  *   1.40277116  *   1.01937604  *
    18       H          4.22420909  *  -0.08842309  *   0.46506678  *
    19       H          1.12376693  *  -1.96396335  *  -1.54369261  *



          CARTESIAN COORDINATES 

    NO.       ATOM           X           Y           Z

     1         C         -3.0503     -0.2052      0.4110
     2         C         -2.3697      1.0094     -0.2057
     3         C         -0.9331      1.1572      0.2457
     4         O         -0.2876      0.0218     -0.4668
     5         C          0.9752     -0.1566     -0.3027
     6         C          2.0587      0.5156      0.4153
     7         C          3.1912     -0.2245      0.1430
     8         N          2.8731     -1.3133     -0.6943
     9         N          1.5674     -1.2617     -0.9496
    10         H         -2.9690     -0.2241      1.5054
    11         H         -2.6474     -1.1500      0.0293
    12         H         -4.1287     -0.2126      0.1803
    13         H         -2.9252      1.9394      0.0726
    14         H         -2.4381      0.9687     -1.3169
    15         H         -0.7828      0.9964      1.3281
    16         H         -0.4477      2.0865     -0.1001
    17         H          1.9618      1.4028      1.0194
    18         H          4.2242     -0.0884      0.4651
    19         H          1.1238     -1.9640     -1.5437

 General Reference for PM7:
 "Optimization of Parameters for Semiempirical Methods VI: More Modifications to the 
 NDDO Approximations and Re-optimization of Parameters", J. J. P. Stewart, J. Mol. Mod., 1:32, 19 (2013)
 https://link.springer.com/article/10.1007/s00894-012-1667-x

           Empirical Formula: C6 H10 N2 O  =    19 atoms



      MOLECULAR POINT GROUP   :   C1  


          UHF CALCULATION, NO. OF ALPHA ELECTRONS =   25
                           NO. OF BETA  ELECTRONS =   24
  SCF CRITERION =    0.1000E-07

 -------------------------------------------------------------------------------
 PM7 1SCF GRADIENTS DISP RELSCF=0.0001 CHARGE=1
 Title: ASE calculation



     1SCF WAS SPECIFIED, SO BFGS WAS NOT USED                 
     SCF FIELD WAS ACHIEVED                                   


                              PM7 CALCULATION
                                                       MOPAC v23.2 Linux
                                                       Fri Sep 19 21:31:51 2025




          FINAL HEAT OF FORMATION =        190.28035 KCAL/MOL =     796.13298 KJ/MOL

          TOTAL ENERGY            =     -35288.25238 KCAL/MOL = ELECTRONIC ENERGY + CORE-CORE REPULSION
          ENERGY OF ATOMS         =      35480.40871 KCAL/MOL
                              SUM =        192.15634 KCAL/MOL
          DISPERSION ENERGY       =         -1.87619 KCAL/MOL
          MM CORR. FOR -CO-NH-    =          0.00020 KCAL/MOL
                              SUM =        190.28035 KCAL/MOL = FINAL HEAT OF FORMATION



          TOTAL ENERGY            =      -1530.24345 EV
          ELECTRONIC ENERGY       =      -7253.61977 EV 
          CORE-CORE REPULSION     =       5723.37631 EV
          COSMO AREA              =        170.04 SQUARE ANGSTROMS
          COSMO VOLUME            =        162.57 CUBIC ANGSTROMS

          GRADIENT NORM           =          1.26225          =       0.28958 PER ATOM
          IONIZATION POTENTIAL    =         15.091722 EV
          ALPHA SOMO LUMO (EV)    =        -15.092 -5.533
          BETA  SOMO LUMO (EV)    =        -15.656 -7.567
          NO. OF ALPHA ELECTRONS  =         25
          NO. OF BETA  ELECTRONS  =         24
          MOLECULAR WEIGHT        =        126.1578         POINT GROUP:  C1  

          MOLECULAR DIMENSIONS (Angstroms)

            Atom       Atom       Distance
            H    18    H    12     8.35870
            H    19    H    16     4.33883
            H    10    H    14     3.07366


          SCF CALCULATIONS        =          1

          WALL-CLOCK TIME         =      0.891 SECONDS
          COMPUTATION TIME        =      1.041 SECONDS

          LARGEST ATOMIC GRADIENTS

          Atom     Label                     Cartesian Gradients           Cartesian Coordinates       |Gradient|
                                           X          Y          Z        X          Y          Z

            18       H                  -0.177     -0.251     -0.333    4.22421   -0.08842    0.46507      0.453
             4       O                   0.443      0.067     -0.007   -0.28762    0.02182   -0.46682      0.448
             7       C                  -0.157      0.357      0.171    3.19124   -0.22446    0.14299      0.426
            17       H                   0.207     -0.219     -0.153    1.96179    1.40277    1.01938      0.338
             5       C                   0.093      0.214      0.239    0.97519   -0.15663   -0.30269      0.334
            13       H                   0.207     -0.216      0.138   -2.92517    1.93936    0.07255      0.329
            11       H                  -0.304      0.040     -0.105   -2.64741   -1.15000    0.02930      0.324
             3       C                  -0.292      0.125      0.059   -0.93314    1.15720    0.24572      0.323
             6       C                  -0.241      0.169      0.065    2.05872    0.51564    0.41532      0.301
            14       H                   0.136      0.159     -0.213   -2.43806    0.96865   -1.31690      0.299



       FINAL  POINT  AND  DERIVATIVES

   PARAMETER     ATOM    TYPE            VALUE        GRADIENT
      1          1  C    CARTESIAN X    -3.050324      0.023237  KCAL/ANGSTROM
      2          1  C    CARTESIAN Y    -0.205215     -0.002163  KCAL/ANGSTROM
      3          1  C    CARTESIAN Z     0.410972      0.026678  KCAL/ANGSTROM
      4          2  C    CARTESIAN X    -2.369650      0.043347  KCAL/ANGSTROM
      5          2  C    CARTESIAN Y     1.009410     -0.140834  KCAL/ANGSTROM
      6          2  C    CARTESIAN Z    -0.205704     -0.158301  KCAL/ANGSTROM
      7          3  C    CARTESIAN X    -0.933136     -0.291676  KCAL/ANGSTROM
      8          3  C    CARTESIAN Y     1.157199      0.125140  KCAL/ANGSTROM
      9          3  C    CARTESIAN Z     0.245716      0.059433  KCAL/ANGSTROM
     10          4  O    CARTESIAN X    -0.287623      0.443356  KCAL/ANGSTROM
     11          4  O    CARTESIAN Y     0.021819      0.066548  KCAL/ANGSTROM
     12          4  O    CARTESIAN Z    -0.466816     -0.006931  KCAL/ANGSTROM
     13          5  C    CARTESIAN X     0.975189      0.092861  KCAL/ANGSTROM
     14          5  C    CARTESIAN Y    -0.156626      0.214015  KCAL/ANGSTROM
     15          5  C    CARTESIAN Z    -0.302687      0.238960  KCAL/ANGSTROM
     16          6  C    CARTESIAN X     2.058724     -0.240931  KCAL/ANGSTROM
     17          6  C    CARTESIAN Y     0.515640      0.168587  KCAL/ANGSTROM
     18          6  C    CARTESIAN Z     0.415321      0.065442  KCAL/ANGSTROM
     19          7  C    CARTESIAN X     3.191237     -0.156530  KCAL/ANGSTROM
     20          7  C    CARTESIAN Y    -0.224464      0.357210  KCAL/ANGSTROM
     21          7  C    CARTESIAN Z     0.142992      0.171310  KCAL/ANGSTROM
     22          8  N    CARTESIAN X     2.873138     -0.095438  KCAL/ANGSTROM
     23          8  N    CARTESIAN Y    -1.313337      0.111150  KCAL/ANGSTROM
     24          8  N    CARTESIAN Z    -0.694303      0.061221  KCAL/ANGSTROM
     25          9  N    CARTESIAN X     1.567429      0.087573  KCAL/ANGSTROM
     26          9  N    CARTESIAN Y    -1.261715     -0.109294  KCAL/ANGSTROM
     27          9  N    CARTESIAN Z    -0.949566      0.116859  KCAL/ANGSTROM
     28         10  H    CARTESIAN X    -2.968954      0.210180  KCAL/ANGSTROM
     29         10  H    CARTESIAN Y    -0.224072     -0.211404  KCAL/ANGSTROM
     30         10  H    CARTESIAN Z     1.505399      0.018530  KCAL/ANGSTROM
     31         11  H    CARTESIAN X    -2.647414     -0.303671  KCAL/ANGSTROM
     32         11  H    CARTESIAN Y    -1.149996      0.039566  KCAL/ANGSTROM
     33         11  H    CARTESIAN Z     0.029295     -0.105302  KCAL/ANGSTROM
     34         12  H    CARTESIAN X    -4.128712      0.083529  KCAL/ANGSTROM
     35         12  H    CARTESIAN Y    -0.212638      0.117336  KCAL/ANGSTROM
     36         12  H    CARTESIAN Z     0.180268      0.053177  KCAL/ANGSTROM
     37         13  H    CARTESIAN X    -2.925175      0.206812  KCAL/ANGSTROM
     38         13  H    CARTESIAN Y     1.939361     -0.216021  KCAL/ANGSTROM
     39         13  H    CARTESIAN Z     0.072553      0.137558  KCAL/ANGSTROM
     40         14  H    CARTESIAN X    -2.438064      0.136399  KCAL/ANGSTROM
     41         14  H    CARTESIAN Y     0.968652      0.158999  KCAL/ANGSTROM
     42         14  H    CARTESIAN Z    -1.316904     -0.213377  KCAL/ANGSTROM
     43         15  H    CARTESIAN X    -0.782803     -0.004207  KCAL/ANGSTROM
     44         15  H    CARTESIAN Y     0.996390     -0.055869  KCAL/ANGSTROM
     45         15  H    CARTESIAN Z     1.328091     -0.059253  KCAL/ANGSTROM
     46         16  H    CARTESIAN X    -0.447684     -0.131179  KCAL/ANGSTROM
     47         16  H    CARTESIAN Y     2.086515     -0.080438  KCAL/ANGSTROM
     48         16  H    CARTESIAN Z    -0.100050     -0.016191  KCAL/ANGSTROM
     49         17  H    CARTESIAN X     1.961795      0.206598  KCAL/ANGSTROM
     50         17  H    CARTESIAN Y     1.402771     -0.219109  KCAL/ANGSTROM
     51         17  H    CARTESIAN Z     1.019376     -0.153086  KCAL/ANGSTROM
     52         18  H    CARTESIAN X     4.224209     -0.176772  KCAL/ANGSTROM
     53         18  H    CARTESIAN Y    -0.088423     -0.251221  KCAL/ANGSTROM
     54         18  H    CARTESIAN Z     0.465067     -0.333034  KCAL/ANGSTROM
     55         19  H    CARTESIAN X     1.123767     -0.133490  KCAL/ANGSTROM
     56         19  H    CARTESIAN Y    -1.963963     -0.072200  KCAL/ANGSTROM
     57         19  H    CARTESIAN Z    -1.543693      0.096304  KCAL/ANGSTROM




   ATOM   CHEMICAL          X               Y               Z
  NUMBER   SYMBOL      (ANGSTROMS)     (ANGSTROMS)     (ANGSTROMS)

     1       C         -3.05032413  *  -0.20521452  *   0.41097219  *
     2       C         -2.36965010  *   1.00940957  *  -0.20570424  *
     3       C         -0.93313647  *   1.15719860  *   0.24571649  *
     4       O         -0.28762337  *   0.02181912  *  -0.46681577  *
     5       C          0.97518877  *  -0.15662574  *  -0.30268663  *
     6       C          2.05872354  *   0.51564004  *   0.41532112  *
     7       C          3.19123727  *  -0.22446445  *   0.14299190  *
     8       N          2.87313790  *  -1.31333708  *  -0.69430270  *
     9       N          1.56742921  *  -1.26171492  *  -0.94956570  *
    10       H         -2.96895440  *  -0.22407193  *   1.50539903  *
    11       H         -2.64741405  *  -1.14999648  *   0.02929503  *
    12       H         -4.12871223  *  -0.21263818  *   0.18026844  *
    13       H         -2.92517487  *   1.93936145  *   0.07255276  *
    14       H         -2.43806414  *   0.96865191  *  -1.31690363  *
    15       H         -0.78280307  *   0.99638990  *   1.32809133  *
    16       H         -0.44768400  *   2.08651537  *  -0.10005029  *
    17       H          1.96179482  *   1.40277116  *   1.01937604  *
    18       H          4.22420909  *  -0.08842309  *   0.46506678  *
    19       H          1.12376693  *  -1.96396335  *  -1.54369261  *

                             CARTESIAN COORDINATES

   1    C       -3.050324134    -0.205214522     0.410972186
   2    C       -2.369650105     1.009409569    -0.205704239
   3    C       -0.933136469     1.157198602     0.245716494
   4    O       -0.287623371     0.021819116    -0.466815766
   5    C        0.975188768    -0.156625741    -0.302686627
   6    C        2.058723539     0.515640037     0.415321125
   7    C        3.191237271    -0.224464453     0.142991903
   8    N        2.873137900    -1.313337081    -0.694302701
   9    N        1.567429206    -1.261714921    -0.949565703
  10    H       -2.968954404    -0.224071925     1.505399034
  11    H       -2.647414051    -1.149996479     0.029295032
  12    H       -4.128712228    -0.212638181     0.180268442
  13    H       -2.925174870     1.939361452     0.072552763
  14    H       -2.438064140     0.968651912    -1.316903628
  15    H       -0.782803071     0.996389896     1.328091333
  16    H       -0.447683998     2.086515367    -0.100050291
  17    H        1.961794823     1.402771164     1.019376044
  18    H        4.224209094    -0.088423088     0.465066782
  19    H        1.123766934    -1.963963347    -1.543692606


           Empirical Formula: C6 H10 N2 O  =    19 atoms



      MOLECULAR POINT GROUP   :   C1  


          ALPHA EIGENVALUES  
 -45.95816 -38.04517 -35.62112 -33.06012 -32.41328 -28.55134 -27.03010 -26.31341
 -24.60792 -24.32451 -22.29507 -21.95890 -20.93496 -20.57562 -20.23513 -19.13753
 -18.85713 -18.59260 -17.93537 -17.28952 -16.54693 -16.03981 -16.03569 -15.66622
 -15.09172  -5.53288  -4.99550  -4.56266  -3.52258  -2.80706  -2.49333  -1.58339
  -0.71439  -0.46522  -0.30428   0.22552   0.58886   0.63946   0.74533   0.78837
   0.87377   1.49281   2.28451   2.41338   2.49484   3.55690


           BETA EIGENVALUES 
 -45.61706 -37.23392 -35.17593 -32.86776 -32.12037 -28.50578 -26.91909 -26.19910
 -24.45963 -24.21368 -21.89196 -21.66884 -20.75294 -20.26709 -19.96431 -18.88858
 -18.80625 -18.14548 -17.50952 -16.80953 -16.42567 -16.03121 -15.88765 -15.65641
  -7.56739  -4.81808  -4.37507  -3.88040  -3.35840  -2.68540  -2.31647  -1.43687
  -0.64946  -0.38684  -0.16709   0.23483   0.60860   0.66704   0.77741   0.79454
   0.85667   1.49088   2.28403   2.41333   2.49440   3.55692


              NET ATOMIC CHARGES AND DIPOLE CONTRIBUTIONS

  ATOM NO.   TYPE          CHARGE      No. of ELECS.   s-Pop       p-Pop       
    1          C          -0.437178        4.4372     1.05077     3.38641
    2          C          -0.282821        4.2828     1.05916     3.22366
    3          C          -0.027815        4.0278     1.13213     2.89569
    4          O          -0.155407        6.1554     1.86560     4.28981
    5          C           0.331622        3.6684     1.12767     2.54070
    6          C          -0.225076        4.2251     1.10771     3.11736
    7          C           0.010353        3.9896     1.12341     2.86623
    8          N          -0.025262        5.0253     1.79988     3.22538
    9          N          -0.214459        5.2145     1.53238     3.68208
   10          H           0.158488        0.8415     0.84151
   11          H           0.149884        0.8501     0.85012
   12          H           0.178120        0.8219     0.82188
   13          H           0.193782        0.8062     0.80622
   14          H           0.177251        0.8227     0.82275
   15          H           0.163955        0.8360     0.83605
   16          H           0.158070        0.8419     0.84193
   17          H           0.223929        0.7761     0.77607
   18          H           0.239394        0.7606     0.76061
   19          H           0.383169        0.6168     0.61683
 DIPOLE           X         Y         Z       TOTAL
 POINT-CHG.     1.281     1.398     0.673     2.012
 HYBRID        -0.641    -0.098    -0.286     0.709
 SUM            0.641     1.300     0.387     1.500


          ATOMIC ORBITAL ELECTRON POPULATIONS

     Atom    s        px        py        pz   
    1  C   1.05077   1.16774   1.06102   1.15765
    2  C   1.05916   0.95425   1.11615   1.15326
    3  C   1.13213   0.97640   0.87038   1.04891
    4  O   1.86560   1.20496   1.51507   1.56978
    5  C   1.12767   0.85218   0.83950   0.84903
    6  C   1.10771   0.95870   1.09383   1.06483
    7  C   1.12341   1.07742   0.87650   0.91231
    8  N   1.79988   0.92159   1.20249   1.10131
    9  N   1.53238   1.06679   1.24427   1.37102
   10  H   0.84151
   11  H   0.85012
   12  H   0.82188
   13  H   0.80622
   14  H   0.82275
   15  H   0.83605
   16  H   0.84193
   17  H   0.77607
   18  H   0.76061
   19  H   0.61683


                    (SZ)    =    0.500000
                    (S**2)  =    0.813334


          ATOMIC ORBITAL SPIN POPULATIONS

    Atom   Total    s     px     py     pz   
         Atomic
    1  C  0.0000 -0.000  0.000  0.000  0.000
    2  C -0.0004  0.000 -0.000 -0.000  0.000
    3  C -0.0160 -0.001 -0.004 -0.008 -0.003
    4  O  0.2422  0.008  0.009  0.085  0.140
    5  C  0.1653 -0.002  0.001  0.055  0.111
    6  C  0.2886  0.007  0.015  0.092  0.175
    7  C -0.1861 -0.009 -0.013 -0.062 -0.101
    8  N  0.5588  0.008  0.036  0.178  0.337
    9  N -0.0572 -0.005 -0.018 -0.013 -0.021
   10  H  0.0000  0.000
   11  H -0.0000 -0.000
   12  H  0.0000  0.000
   13  H -0.0013 -0.001
   14  H -0.0003 -0.000
   15  H  0.0047  0.005
   16  H  0.0046  0.005
   17  H -0.0080 -0.008
   18  H  0.0043  0.004
   19  H  0.0009  0.001

 **********************
 *                    *
 * JOB ENDED NORMALLY *
 *                    *
 **********************



 TOTAL JOB TIME:             1.22 SECONDS

 == MOPAC DONE ==
