 *******************************************************************************
 **                                                                           **
 **                              MOPAC v23.2                                  **
 **                                                                           **
 *******************************************************************************
 **          Digital Object Identifier (DOI): 10.5281/zenodo.6511958          **
 **    Visit the DOI location for information on how to cite this program.    **
 *******************************************************************************

                              PM7 CALCULATION RESULTS

 *******************************************************************************
 *  CALCULATION DONE: (MAX THREADS = 40)             Fri Sep 19 21:58:30 2025  *
 *  PM7        - The PM7 Hamiltonian to be used
 *
 *
 *
 *                 CHARGE ON SYSTEM = +1
 *
 *
 *
 *  1SCF       - DO 1 SCF AND THEN STOP 
 *  T=         - A TIME OF 172800.0 SECONDS REQUESTED
 *  DUMP=N     - RESTART FILE WRITTEN EVERY 7200.0 SECONDS REQUESTED
 *  RELSCF     - DEFAULT SCF CRITERION MULTIPLIED BY 0.0001
 *              (DEFAULT SCF CRITERION = 0.00010)
 *  GRADIENTS  - ALL GRADIENTS TO BE PRINTED
 *  DISP       - PRINT DISPERSION AND HYDROGEN BOND ENERGIES
 *******************************************************************************
PM7 1SCF GRADIENTS DISP RELSCF=0.0001 CHARGE=1
 Title: ASE calculation

   ATOM   CHEMICAL          X               Y               Z
  NUMBER   SYMBOL      (ANGSTROMS)     (ANGSTROMS)     (ANGSTROMS)

     1       C          2.42753861  *  -0.47908775  *   0.00229728  *
     2       C          1.19428315  *   0.42517699  *   0.14612039  *
     3       C          0.30408941  *  -0.12764009  *   1.17418514  *
     4       O         -0.79181587  *  -0.84899502  *   0.74886458  *
     5       C         -1.86165277  *  -0.23659127  *   0.29338175  *
     6       C         -2.21092593  *   1.13892781  *   0.64284867  *
     7       C         -2.75182507  *  -1.16115452  *  -0.41182253  *
     8       O         -0.64115560  *   0.45237913  *  -1.37637248  *
     9       C          0.55394176  *   0.59316967  *  -1.21518521  *
    10       H          2.92282888  *  -0.64908558  *   0.97199076  *
    11       H          2.17449750  *  -1.47073362  *  -0.39965153  *
    12       H          3.18777384  *  -0.03652700  *  -0.65957829  *
    13       H          1.54809152  *   1.45026247  *   0.48758152  *
    14       H          0.52853399  *  -0.28192452  *   2.21326883  *
    15       H         -3.14936260  *   1.19529081  *   1.24013558  *
    16       H         -1.44614206  *   1.68914545  *   1.21983472  *
    17       H         -2.42029197  *   1.76235305  *  -0.26056894  *
    18       H         -2.48548177  *  -2.23382099  *  -0.29206837  *
    19       H         -3.81961309  *  -1.05656848  *  -0.13228700  *
    20       H         -2.71327598  *  -0.97518216  *  -1.51629187  *
    21       H          1.19776001  *   0.86260542  *  -2.06638742  *



          CARTESIAN COORDINATES 

    NO.       ATOM           X           Y           Z

     1         C          2.4275     -0.4791      0.0023
     2         C          1.1943      0.4252      0.1461
     3         C          0.3041     -0.1276      1.1742
     4         O         -0.7918     -0.8490      0.7489
     5         C         -1.8617     -0.2366      0.2934
     6         C         -2.2109      1.1389      0.6428
     7         C         -2.7518     -1.1612     -0.4118
     8         O         -0.6412      0.4524     -1.3764
     9         C          0.5539      0.5932     -1.2152
    10         H          2.9228     -0.6491      0.9720
    11         H          2.1745     -1.4707     -0.3997
    12         H          3.1878     -0.0365     -0.6596
    13         H          1.5481      1.4503      0.4876
    14         H          0.5285     -0.2819      2.2133
    15         H         -3.1494      1.1953      1.2401
    16         H         -1.4461      1.6891      1.2198
    17         H         -2.4203      1.7624     -0.2606
    18         H         -2.4855     -2.2338     -0.2921
    19         H         -3.8196     -1.0566     -0.1323
    20         H         -2.7133     -0.9752     -1.5163
    21         H          1.1978      0.8626     -2.0664

 General Reference for PM7:
 "Optimization of Parameters for Semiempirical Methods VI: More Modifications to the 
 NDDO Approximations and Re-optimization of Parameters", J. J. P. Stewart, J. Mol. Mod., 1:32, 19 (2013)
 https://link.springer.com/article/10.1007/s00894-012-1667-x

           Empirical Formula: C7 H12 O2  =    21 atoms



      MOLECULAR POINT GROUP   :   C1  


          UHF CALCULATION, NO. OF ALPHA ELECTRONS =   26
                           NO. OF BETA  ELECTRONS =   25
  SCF CRITERION =    0.1000E-07

 -------------------------------------------------------------------------------
 PM7 1SCF GRADIENTS DISP RELSCF=0.0001 CHARGE=1
 Title: ASE calculation



     1SCF WAS SPECIFIED, SO BFGS WAS NOT USED                 
     SCF FIELD WAS ACHIEVED                                   


                              PM7 CALCULATION
                                                       MOPAC v23.2 Linux
                                                       Fri Sep 19 21:58:30 2025




          FINAL HEAT OF FORMATION =         99.57396 KCAL/MOL =     416.61745 KJ/MOL

          TOTAL ENERGY            =     -36995.47564 KCAL/MOL = ELECTRONIC ENERGY + CORE-CORE REPULSION
          ENERGY OF ATOMS         =      37097.27293 KCAL/MOL
                              SUM =        101.79729 KCAL/MOL
          DISPERSION ENERGY       =         -2.22333 KCAL/MOL
                              SUM =         99.57396 KCAL/MOL = FINAL HEAT OF FORMATION



          TOTAL ENERGY            =      -1604.27566 EV
          ELECTRONIC ENERGY       =      -8048.39862 EV 
          CORE-CORE REPULSION     =       6444.12295 EV
          COSMO AREA              =        168.63 SQUARE ANGSTROMS
          COSMO VOLUME            =        170.00 CUBIC ANGSTROMS

          GRADIENT NORM           =          1.23768          =       0.27008 PER ATOM
          IONIZATION POTENTIAL    =         13.980294 EV
          ALPHA SOMO LUMO (EV)    =        -13.980 -5.170
          BETA  SOMO LUMO (EV)    =        -14.928 -5.230
          NO. OF ALPHA ELECTRONS  =         26
          NO. OF BETA  ELECTRONS  =         25
          MOLECULAR WEIGHT        =        128.1706         POINT GROUP:  C1  

          MOLECULAR DIMENSIONS (Angstroms)

            Atom       Atom       Distance
            H    19    H    12     7.10084
            H    21    H    14     4.33217
            H    16    H    18     4.01293


          SCF CALCULATIONS        =          1

          WALL-CLOCK TIME         =      0.563 SECONDS
          COMPUTATION TIME        =      0.415 SECONDS

          LARGEST ATOMIC GRADIENTS

          Atom     Label                     Cartesian Gradients           Cartesian Coordinates       |Gradient|
                                           X          Y          Z        X          Y          Z

             9       C                  -0.232     -0.189     -0.337    0.55394    0.59317   -1.21519      0.451
             4       O                  -0.053      0.017     -0.391   -0.79182   -0.84900    0.74886      0.395
            18       H                   0.267     -0.175      0.167   -2.48548   -2.23382   -0.29207      0.360
            14       H                   0.252      0.194      0.142    0.52853   -0.28192    2.21327      0.348
            11       H                   0.084     -0.251     -0.202    2.17450   -1.47073   -0.39965      0.333
             7       C                  -0.118     -0.205      0.204   -2.75183   -1.16115   -0.41182      0.313
            12       H                   0.286      0.019     -0.117    3.18777   -0.03653   -0.65958      0.310
            16       H                  -0.263     -0.108      0.066   -1.44614    1.68915    1.21983      0.292
            20       H                  -0.046      0.266     -0.024   -2.71328   -0.97518   -1.51629      0.271
            10       H                  -0.097     -0.162      0.177    2.92283   -0.64909    0.97199      0.259



       FINAL  POINT  AND  DERIVATIVES

   PARAMETER     ATOM    TYPE            VALUE        GRADIENT
      1          1  C    CARTESIAN X     2.427539      0.077160  KCAL/ANGSTROM
      2          1  C    CARTESIAN Y    -0.479088     -0.121250  KCAL/ANGSTROM
      3          1  C    CARTESIAN Z     0.002297      0.090871  KCAL/ANGSTROM
      4          2  C    CARTESIAN X     1.194283     -0.192713  KCAL/ANGSTROM
      5          2  C    CARTESIAN Y     0.425177     -0.082319  KCAL/ANGSTROM
      6          2  C    CARTESIAN Z     0.146120     -0.039084  KCAL/ANGSTROM
      7          3  C    CARTESIAN X     0.304089     -0.034700  KCAL/ANGSTROM
      8          3  C    CARTESIAN Y    -0.127640      0.197393  KCAL/ANGSTROM
      9          3  C    CARTESIAN Z     1.174185      0.074534  KCAL/ANGSTROM
     10          4  O    CARTESIAN X    -0.791816     -0.053062  KCAL/ANGSTROM
     11          4  O    CARTESIAN Y    -0.848995      0.016697  KCAL/ANGSTROM
     12          4  O    CARTESIAN Z     0.748865     -0.391010  KCAL/ANGSTROM
     13          5  C    CARTESIAN X    -1.861653     -0.100843  KCAL/ANGSTROM
     14          5  C    CARTESIAN Y    -0.236591      0.009549  KCAL/ANGSTROM
     15          5  C    CARTESIAN Z     0.293382     -0.097334  KCAL/ANGSTROM
     16          6  C    CARTESIAN X    -2.210926     -0.064064  KCAL/ANGSTROM
     17          6  C    CARTESIAN Y     1.138928      0.077059  KCAL/ANGSTROM
     18          6  C    CARTESIAN Z     0.642849     -0.046931  KCAL/ANGSTROM
     19          7  C    CARTESIAN X    -2.751825     -0.118412  KCAL/ANGSTROM
     20          7  C    CARTESIAN Y    -1.161155     -0.205218  KCAL/ANGSTROM
     21          7  C    CARTESIAN Z    -0.411823      0.203908  KCAL/ANGSTROM
     22          8  O    CARTESIAN X    -0.641156      0.029808  KCAL/ANGSTROM
     23          8  O    CARTESIAN Y     0.452379      0.090013  KCAL/ANGSTROM
     24          8  O    CARTESIAN Z    -1.376372      0.223678  KCAL/ANGSTROM
     25          9  C    CARTESIAN X     0.553942     -0.232007  KCAL/ANGSTROM
     26          9  C    CARTESIAN Y     0.593170     -0.188813  KCAL/ANGSTROM
     27          9  C    CARTESIAN Z    -1.215185     -0.337014  KCAL/ANGSTROM
     28         10  H    CARTESIAN X     2.922829     -0.097214  KCAL/ANGSTROM
     29         10  H    CARTESIAN Y    -0.649086     -0.162159  KCAL/ANGSTROM
     30         10  H    CARTESIAN Z     0.971991      0.177070  KCAL/ANGSTROM
     31         11  H    CARTESIAN X     2.174498      0.084104  KCAL/ANGSTROM
     32         11  H    CARTESIAN Y    -1.470734     -0.250544  KCAL/ANGSTROM
     33         11  H    CARTESIAN Z    -0.399652     -0.202480  KCAL/ANGSTROM
     34         12  H    CARTESIAN X     3.187774      0.286296  KCAL/ANGSTROM
     35         12  H    CARTESIAN Y    -0.036527      0.019280  KCAL/ANGSTROM
     36         12  H    CARTESIAN Z    -0.659578     -0.116816  KCAL/ANGSTROM
     37         13  H    CARTESIAN X     1.548092     -0.113803  KCAL/ANGSTROM
     38         13  H    CARTESIAN Y     1.450262      0.128899  KCAL/ANGSTROM
     39         13  H    CARTESIAN Z     0.487582      0.174422  KCAL/ANGSTROM
     40         14  H    CARTESIAN X     0.528534      0.251552  KCAL/ANGSTROM
     41         14  H    CARTESIAN Y    -0.281925      0.194483  KCAL/ANGSTROM
     42         14  H    CARTESIAN Z     2.213269      0.142080  KCAL/ANGSTROM
     43         15  H    CARTESIAN X    -3.149363      0.186337  KCAL/ANGSTROM
     44         15  H    CARTESIAN Y     1.195291     -0.014726  KCAL/ANGSTROM
     45         15  H    CARTESIAN Z     1.240136     -0.005425  KCAL/ANGSTROM
     46         16  H    CARTESIAN X    -1.446142     -0.263133  KCAL/ANGSTROM
     47         16  H    CARTESIAN Y     1.689145     -0.107780  KCAL/ANGSTROM
     48         16  H    CARTESIAN Z     1.219835      0.065688  KCAL/ANGSTROM
     49         17  H    CARTESIAN X    -2.420292      0.113652  KCAL/ANGSTROM
     50         17  H    CARTESIAN Y     1.762353      0.161111  KCAL/ANGSTROM
     51         17  H    CARTESIAN Z    -0.260569     -0.074845  KCAL/ANGSTROM
     52         18  H    CARTESIAN X    -2.485482      0.267066  KCAL/ANGSTROM
     53         18  H    CARTESIAN Y    -2.233821     -0.174584  KCAL/ANGSTROM
     54         18  H    CARTESIAN Z    -0.292068      0.167132  KCAL/ANGSTROM
     55         19  H    CARTESIAN X    -3.819613     -0.030814  KCAL/ANGSTROM
     56         19  H    CARTESIAN Y    -1.056568     -0.015784  KCAL/ANGSTROM
     57         19  H    CARTESIAN Z    -0.132287     -0.064938  KCAL/ANGSTROM
     58         20  H    CARTESIAN X    -2.713276     -0.045842  KCAL/ANGSTROM
     59         20  H    CARTESIAN Y    -0.975182      0.266192  KCAL/ANGSTROM
     60         20  H    CARTESIAN Z    -1.516292     -0.024358  KCAL/ANGSTROM
     61         21  H    CARTESIAN X     1.197760      0.050629  KCAL/ANGSTROM
     62         21  H    CARTESIAN Y     0.862605      0.162493  KCAL/ANGSTROM
     63         21  H    CARTESIAN Z    -2.066387      0.080848  KCAL/ANGSTROM




   ATOM   CHEMICAL          X               Y               Z
  NUMBER   SYMBOL      (ANGSTROMS)     (ANGSTROMS)     (ANGSTROMS)

     1       C          2.42753861  *  -0.47908775  *   0.00229728  *
     2       C          1.19428315  *   0.42517699  *   0.14612039  *
     3       C          0.30408941  *  -0.12764009  *   1.17418514  *
     4       O         -0.79181587  *  -0.84899502  *   0.74886458  *
     5       C         -1.86165277  *  -0.23659127  *   0.29338175  *
     6       C         -2.21092593  *   1.13892781  *   0.64284867  *
     7       C         -2.75182507  *  -1.16115452  *  -0.41182253  *
     8       O         -0.64115560  *   0.45237913  *  -1.37637248  *
     9       C          0.55394176  *   0.59316967  *  -1.21518521  *
    10       H          2.92282888  *  -0.64908558  *   0.97199076  *
    11       H          2.17449750  *  -1.47073362  *  -0.39965153  *
    12       H          3.18777384  *  -0.03652700  *  -0.65957829  *
    13       H          1.54809152  *   1.45026247  *   0.48758152  *
    14       H          0.52853399  *  -0.28192452  *   2.21326883  *
    15       H         -3.14936260  *   1.19529081  *   1.24013558  *
    16       H         -1.44614206  *   1.68914545  *   1.21983472  *
    17       H         -2.42029197  *   1.76235305  *  -0.26056894  *
    18       H         -2.48548177  *  -2.23382099  *  -0.29206837  *
    19       H         -3.81961309  *  -1.05656848  *  -0.13228700  *
    20       H         -2.71327598  *  -0.97518216  *  -1.51629187  *
    21       H          1.19776001  *   0.86260542  *  -2.06638742  *

                             CARTESIAN COORDINATES

   1    C        2.427538610    -0.479087749     0.002297279
   2    C        1.194283148     0.425176995     0.146120392
   3    C        0.304089412    -0.127640091     1.174185138
   4    O       -0.791815875    -0.848995017     0.748864584
   5    C       -1.861652766    -0.236591271     0.293381754
   6    C       -2.210925927     1.138927810     0.642848666
   7    C       -2.751825073    -1.161154521    -0.411822533
   8    O       -0.641155601     0.452379130    -1.376372480
   9    C        0.553941759     0.593169668    -1.215185209
  10    H        2.922828880    -0.649085584     0.971990759
  11    H        2.174497500    -1.470733622    -0.399651534
  12    H        3.187773841    -0.036527004    -0.659578286
  13    H        1.548091519     1.450262467     0.487581519
  14    H        0.528533989    -0.281924516     2.213268828
  15    H       -3.149362599     1.195290808     1.240135576
  16    H       -1.446142057     1.689145453     1.219834717
  17    H       -2.420291972     1.762353046    -0.260568942
  18    H       -2.485481768    -2.233820992    -0.292068374
  19    H       -3.819613091    -1.056568485    -0.132286999
  20    H       -2.713275979    -0.975182160    -1.516291868
  21    H        1.197760012     0.862605418    -2.066387417


           Empirical Formula: C7 H12 O2  =    21 atoms



      MOLECULAR POINT GROUP   :   C1  


          ALPHA EIGENVALUES  
 -37.29334 -35.63054 -33.43144 -32.73860 -30.01789 -28.07333 -27.22228 -25.70308
 -23.50530 -22.69057 -21.49989 -21.21542 -20.45118 -19.82198 -19.76033 -18.73802
 -18.55510 -18.35529 -18.10856 -18.01187 -17.55861 -17.39825 -17.17281 -16.47374
 -14.93136 -13.98029  -5.17004  -3.97983  -3.63524  -1.80046  -1.40018  -1.25948
  -1.05433  -0.43576  -0.23947   0.22901   0.49978   0.59865   0.72069   0.83667
   0.84795   0.99981   1.22003   1.74550   1.77746   1.79660   1.98156   2.90224


           BETA EIGENVALUES 
 -37.32800 -35.62878 -33.38074 -32.69748 -29.97514 -27.86407 -27.19909 -25.61283
 -23.35268 -22.58680 -21.39754 -21.08790 -20.43557 -19.73070 -19.70468 -18.64199
 -18.53273 -18.28908 -18.07841 -17.98949 -17.45033 -17.30812 -17.12317 -16.41006
 -14.92803  -5.22976  -4.50503  -3.95108  -3.38819  -1.75446  -1.34398  -1.20934
  -0.80363  -0.25319  -0.07493   0.24172   0.50198   0.60577   0.72484   0.84666
   0.85420   1.05445   1.40400   1.75581   1.78215   1.80439   1.98413   2.90653


              NET ATOMIC CHARGES AND DIPOLE CONTRIBUTIONS

  ATOM NO.   TYPE          CHARGE      No. of ELECS.   s-Pop       p-Pop       
    1          C          -0.426489        4.4265     1.05484     3.37165
    2          C          -0.267274        4.2673     1.06820     3.19907
    3          C           0.011303        3.9887     1.15657     2.83213
    4          O          -0.237953        6.2380     1.83301     4.40494
    5          C           0.629704        3.3703     1.16529     2.20500
    6          C          -0.559440        4.5594     1.06177     3.49767
    7          C          -0.536070        4.5361     1.06147     3.47459
    8          O          -0.506918        6.5069     1.87435     4.63257
    9          C           0.415604        3.5844     1.16406     2.42034
   10          H           0.182094        0.8179     0.81791
   11          H           0.170586        0.8294     0.82941
   12          H           0.178359        0.8216     0.82164
   13          H           0.216458        0.7835     0.78354
   14          H           0.193533        0.8065     0.80647
   15          H           0.230978        0.7690     0.76902
   16          H           0.205886        0.7941     0.79411
   17          H           0.241108        0.7589     0.75889
   18          H           0.223032        0.7770     0.77697
   19          H           0.224348        0.7757     0.77565
   20          H           0.246585        0.7534     0.75342
   21          H           0.164564        0.8354     0.83544
 DIPOLE           X         Y         Z       TOTAL
 POINT-CHG.    -1.041     1.329     1.140     2.037
 HYBRID        -0.300    -0.313    -0.042     0.436
 SUM           -1.341     1.016     1.098     2.009


          ATOMIC ORBITAL ELECTRON POPULATIONS

     Atom    s        px        py        pz   
    1  C   1.05484   1.03637   1.11928   1.21600
    2  C   1.06820   1.04430   1.12855   1.02622
    3  C   1.15657   0.81613   0.98626   1.02974
    4  O   1.83301   1.30272   1.44087   1.66135
    5  C   1.16529   0.73826   0.89269   0.57405
    6  C   1.06177   1.22696   1.04299   1.22771
    7  C   1.06147   1.13950   1.15636   1.17874
    8  O   1.87435   1.31259   1.46637   1.85361
    9  C   1.16406   0.84673   0.61299   0.96061
   10  H   0.81791
   11  H   0.82941
   12  H   0.82164
   13  H   0.78354
   14  H   0.80647
   15  H   0.76902
   16  H   0.79411
   17  H   0.75889
   18  H   0.77697
   19  H   0.77565
   20  H   0.75342
   21  H   0.83544


                    (SZ)    =    0.500000
                    (S**2)  =    0.753657


          ATOMIC ORBITAL SPIN POPULATIONS

    Atom   Total    s     px     py     pz   
         Atomic
    1  C  0.0371  0.007  0.021  0.007  0.003
    2  C -0.0398 -0.005 -0.017 -0.009 -0.009
    3  C  0.9698  0.030  0.212  0.678  0.050
    4  O -0.0167  0.008 -0.017 -0.010  0.003
    5  C  0.0507  0.010  0.013  0.008  0.020
    6  C  0.0046 -0.000  0.001  0.004 -0.000
    7  C -0.0018 -0.000 -0.001 -0.001 -0.000
    8  O -0.0000  0.000 -0.000  0.000 -0.000
    9  C  0.0031  0.000  0.000  0.001  0.002
   10  H -0.0008 -0.001
   11  H -0.0012 -0.001
   12  H  0.0008  0.001
   13  H  0.0175  0.018
   14  H -0.0247 -0.025
   15  H -0.0001 -0.000
   16  H -0.0008 -0.001
   17  H  0.0010  0.001
   18  H  0.0007  0.001
   19  H -0.0000 -0.000
   20  H  0.0010  0.001
   21  H -0.0004 -0.000

 **********************
 *                    *
 * JOB ENDED NORMALLY *
 *                    *
 **********************



 TOTAL JOB TIME:             1.03 SECONDS

 == MOPAC DONE ==
