 *******************************************************************************
 **                                                                           **
 **                              MOPAC v23.2                                  **
 **                                                                           **
 *******************************************************************************
 **          Digital Object Identifier (DOI): 10.5281/zenodo.6511958          **
 **    Visit the DOI location for information on how to cite this program.    **
 *******************************************************************************

                              PM7 CALCULATION RESULTS

 *******************************************************************************
 *  CALCULATION DONE: (MAX THREADS = 40)             Fri Sep 19 21:53:52 2025  *
 *  PM7        - The PM7 Hamiltonian to be used
 *
 *
 *
 *                 CHARGE ON SYSTEM = +1
 *
 *
 *
 *  1SCF       - DO 1 SCF AND THEN STOP 
 *  T=         - A TIME OF 172800.0 SECONDS REQUESTED
 *  DUMP=N     - RESTART FILE WRITTEN EVERY 7200.0 SECONDS REQUESTED
 *  RELSCF     - DEFAULT SCF CRITERION MULTIPLIED BY 0.0001
 *              (DEFAULT SCF CRITERION = 0.00010)
 *  GRADIENTS  - ALL GRADIENTS TO BE PRINTED
 *  DISP       - PRINT DISPERSION AND HYDROGEN BOND ENERGIES
 *******************************************************************************
PM7 1SCF GRADIENTS DISP RELSCF=0.0001 CHARGE=1
 Title: ASE calculation

   ATOM   CHEMICAL          X               Y               Z
  NUMBER   SYMBOL      (ANGSTROMS)     (ANGSTROMS)     (ANGSTROMS)

     1       C         -2.36328497  *  -0.25430685  *   0.47068998  *
     2       C         -0.91685616  *  -0.64532157  *   0.23378290  *
     3       C         -0.44498285  *  -0.39917429  *  -1.22659005  *
     4       C         -0.25051719  *   1.13838742  *  -1.30424790  *
     5       C          0.11545348  *   1.58857723  *   0.12081531  *
     6       C          0.08173900  *   0.27059989  *   1.00386721  *
     7       C          1.44043539  *  -0.22480164  *   0.86726709  *
     8       C          1.86239589  *  -0.96633001  *  -0.30507198  *
     9       C          0.87225813  *  -1.04404723  *  -1.40097899  *
    10       H         -2.58312457  *   0.78047389  *   0.17825591  *
    11       H         -3.04861611  *  -0.89534032  *  -0.10837674  *
    12       H         -2.65414971  *  -0.36474783  *   1.52518818  *
    13       H         -0.78199901  *  -1.71214801  *   0.52415961  *
    14       H         -1.19302784  *  -0.75533274  *  -1.96905781  *
    15       H          0.51762414  *   1.41764509  *  -2.04551963  *
    16       H         -1.18122425  *   1.62700989  *  -1.65319042  *
    17       H         -0.63916653  *   2.28751073  *   0.53579853  *
    18       H          1.07490691  *   2.12631572  *   0.16474488  *
    19       H         -0.25144129  *   0.49266525  *   2.04105242  *
    20       H          2.18126661  *  -0.00542327  *   1.65730180  *
    21       H          2.85909940  *  -0.59425865  *  -0.70509507  *
    22       H          2.18562184  *  -2.02102042  *  -0.00626924  *
    23       H          1.12640917  *  -1.54808916  *  -2.31743462  *



          CARTESIAN COORDINATES 

    NO.       ATOM           X           Y           Z

     1         C         -2.3633     -0.2543      0.4707
     2         C         -0.9169     -0.6453      0.2338
     3         C         -0.4450     -0.3992     -1.2266
     4         C         -0.2505      1.1384     -1.3042
     5         C          0.1155      1.5886      0.1208
     6         C          0.0817      0.2706      1.0039
     7         C          1.4404     -0.2248      0.8673
     8         C          1.8624     -0.9663     -0.3051
     9         C          0.8723     -1.0440     -1.4010
    10         H         -2.5831      0.7805      0.1783
    11         H         -3.0486     -0.8953     -0.1084
    12         H         -2.6541     -0.3647      1.5252
    13         H         -0.7820     -1.7121      0.5242
    14         H         -1.1930     -0.7553     -1.9691
    15         H          0.5176      1.4176     -2.0455
    16         H         -1.1812      1.6270     -1.6532
    17         H         -0.6392      2.2875      0.5358
    18         H          1.0749      2.1263      0.1647
    19         H         -0.2514      0.4927      2.0411
    20         H          2.1813     -0.0054      1.6573
    21         H          2.8591     -0.5943     -0.7051
    22         H          2.1856     -2.0210     -0.0063
    23         H          1.1264     -1.5481     -2.3174

 General Reference for PM7:
 "Optimization of Parameters for Semiempirical Methods VI: More Modifications to the 
 NDDO Approximations and Re-optimization of Parameters", J. J. P. Stewart, J. Mol. Mod., 1:32, 19 (2013)
 https://link.springer.com/article/10.1007/s00894-012-1667-x

           Empirical Formula: C9 H14  =    23 atoms



      MOLECULAR POINT GROUP   :   C1  


          UHF CALCULATION, NO. OF ALPHA ELECTRONS =   25
                           NO. OF BETA  ELECTRONS =   24
  SCF CRITERION =    0.1000E-07

 -------------------------------------------------------------------------------
 PM7 1SCF GRADIENTS DISP RELSCF=0.0001 CHARGE=1
 Title: ASE calculation



     1SCF WAS SPECIFIED, SO BFGS WAS NOT USED                 
     SCF FIELD WAS ACHIEVED                                   


                              PM7 CALCULATION
                                                       MOPAC v23.2 Linux
                                                       Fri Sep 19 21:53:53 2025




          FINAL HEAT OF FORMATION =        205.20148 KCAL/MOL =     858.56300 KJ/MOL

          TOTAL ENERGY            =     -29644.88725 KCAL/MOL = ELECTRONIC ENERGY + CORE-CORE REPULSION
          ENERGY OF ATOMS         =      29852.41387 KCAL/MOL
                              SUM =        207.52661 KCAL/MOL
          DISPERSION ENERGY       =         -2.32513 KCAL/MOL
                              SUM =        205.20148 KCAL/MOL = FINAL HEAT OF FORMATION



          TOTAL ENERGY            =      -1285.52398 EV
          ELECTRONIC ENERGY       =      -7469.17871 EV 
          CORE-CORE REPULSION     =       6183.65473 EV
          COSMO AREA              =        164.25 SQUARE ANGSTROMS
          COSMO VOLUME            =        171.64 CUBIC ANGSTROMS

          GRADIENT NORM           =          1.00507          =       0.20957 PER ATOM
          IONIZATION POTENTIAL    =         13.311671 EV
          ALPHA SOMO LUMO (EV)    =        -13.312 -6.804
          BETA  SOMO LUMO (EV)    =        -15.386 -6.680
          NO. OF ALPHA ELECTRONS  =         25
          NO. OF BETA  ELECTRONS  =         24
          MOLECULAR WEIGHT        =        122.2096         POINT GROUP:  C1  

          MOLECULAR DIMENSIONS (Angstroms)

            Atom       Atom       Distance
            H    21    H    12     5.95170
            H    14    H    20     4.69877
            H    22    H    17     4.22938


          SCF CALCULATIONS        =          1

          WALL-CLOCK TIME         =      1.375 SECONDS
          COMPUTATION TIME        =      0.527 SECONDS

          LARGEST ATOMIC GRADIENTS

          Atom     Label                     Cartesian Gradients           Cartesian Coordinates       |Gradient|
                                           X          Y          Z        X          Y          Z

             2       C                   0.192      0.189      0.243   -0.91686   -0.64532    0.23378      0.363
            17       H                   0.177     -0.267     -0.006   -0.63917    2.28751    0.53580      0.321
            15       H                  -0.245     -0.153      0.087    0.51762    1.41765   -2.04552      0.301
            11       H                  -0.253     -0.084     -0.138   -3.04862   -0.89534   -0.10838      0.300
            23       H                   0.097      0.090     -0.244    1.12641   -1.54809   -2.31743      0.277
             9       C                   0.245      0.120     -0.048    0.87226   -1.04405   -1.40098      0.277
             6       C                   0.040      0.239      0.108    0.08174    0.27060    1.00387      0.265
            18       H                   0.084     -0.084     -0.202    1.07491    2.12632    0.16474      0.234
             4       C                  -0.096      0.072      0.162   -0.25052    1.13839   -1.30425      0.202
             5       C                   0.166     -0.049      0.094    0.11545    1.58858    0.12082      0.197



       FINAL  POINT  AND  DERIVATIVES

   PARAMETER     ATOM    TYPE            VALUE        GRADIENT
      1          1  C    CARTESIAN X    -2.363285      0.042300  KCAL/ANGSTROM
      2          1  C    CARTESIAN Y    -0.254307     -0.017442  KCAL/ANGSTROM
      3          1  C    CARTESIAN Z     0.470690     -0.045297  KCAL/ANGSTROM
      4          2  C    CARTESIAN X    -0.916856      0.192191  KCAL/ANGSTROM
      5          2  C    CARTESIAN Y    -0.645322      0.189280  KCAL/ANGSTROM
      6          2  C    CARTESIAN Z     0.233783      0.243145  KCAL/ANGSTROM
      7          3  C    CARTESIAN X    -0.444983      0.173564  KCAL/ANGSTROM
      8          3  C    CARTESIAN Y    -0.399174     -0.022126  KCAL/ANGSTROM
      9          3  C    CARTESIAN Z    -1.226590      0.077400  KCAL/ANGSTROM
     10          4  C    CARTESIAN X    -0.250517     -0.095633  KCAL/ANGSTROM
     11          4  C    CARTESIAN Y     1.138387      0.071777  KCAL/ANGSTROM
     12          4  C    CARTESIAN Z    -1.304248      0.162449  KCAL/ANGSTROM
     13          5  C    CARTESIAN X     0.115453      0.166316  KCAL/ANGSTROM
     14          5  C    CARTESIAN Y     1.588577     -0.049077  KCAL/ANGSTROM
     15          5  C    CARTESIAN Z     0.120815      0.093652  KCAL/ANGSTROM
     16          6  C    CARTESIAN X     0.081739      0.039649  KCAL/ANGSTROM
     17          6  C    CARTESIAN Y     0.270600      0.239174  KCAL/ANGSTROM
     18          6  C    CARTESIAN Z     1.003867      0.107599  KCAL/ANGSTROM
     19          7  C    CARTESIAN X     1.440435     -0.058145  KCAL/ANGSTROM
     20          7  C    CARTESIAN Y    -0.224802     -0.116707  KCAL/ANGSTROM
     21          7  C    CARTESIAN Z     0.867267     -0.021804  KCAL/ANGSTROM
     22          8  C    CARTESIAN X     1.862396     -0.066806  KCAL/ANGSTROM
     23          8  C    CARTESIAN Y    -0.966330     -0.074838  KCAL/ANGSTROM
     24          8  C    CARTESIAN Z    -0.305072     -0.021490  KCAL/ANGSTROM
     25          9  C    CARTESIAN X     0.872258      0.245219  KCAL/ANGSTROM
     26          9  C    CARTESIAN Y    -1.044047      0.119646  KCAL/ANGSTROM
     27          9  C    CARTESIAN Z    -1.400979     -0.047967  KCAL/ANGSTROM
     28         10  H    CARTESIAN X    -2.583125     -0.019317  KCAL/ANGSTROM
     29         10  H    CARTESIAN Y     0.780474      0.026571  KCAL/ANGSTROM
     30         10  H    CARTESIAN Z     0.178256     -0.130725  KCAL/ANGSTROM
     31         11  H    CARTESIAN X    -3.048616     -0.252574  KCAL/ANGSTROM
     32         11  H    CARTESIAN Y    -0.895340     -0.084213  KCAL/ANGSTROM
     33         11  H    CARTESIAN Z    -0.108377     -0.137891  KCAL/ANGSTROM
     34         12  H    CARTESIAN X    -2.654150     -0.114005  KCAL/ANGSTROM
     35         12  H    CARTESIAN Y    -0.364748      0.024359  KCAL/ANGSTROM
     36         12  H    CARTESIAN Z     1.525188      0.064649  KCAL/ANGSTROM
     37         13  H    CARTESIAN X    -0.781999     -0.173563  KCAL/ANGSTROM
     38         13  H    CARTESIAN Y    -1.712148      0.048179  KCAL/ANGSTROM
     39         13  H    CARTESIAN Z     0.524160      0.058985  KCAL/ANGSTROM
     40         14  H    CARTESIAN X    -1.193028     -0.051231  KCAL/ANGSTROM
     41         14  H    CARTESIAN Y    -0.755333     -0.097460  KCAL/ANGSTROM
     42         14  H    CARTESIAN Z    -1.969058      0.015186  KCAL/ANGSTROM
     43         15  H    CARTESIAN X     0.517624     -0.244539  KCAL/ANGSTROM
     44         15  H    CARTESIAN Y     1.417645     -0.153471  KCAL/ANGSTROM
     45         15  H    CARTESIAN Z    -2.045520      0.086682  KCAL/ANGSTROM
     46         16  H    CARTESIAN X    -1.181224     -0.049517  KCAL/ANGSTROM
     47         16  H    CARTESIAN Y     1.627010      0.004736  KCAL/ANGSTROM
     48         16  H    CARTESIAN Z    -1.653190     -0.137707  KCAL/ANGSTROM
     49         17  H    CARTESIAN X    -0.639167      0.177298  KCAL/ANGSTROM
     50         17  H    CARTESIAN Y     2.287511     -0.267359  KCAL/ANGSTROM
     51         17  H    CARTESIAN Z     0.535799     -0.006263  KCAL/ANGSTROM
     52         18  H    CARTESIAN X     1.074907      0.083560  KCAL/ANGSTROM
     53         18  H    CARTESIAN Y     2.126316     -0.083773  KCAL/ANGSTROM
     54         18  H    CARTESIAN Z     0.164745     -0.201893  KCAL/ANGSTROM
     55         19  H    CARTESIAN X    -0.251441     -0.041636  KCAL/ANGSTROM
     56         19  H    CARTESIAN Y     0.492665     -0.024261  KCAL/ANGSTROM
     57         19  H    CARTESIAN Z     2.041052      0.144100  KCAL/ANGSTROM
     58         20  H    CARTESIAN X     2.181267     -0.080261  KCAL/ANGSTROM
     59         20  H    CARTESIAN Y    -0.005423     -0.003163  KCAL/ANGSTROM
     60         20  H    CARTESIAN Z     1.657302     -0.093065  KCAL/ANGSTROM
     61         21  H    CARTESIAN X     2.859099      0.023680  KCAL/ANGSTROM
     62         21  H    CARTESIAN Y    -0.594259      0.048326  KCAL/ANGSTROM
     63         21  H    CARTESIAN Z    -0.705095      0.054778  KCAL/ANGSTROM
     64         22  H    CARTESIAN X     2.185622      0.006329  KCAL/ANGSTROM
     65         22  H    CARTESIAN Y    -2.021020      0.131495  KCAL/ANGSTROM
     66         22  H    CARTESIAN Z    -0.006269     -0.021009  KCAL/ANGSTROM
     67         23  H    CARTESIAN X     1.126409      0.097124  KCAL/ANGSTROM
     68         23  H    CARTESIAN Y    -1.548089      0.090343  KCAL/ANGSTROM
     69         23  H    CARTESIAN Z    -2.317435     -0.243518  KCAL/ANGSTROM




   ATOM   CHEMICAL          X               Y               Z
  NUMBER   SYMBOL      (ANGSTROMS)     (ANGSTROMS)     (ANGSTROMS)

     1       C         -2.36328497  *  -0.25430685  *   0.47068998  *
     2       C         -0.91685616  *  -0.64532157  *   0.23378290  *
     3       C         -0.44498285  *  -0.39917429  *  -1.22659005  *
     4       C         -0.25051719  *   1.13838742  *  -1.30424790  *
     5       C          0.11545348  *   1.58857723  *   0.12081531  *
     6       C          0.08173900  *   0.27059989  *   1.00386721  *
     7       C          1.44043539  *  -0.22480164  *   0.86726709  *
     8       C          1.86239589  *  -0.96633001  *  -0.30507198  *
     9       C          0.87225813  *  -1.04404723  *  -1.40097899  *
    10       H         -2.58312457  *   0.78047389  *   0.17825591  *
    11       H         -3.04861611  *  -0.89534032  *  -0.10837674  *
    12       H         -2.65414971  *  -0.36474783  *   1.52518818  *
    13       H         -0.78199901  *  -1.71214801  *   0.52415961  *
    14       H         -1.19302784  *  -0.75533274  *  -1.96905781  *
    15       H          0.51762414  *   1.41764509  *  -2.04551963  *
    16       H         -1.18122425  *   1.62700989  *  -1.65319042  *
    17       H         -0.63916653  *   2.28751073  *   0.53579853  *
    18       H          1.07490691  *   2.12631572  *   0.16474488  *
    19       H         -0.25144129  *   0.49266525  *   2.04105242  *
    20       H          2.18126661  *  -0.00542327  *   1.65730180  *
    21       H          2.85909940  *  -0.59425865  *  -0.70509507  *
    22       H          2.18562184  *  -2.02102042  *  -0.00626924  *
    23       H          1.12640917  *  -1.54808916  *  -2.31743462  *

                             CARTESIAN COORDINATES

   1    C       -2.363284970    -0.254306847     0.470689980
   2    C       -0.916856155    -0.645321568     0.233782904
   3    C       -0.444982850    -0.399174288    -1.226590054
   4    C       -0.250517188     1.138387420    -1.304247900
   5    C        0.115453484     1.588577226     0.120815308
   6    C        0.081738999     0.270599893     1.003867213
   7    C        1.440435391    -0.224801641     0.867267089
   8    C        1.862395890    -0.966330011    -0.305071981
   9    C        0.872258129    -1.044047225    -1.400978990
  10    H       -2.583124570     0.780473889     0.178255909
  11    H       -3.048616110    -0.895340321    -0.108376738
  12    H       -2.654149714    -0.364747831     1.525188176
  13    H       -0.781999013    -1.712148010     0.524159612
  14    H       -1.193027844    -0.755332739    -1.969057806
  15    H        0.517624140     1.417645089    -2.045519635
  16    H       -1.181224250     1.627009892    -1.653190420
  17    H       -0.639166533     2.287510727     0.535798531
  18    H        1.074906910     2.126315716     0.164744878
  19    H       -0.251441288     0.492665254     2.041052422
  20    H        2.181266612    -0.005423275     1.657301799
  21    H        2.859099400    -0.594258650    -0.705095071
  22    H        2.185621836    -2.021020417    -0.006269241
  23    H        1.126409167    -1.548089164    -2.317434623


           Empirical Formula: C9 H14  =    23 atoms



      MOLECULAR POINT GROUP   :   C1  


          ALPHA EIGENVALUES  
 -36.81603 -32.68256 -31.11947 -30.13425 -27.76263 -26.58234 -24.80711 -23.60525
 -22.50483 -22.07045 -20.41891 -20.18445 -19.99270 -19.20676 -18.90342 -18.03028
 -17.70459 -17.34273 -16.90539 -16.66850 -16.31898 -15.87052 -15.71159 -15.45507
 -13.31167  -6.80440  -2.00361  -1.87641  -1.52337  -1.23229  -0.90949  -0.53553
  -0.47044  -0.39537  -0.18401   0.15396   0.48785   0.67965   0.71955   0.85234
   1.05854   1.69294   1.73658   1.89241   1.98673   2.20864   2.26353   2.31634
   2.59198   3.45280


           BETA EIGENVALUES 
 -36.77006 -32.64480 -30.99955 -30.11646 -27.72555 -26.47338 -24.68797 -23.55728
 -22.47520 -22.02061 -20.28933 -20.12943 -19.87941 -19.14304 -18.75589 -18.00045
 -17.69498 -17.29917 -16.86527 -16.47054 -16.27933 -15.84282 -15.65902 -15.38637
  -6.68018  -3.85500  -1.98417  -1.86054  -1.50620  -1.19006  -0.77783  -0.46078
  -0.40792  -0.26838  -0.07921   0.25105   0.51528   0.73514   0.80976   0.89638
   1.06440   1.69810   1.74824   1.90946   2.12183   2.25900   2.27891   2.31763
   2.60131   3.45340


              NET ATOMIC CHARGES AND DIPOLE CONTRIBUTIONS

  ATOM NO.   TYPE          CHARGE      No. of ELECS.   s-Pop       p-Pop       
    1          C          -0.458358        4.4584     1.05345     3.40491
    2          C          -0.060063        4.0601     1.07259     2.98747
    3          C          -0.133280        4.1333     1.06728     3.06600
    4          C          -0.273345        4.2733     1.06834     3.20500
    5          C          -0.222552        4.2226     1.07770     3.14485
    6          C          -0.261953        4.2620     1.08879     3.17316
    7          C           0.370397        3.6296     1.20194     2.42766
    8          C          -0.393584        4.3936     1.06074     3.33284
    9          C          -0.159110        4.1591     1.11611     3.04300
   10          H           0.164390        0.8356     0.83561
   11          H           0.177462        0.8225     0.82254
   12          H           0.167500        0.8325     0.83250
   13          H           0.151605        0.8484     0.84839
   14          H           0.181959        0.8180     0.81804
   15          H           0.163628        0.8364     0.83637
   16          H           0.174649        0.8254     0.82535
   17          H           0.187643        0.8124     0.81236
   18          H           0.150911        0.8491     0.84909
   19          H           0.203620        0.7964     0.79638
   20          H           0.171986        0.8280     0.82801
   21          H           0.251575        0.7484     0.74843
   22          H           0.266888        0.7331     0.73311
   23          H           0.178032        0.8220     0.82197
 DIPOLE           X         Y         Z       TOTAL
 POINT-CHG.     4.147    -0.507     2.073     4.664
 HYBRID         0.636     0.026     0.445     0.777
 SUM            4.783    -0.481     2.518     5.427


          ATOMIC ORBITAL ELECTRON POPULATIONS

     Atom    s        px        py        pz   
    1  C   1.05345   1.01591   1.19225   1.19675
    2  C   1.07259   0.97300   1.05409   0.96037
    3  C   1.06728   1.02623   0.99178   1.04799
    4  C   1.06834   1.18912   1.00282   1.01306
    5  C   1.07770   1.17722   0.97019   0.99745
    6  C   1.08879   0.98532   1.04472   1.14312
    7  C   1.20194   1.02551   0.50787   0.89428
    8  C   1.06074   1.14552   1.14015   1.04718
    9  C   1.11611   0.97556   1.04437   1.02307
   10  H   0.83561
   11  H   0.82254
   12  H   0.83250
   13  H   0.84839
   14  H   0.81804
   15  H   0.83637
   16  H   0.82535
   17  H   0.81236
   18  H   0.84909
   19  H   0.79638
   20  H   0.82801
   21  H   0.74843
   22  H   0.73311
   23  H   0.82197


                    (SZ)    =    0.500000
                    (S**2)  =    0.754516


          ATOMIC ORBITAL SPIN POPULATIONS

    Atom   Total    s     px     py     pz   
         Atomic
    1  C -0.0009 -0.000 -0.001 -0.000  0.000
    2  C  0.0248  0.003  0.001  0.001  0.019
    3  C -0.0541 -0.006 -0.023 -0.018 -0.008
    4  C  0.0460  0.008  0.001  0.035  0.002
    5  C  0.0022  0.000  0.000  0.003 -0.001
    6  C -0.0006 -0.000 -0.002  0.002  0.000
    7  C  0.0475  0.002  0.002  0.031  0.013
    8  C -0.0462 -0.006 -0.016 -0.009 -0.015
    9  C  0.9873  0.026  0.142  0.671  0.149
   10  H  0.0000  0.000
   11  H  0.0002  0.000
   12  H  0.0007  0.001
   13  H -0.0011 -0.001
   14  H  0.0039  0.004
   15  H -0.0016 -0.002
   16  H  0.0007  0.001
   17  H  0.0013  0.001
   18  H -0.0001 -0.000
   19  H -0.0001 -0.000
   20  H -0.0018 -0.002
   21  H  0.0100  0.010
   22  H  0.0095  0.010
   23  H -0.0276 -0.028

 **********************
 *                    *
 * JOB ENDED NORMALLY *
 *                    *
 **********************



 TOTAL JOB TIME:             1.80 SECONDS

 == MOPAC DONE ==
