 *******************************************************************************
 **                                                                           **
 **                              MOPAC v23.2                                  **
 **                                                                           **
 *******************************************************************************
 **          Digital Object Identifier (DOI): 10.5281/zenodo.6511958          **
 **    Visit the DOI location for information on how to cite this program.    **
 *******************************************************************************

                              PM7 CALCULATION RESULTS

 *******************************************************************************
 *  CALCULATION DONE: (MAX THREADS = 40)             Fri Sep 19 22:03:45 2025  *
 *  PM7        - The PM7 Hamiltonian to be used
 *
 *
 *
 *                 CHARGE ON SYSTEM = +1
 *
 *
 *
 *  EPS=37.5   - USE ANDREAS KLAMT'S COSMO IMPLICIT SOLVATION MODEL
 *  1SCF       - DO 1 SCF AND THEN STOP 
 *  T=         - A TIME OF 172800.0 SECONDS REQUESTED
 *  DUMP=N     - RESTART FILE WRITTEN EVERY 7200.0 SECONDS REQUESTED
 *  RELSCF     - DEFAULT SCF CRITERION MULTIPLIED BY 0.0001
 *              (DEFAULT SCF CRITERION = 0.00010)
 *  GRADIENTS  - ALL GRADIENTS TO BE PRINTED
 *  DISP       - PRINT DISPERSION AND HYDROGEN BOND ENERGIES
 *******************************************************************************
PM7 1SCF GRADIENTS EPS=37.5 DISP RELSCF=0.0001 CHARGE=1
 Title: ASE calculation

   ATOM   CHEMICAL          X               Y               Z
  NUMBER   SYMBOL      (ANGSTROMS)     (ANGSTROMS)     (ANGSTROMS)

     1       C         -0.95146774  *  -1.83449756  *   1.35470084  *
     2       C         -0.33758790  *  -0.76212338  *   0.56601529  *
     3       C          0.57225807  *  -1.03524917  *  -0.49878740  *
     4       O          1.12328987  *  -0.08561922  *  -1.20577676  *
     5       C          0.85216166  *   1.30966374  *  -0.96139945  *
     6       N          1.41940823  *   2.14835957  *  -1.68227800  *
     7       C         -0.09950287  *   1.51613263  *   0.15634599  *
     8       O         -0.38715469  *   2.76221203  *   0.42811556  *
     9       N         -0.64636993  *   0.52398261  *   0.86029210  *
    10       H         -0.72954107  *  -1.73439723  *   2.44358021  *
    11       H         -2.06600383  *  -1.79723697  *   1.31787442  *
    12       H         -0.65222608  *  -2.85315474  *   1.05621003  *
    13       H          0.90288301  *  -2.02624904  *  -0.83624296  *
    14       H          2.06600383  *   2.02206679  *  -2.44358021  *
    15       H         -1.05483510  *   2.85315474  *   1.21385586  *



          CARTESIAN COORDINATES 

    NO.       ATOM           X           Y           Z

     1         C         -0.9515     -1.8345      1.3547
     2         C         -0.3376     -0.7621      0.5660
     3         C          0.5723     -1.0352     -0.4988
     4         O          1.1233     -0.0856     -1.2058
     5         C          0.8522      1.3097     -0.9614
     6         N          1.4194      2.1484     -1.6823
     7         C         -0.0995      1.5161      0.1563
     8         O         -0.3872      2.7622      0.4281
     9         N         -0.6464      0.5240      0.8603
    10         H         -0.7295     -1.7344      2.4436
    11         H         -2.0660     -1.7972      1.3179
    12         H         -0.6522     -2.8532      1.0562
    13         H          0.9029     -2.0262     -0.8362
    14         H          2.0660      2.0221     -2.4436
    15         H         -1.0548      2.8532      1.2139

 General Reference for PM7:
 "Optimization of Parameters for Semiempirical Methods VI: More Modifications to the 
 NDDO Approximations and Re-optimization of Parameters", J. J. P. Stewart, J. Mol. Mod., 1:32, 19 (2013)
 https://link.springer.com/article/10.1007/s00894-012-1667-x

           Empirical Formula: C5 H6 N2 O2  =    15 atoms



      MOLECULAR POINT GROUP   :   Cs  


          UHF CALCULATION, NO. OF ALPHA ELECTRONS =   24
                           NO. OF BETA  ELECTRONS =   23
  SCF CRITERION =    0.1000E-07

 -------------------------------------------------------------------------------
 PM7 1SCF GRADIENTS EPS=37.5 DISP RELSCF=0.0001 CHARGE=1
 Title: ASE calculation



     1SCF WAS SPECIFIED, SO BFGS WAS NOT USED                 
     SCF FIELD WAS ACHIEVED                                   


                              PM7 CALCULATION
                                                       MOPAC v23.2 Linux
                                                       Fri Sep 19 22:03:46 2025




          FINAL HEAT OF FORMATION =        100.56258 KCAL/MOL =     420.75383 KJ/MOL

          TOTAL ENERGY            =     -38078.47430 KCAL/MOL = ELECTRONIC ENERGY + CORE-CORE REPULSION + SOLVATION ENERGY
          ENERGY OF ATOMS         =      38180.68370 KCAL/MOL
                              SUM =        102.20940 KCAL/MOL
          DISPERSION ENERGY       =         -1.64682 KCAL/MOL
                              SUM =        100.56258 KCAL/MOL = FINAL HEAT OF FORMATION

          VAN DER WAALS AREA      =        152.24 SQUARE ANGSTROMS


          TOTAL ENERGY            =      -1651.23893 EV
          ELECTRONIC ENERGY       =      -2143.87210 EV 
          CORE-CORE REPULSION     =        492.63317 EV

          DIELECTRIC ENERGY       =         -2.56684 EV
          COSMO AREA              =        152.24 SQUARE ANGSTROMS
          COSMO VOLUME            =        142.61 CUBIC ANGSTROMS

          GRADIENT NORM           =         17.37626          =       4.48653 PER ATOM
          IONIZATION POTENTIAL    =         10.116897 EV
          ALPHA SOMO LUMO (EV)    =        -10.117 -2.274
          BETA  SOMO LUMO (EV)    =        -11.596 -3.368
          NO. OF ALPHA ELECTRONS  =         24
          NO. OF BETA  ELECTRONS  =         23
          MOLECULAR WEIGHT        =        126.1146         POINT GROUP:  Cs  

          MOLECULAR DIMENSIONS (Angstroms)

            Atom       Atom       Distance
            H    14    H    10     6.76834
            H    15    H    13     5.62747
            H    11    H    14     1.73377


          SCF CALCULATIONS        =          2

          WALL-CLOCK TIME         =      0.664 SECONDS
          COMPUTATION TIME        =      2.155 SECONDS

          LARGEST ATOMIC GRADIENTS

          Atom     Label                     Cartesian Gradients           Cartesian Coordinates       |Gradient|
                                           X          Y          Z        X          Y          Z

             6       N                   0.697     -8.836     -0.309    1.41941    2.14836   -1.68228      8.869
             5       C                   1.523      7.610     -2.082    0.85216    1.30966   -0.96140      8.035
             9       N                   1.245     -5.478     -1.195   -0.64637    0.52398    0.86029      5.743
             1       C                   2.943     -1.033     -3.510   -0.95147   -1.83450    1.35470      4.695
             3       C                  -1.054     -4.241      1.527    0.57226   -1.03525   -0.49879      4.629
            14       H                  -1.415      4.032      1.350    2.06600    2.02207   -2.44358      4.481
             7       C                   0.442      3.473     -0.758   -0.09950    1.51613    0.15635      3.582
             2       C                  -1.513      2.530      1.678   -0.33759   -0.76212    0.56602      3.393
             8       O                  -1.769      1.104      1.714   -0.38715    2.76221    0.42812      2.699
             4       O                   1.631     -0.023     -2.026    1.12329   -0.08562   -1.20578      2.601



       FINAL  POINT  AND  DERIVATIVES

   PARAMETER     ATOM    TYPE            VALUE        GRADIENT
      1          1  C    CARTESIAN X    -0.951468      2.942905  KCAL/ANGSTROM
      2          1  C    CARTESIAN Y    -1.834498     -1.032803  KCAL/ANGSTROM
      3          1  C    CARTESIAN Z     1.354701     -3.509808  KCAL/ANGSTROM
      4          2  C    CARTESIAN X    -0.337588     -1.513181  KCAL/ANGSTROM
      5          2  C    CARTESIAN Y    -0.762123      2.530493  KCAL/ANGSTROM
      6          2  C    CARTESIAN Z     0.566015      1.678391  KCAL/ANGSTROM
      7          3  C    CARTESIAN X     0.572258     -1.053633  KCAL/ANGSTROM
      8          3  C    CARTESIAN Y    -1.035249     -4.241269  KCAL/ANGSTROM
      9          3  C    CARTESIAN Z    -0.498787      1.526973  KCAL/ANGSTROM
     10          4  O    CARTESIAN X     1.123290      1.630577  KCAL/ANGSTROM
     11          4  O    CARTESIAN Y    -0.085619     -0.023124  KCAL/ANGSTROM
     12          4  O    CARTESIAN Z    -1.205777     -2.026131  KCAL/ANGSTROM
     13          5  C    CARTESIAN X     0.852162      1.523293  KCAL/ANGSTROM
     14          5  C    CARTESIAN Y     1.309664      7.609513  KCAL/ANGSTROM
     15          5  C    CARTESIAN Z    -0.961399     -2.081901  KCAL/ANGSTROM
     16          6  N    CARTESIAN X     1.419408      0.697467  KCAL/ANGSTROM
     17          6  N    CARTESIAN Y     2.148360     -8.835721  KCAL/ANGSTROM
     18          6  N    CARTESIAN Z    -1.682278     -0.308956  KCAL/ANGSTROM
     19          7  C    CARTESIAN X    -0.099503      0.441937  KCAL/ANGSTROM
     20          7  C    CARTESIAN Y     1.516133      3.472526  KCAL/ANGSTROM
     21          7  C    CARTESIAN Z     0.156346     -0.757736  KCAL/ANGSTROM
     22          8  O    CARTESIAN X    -0.387155     -1.768592  KCAL/ANGSTROM
     23          8  O    CARTESIAN Y     2.762212      1.103589  KCAL/ANGSTROM
     24          8  O    CARTESIAN Z     0.428116      1.713943  KCAL/ANGSTROM
     25          9  N    CARTESIAN X    -0.646370      1.245110  KCAL/ANGSTROM
     26          9  N    CARTESIAN Y     0.523983     -5.478041  KCAL/ANGSTROM
     27          9  N    CARTESIAN Z     0.860292     -1.194640  KCAL/ANGSTROM
     28         10  H    CARTESIAN X    -0.729541     -1.113719  KCAL/ANGSTROM
     29         10  H    CARTESIAN Y    -1.734397      0.512514  KCAL/ANGSTROM
     30         10  H    CARTESIAN Z     2.443580      1.898161  KCAL/ANGSTROM
     31         11  H    CARTESIAN X    -2.066004     -1.725378  KCAL/ANGSTROM
     32         11  H    CARTESIAN Y    -1.797237      0.447411  KCAL/ANGSTROM
     33         11  H    CARTESIAN Z     1.317874      1.407365  KCAL/ANGSTROM
     34         12  H    CARTESIAN X    -0.652226     -0.587938  KCAL/ANGSTROM
     35         12  H    CARTESIAN Y    -2.853155     -0.481970  KCAL/ANGSTROM
     36         12  H    CARTESIAN Z     1.056210      0.746568  KCAL/ANGSTROM
     37         13  H    CARTESIAN X     0.902883     -0.593090  KCAL/ANGSTROM
     38         13  H    CARTESIAN Y    -2.026249      2.274569  KCAL/ANGSTROM
     39         13  H    CARTESIAN Z    -0.836243      0.656540  KCAL/ANGSTROM
     40         14  H    CARTESIAN X     2.066004     -1.414548  KCAL/ANGSTROM
     41         14  H    CARTESIAN Y     2.022067      4.031832  KCAL/ANGSTROM
     42         14  H    CARTESIAN Z    -2.443580      1.350269  KCAL/ANGSTROM
     43         15  H    CARTESIAN X    -1.054835      1.288789  KCAL/ANGSTROM
     44         15  H    CARTESIAN Y     2.853155     -1.889517  KCAL/ANGSTROM
     45         15  H    CARTESIAN Z     1.213856     -1.099038  KCAL/ANGSTROM




   ATOM   CHEMICAL          X               Y               Z
  NUMBER   SYMBOL      (ANGSTROMS)     (ANGSTROMS)     (ANGSTROMS)

     1       C         -0.95146774  *  -1.83449756  *   1.35470084  *
     2       C         -0.33758790  *  -0.76212338  *   0.56601529  *
     3       C          0.57225807  *  -1.03524917  *  -0.49878740  *
     4       O          1.12328987  *  -0.08561922  *  -1.20577676  *
     5       C          0.85216166  *   1.30966374  *  -0.96139945  *
     6       N          1.41940823  *   2.14835957  *  -1.68227800  *
     7       C         -0.09950287  *   1.51613263  *   0.15634599  *
     8       O         -0.38715469  *   2.76221203  *   0.42811556  *
     9       N         -0.64636993  *   0.52398261  *   0.86029210  *
    10       H         -0.72954107  *  -1.73439723  *   2.44358021  *
    11       H         -2.06600383  *  -1.79723697  *   1.31787442  *
    12       H         -0.65222608  *  -2.85315474  *   1.05621003  *
    13       H          0.90288301  *  -2.02624904  *  -0.83624296  *
    14       H          2.06600383  *   2.02206679  *  -2.44358021  *
    15       H         -1.05483510  *   2.85315474  *   1.21385586  *

                             CARTESIAN COORDINATES

   1    C       -0.951467744    -1.834497565     1.354700840
   2    C       -0.337587902    -0.762123377     0.566015295
   3    C        0.572258065    -1.035249171    -0.498787399
   4    O        1.123289874    -0.085619217    -1.205776758
   5    C        0.852161656     1.309663743    -0.961399450
   6    N        1.419408227     2.148359569    -1.682277998
   7    C       -0.099502871     1.516132627     0.156345994
   8    O       -0.387154693     2.762212029     0.428115564
   9    N       -0.646369927     0.523982613     0.860292100
  10    H       -0.729541073    -1.734397226     2.443580206
  11    H       -2.066003828    -1.797236971     1.317874417
  12    H       -0.652226075    -2.853154736     1.056210030
  13    H        0.902883005    -2.026249036    -0.836242959
  14    H        2.066003828     2.022066791    -2.443580206
  15    H       -1.054835098     2.853154736     1.213855858


           Empirical Formula: C5 H6 N2 O2  =    15 atoms



      MOLECULAR POINT GROUP   :   Cs  


          ALPHA EIGENVALUES  
 -37.92558 -37.21420 -33.40673 -32.60700 -28.85575 -26.23932 -25.51218 -23.17858
 -21.10102 -20.01734 -19.02184 -17.94600 -17.09676 -16.58773 -16.02235 -15.87725
 -15.40528 -14.95619 -14.07663 -13.80630 -12.95842 -12.91510 -11.70287 -10.11690
  -2.27385  -1.14459  -0.76092   0.37842   0.38448   1.00885   1.51881   1.83889
   2.47741   2.82337   3.30691   3.88391   4.22738   4.27775   4.81830   5.01674
   5.90771   6.07040


           BETA EIGENVALUES 
 -37.97612 -36.86436 -32.96363 -32.24614 -28.67453 -26.14655 -25.33942 -23.06302
 -21.02918 -19.92322 -18.91684 -17.52174 -17.00203 -16.49091 -15.77058 -15.60710
 -15.01284 -14.89222 -14.05802 -13.19530 -12.80957 -12.56585 -11.59601  -3.36845
  -1.25298  -0.65528  -0.44498   0.46374   0.81890   1.09841   1.56802   1.92224
   2.56293   2.92315   3.42903   3.94644   4.27787   4.34909   4.86719   5.03260
   5.97979   6.08612


              NET ATOMIC CHARGES AND DIPOLE CONTRIBUTIONS

  ATOM NO.   TYPE          CHARGE      No. of ELECS.   s-Pop       p-Pop       
    1          C          -0.470510        4.4705     1.05132     3.41920
    2          C           0.262207        3.7378     1.09235     2.64544
    3          C           0.177085        3.8229     1.17833     2.64459
    4          O          -0.230294        6.2303     1.85811     4.37218
    5          C           0.309221        3.6908     1.09797     2.59281
    6          N          -0.379871        5.3799     1.67086     3.70901
    7          C           0.468047        3.5320     1.09171     2.44024
    8          O          -0.327118        6.3271     1.84402     4.48310
    9          N          -0.497101        5.4971     1.74205     3.75505
   10          H           0.219921        0.7801     0.78008
   11          H           0.219635        0.7804     0.78037
   12          H           0.201298        0.7987     0.79870
   13          H           0.250257        0.7497     0.74974
   14          H           0.369208        0.6308     0.63079
   15          H           0.428016        0.5720     0.57198
 DIPOLE           X         Y         Z       TOTAL
 POINT-CHG.    -0.246    -3.780     0.501     3.821
 HYBRID         0.621    -0.021    -0.737     0.964
 SUM            0.375    -3.801    -0.236     3.827


          ATOMIC ORBITAL ELECTRON POPULATIONS

     Atom    s        px        py        pz   
    1  C   1.05132   1.18315   1.08199   1.15406
    2  C   1.09235   0.86607   0.88646   0.89291
    3  C   1.17833   0.83009   0.96590   0.84860
    4  O   1.85811   1.57050   1.27444   1.52723
    5  C   1.09797   0.93310   0.72798   0.93173
    6  N   1.67086   1.15773   1.38767   1.16361
    7  C   1.09171   0.80344   0.81782   0.81898
    8  O   1.84402   1.62623   1.27284   1.58403
    9  N   1.74205   1.32816   1.08547   1.34142
   10  H   0.78008
   11  H   0.78037
   12  H   0.79870
   13  H   0.74974
   14  H   0.63079
   15  H   0.57198


                    (SZ)    =    0.500000
                    (S**2)  =    0.788297


          ATOMIC ORBITAL SPIN POPULATIONS

    Atom   Total    s     px     py     pz   
         Atomic
    1  C -0.0038 -0.002  0.003 -0.004 -0.000
    2  C  0.3086  0.006  0.171  0.010  0.122
    3  C  0.2906  0.004  0.166  0.003  0.118
    4  O  0.1361  0.005  0.075  0.005  0.052
    5  C -0.1330 -0.007 -0.067 -0.009 -0.050
    6  N  0.2010  0.006  0.109  0.006  0.080
    7  C  0.1642  0.004  0.091  0.003  0.067
    8  O  0.0985  0.004  0.056 -0.002  0.041
    9  N -0.0710 -0.001 -0.034 -0.010 -0.026
   10  H  0.0141  0.014
   11  H  0.0141  0.014
   12  H  0.0001  0.000
   13  H -0.0081 -0.008
   14  H -0.0075 -0.007
   15  H -0.0040 -0.004

 **********************
 *                    *
 * JOB ENDED NORMALLY *
 *                    *
 **********************



 TOTAL JOB TIME:             0.93 SECONDS

 == MOPAC DONE ==
