 *******************************************************************************
 **                                                                           **
 **                              MOPAC v23.2                                  **
 **                                                                           **
 *******************************************************************************
 **          Digital Object Identifier (DOI): 10.5281/zenodo.6511958          **
 **    Visit the DOI location for information on how to cite this program.    **
 *******************************************************************************

                              PM7 CALCULATION RESULTS

 *******************************************************************************
 *  CALCULATION DONE: (MAX THREADS = 40)             Fri Sep 19 21:39:28 2025  *
 *  PM7        - The PM7 Hamiltonian to be used
 *
 *
 *
 *                 CHARGE ON SYSTEM = +1
 *
 *
 *
 *  EPS=37.5   - USE ANDREAS KLAMT'S COSMO IMPLICIT SOLVATION MODEL
 *  1SCF       - DO 1 SCF AND THEN STOP 
 *  T=         - A TIME OF 172800.0 SECONDS REQUESTED
 *  DUMP=N     - RESTART FILE WRITTEN EVERY 7200.0 SECONDS REQUESTED
 *  RELSCF     - DEFAULT SCF CRITERION MULTIPLIED BY 0.0001
 *              (DEFAULT SCF CRITERION = 0.00010)
 *  GRADIENTS  - ALL GRADIENTS TO BE PRINTED
 *  DISP       - PRINT DISPERSION AND HYDROGEN BOND ENERGIES
 *******************************************************************************
PM7 1SCF GRADIENTS EPS=37.5 DISP RELSCF=0.0001 CHARGE=1
 Title: ASE calculation

   ATOM   CHEMICAL          X               Y               Z
  NUMBER   SYMBOL      (ANGSTROMS)     (ANGSTROMS)     (ANGSTROMS)

     1       C         -3.05415513  *   0.88557694  *  -0.03816907  *
     2       C         -2.15523529  *  -0.25153885  *   0.34181217  *
     3       C         -1.18436088  *  -0.78858704  *  -0.76178807  *
     4       C         -0.08356916  *  -0.18101056  *   0.09663442  *
     5       C          1.15900024  *  -0.95928598  *   0.65978046  *
     6       N          2.00203585  *   0.15391833  *   0.22593128  *
     7       C          3.36800824  *   0.44006920  *   0.43071880  *
     8       C          0.91981876  *   0.93647379  *  -0.36914427  *
     9       O         -0.97627769  *   0.26254867  *   1.08973040  *
    10       H         -3.98338219  *   0.53202301  *  -0.51252064  *
    11       H         -3.35095136  *   1.46748991  *   0.85230028  *
    12       H         -2.58341070  *   1.59624786  *  -0.72896440  *
    13       H         -2.63099155  *  -1.02242863  *   0.97099033  *
    14       H         -1.32477845  *  -0.36002680  *  -1.75982304  *
    15       H         -1.16870433  *  -1.87859122  *  -0.87262990  *
    16       H          1.39182092  *  -1.92728023  *   0.17317037  *
    17       H          1.13780306  *  -1.12773920  *   1.75982304  *
    18       H          3.81506613  *   1.01858491  *  -0.41379165  *
    19       H          3.98338219  *  -0.47753761  *   0.58457234  *
    20       H          3.51109530  *   1.07497373  *   1.34907237  *
    21       H          1.00998290  *   1.09863538  *  -1.46043322  *
    22       H          0.74790799  *   1.92728023  *   0.11010810  *



          CARTESIAN COORDINATES 

    NO.       ATOM           X           Y           Z

     1         C         -3.0542      0.8856     -0.0382
     2         C         -2.1552     -0.2515      0.3418
     3         C         -1.1844     -0.7886     -0.7618
     4         C         -0.0836     -0.1810      0.0966
     5         C          1.1590     -0.9593      0.6598
     6         N          2.0020      0.1539      0.2259
     7         C          3.3680      0.4401      0.4307
     8         C          0.9198      0.9365     -0.3691
     9         O         -0.9763      0.2625      1.0897
    10         H         -3.9834      0.5320     -0.5125
    11         H         -3.3510      1.4675      0.8523
    12         H         -2.5834      1.5962     -0.7290
    13         H         -2.6310     -1.0224      0.9710
    14         H         -1.3248     -0.3600     -1.7598
    15         H         -1.1687     -1.8786     -0.8726
    16         H          1.3918     -1.9273      0.1732
    17         H          1.1378     -1.1277      1.7598
    18         H          3.8151      1.0186     -0.4138
    19         H          3.9834     -0.4775      0.5846
    20         H          3.5111      1.0750      1.3491
    21         H          1.0100      1.0986     -1.4604
    22         H          0.7479      1.9273      0.1101

 General Reference for PM7:
 "Optimization of Parameters for Semiempirical Methods VI: More Modifications to the 
 NDDO Approximations and Re-optimization of Parameters", J. J. P. Stewart, J. Mol. Mod., 1:32, 19 (2013)
 https://link.springer.com/article/10.1007/s00894-012-1667-x

           Empirical Formula: C7 H13 N O  =    22 atoms



      MOLECULAR POINT GROUP   :   C1  


          UHF CALCULATION, NO. OF ALPHA ELECTRONS =   26
                           NO. OF BETA  ELECTRONS =   25
  SCF CRITERION =    0.1000E-07

 -------------------------------------------------------------------------------
 PM7 1SCF GRADIENTS EPS=37.5 DISP RELSCF=0.0001 CHARGE=1
 Title: ASE calculation



     1SCF WAS SPECIFIED, SO BFGS WAS NOT USED                 
     SCF FIELD WAS ACHIEVED                                   


                              PM7 CALCULATION
                                                       MOPAC v23.2 Linux
                                                       Fri Sep 19 21:39:29 2025




          FINAL HEAT OF FORMATION =        108.13630 KCAL/MOL =     452.44226 KJ/MOL

          TOTAL ENERGY            =     -34828.53768 KCAL/MOL = ELECTRONIC ENERGY + CORE-CORE REPULSION + SOLVATION ENERGY
          ENERGY OF ATOMS         =      34938.70333 KCAL/MOL
                              SUM =        110.16564 KCAL/MOL
          DISPERSION ENERGY       =         -2.02935 KCAL/MOL
                              SUM =        108.13630 KCAL/MOL = FINAL HEAT OF FORMATION

          VAN DER WAALS AREA      =        175.09 SQUARE ANGSTROMS


          TOTAL ENERGY            =      -1510.30834 EV
          ELECTRONIC ENERGY       =      -2387.74819 EV 
          CORE-CORE REPULSION     =        877.43985 EV

          DIELECTRIC ENERGY       =         -2.33949 EV
          COSMO AREA              =        175.09 SQUARE ANGSTROMS
          COSMO VOLUME            =        173.54 CUBIC ANGSTROMS

          GRADIENT NORM           =         21.36969          =       4.55603 PER ATOM
          IONIZATION POTENTIAL    =         10.924822 EV
          ALPHA SOMO LUMO (EV)    =        -10.925 -0.124
          BETA  SOMO LUMO (EV)    =        -10.929 -1.726
          NO. OF ALPHA ELECTRONS  =         26
          NO. OF BETA  ELECTRONS  =         25
          MOLECULAR WEIGHT        =        127.1858         POINT GROUP:  C1  

          MOLECULAR DIMENSIONS (Angstroms)

            Atom       Atom       Distance
            H    19    H    10     8.10507
            H    22    H    15     4.09187
            H    21    H    17     3.49646


          SCF CALCULATIONS        =          2

          WALL-CLOCK TIME         =      0.961 SECONDS
          COMPUTATION TIME        =      0.535 SECONDS

          LARGEST ATOMIC GRADIENTS

          Atom     Label                     Cartesian Gradients           Cartesian Coordinates       |Gradient|
                                           X          Y          Z        X          Y          Z

             4       C                 -11.492      1.990      6.603   -0.08357   -0.18101    0.09663     13.402
             9       O                   8.993     -1.650     -5.200   -0.97628    0.26255    1.08973     10.519
             5       C                   3.904     -3.840     -0.243    1.15900   -0.95929    0.65978      5.482
             8       C                   2.871      2.849     -3.505    0.91982    0.93647   -0.36914      5.352
             1       C                   3.473     -2.036     -2.273   -3.05416    0.88558   -0.03817      4.623
             3       C                   3.820     -1.275     -2.194   -1.18436   -0.78859   -0.76179      4.586
             2       C                  -3.990      1.181      0.476   -2.15524   -0.25154    0.34181      4.188
             7       C                   3.228      1.463      1.416    3.36801    0.44007    0.43072      3.816
             6       N                  -2.846     -0.661     -0.510    2.00204    0.15392    0.22593      2.966
            22       H                  -1.946      0.282      1.339    0.74791    1.92728    0.11011      2.378



       FINAL  POINT  AND  DERIVATIVES

   PARAMETER     ATOM    TYPE            VALUE        GRADIENT
      1          1  C    CARTESIAN X    -3.054155      3.472729  KCAL/ANGSTROM
      2          1  C    CARTESIAN Y     0.885577     -2.035544  KCAL/ANGSTROM
      3          1  C    CARTESIAN Z    -0.038169     -2.273006  KCAL/ANGSTROM
      4          2  C    CARTESIAN X    -2.155235     -3.989545  KCAL/ANGSTROM
      5          2  C    CARTESIAN Y    -0.251539      1.181403  KCAL/ANGSTROM
      6          2  C    CARTESIAN Z     0.341812      0.476101  KCAL/ANGSTROM
      7          3  C    CARTESIAN X    -1.184361      3.819966  KCAL/ANGSTROM
      8          3  C    CARTESIAN Y    -0.788587     -1.274723  KCAL/ANGSTROM
      9          3  C    CARTESIAN Z    -0.761788     -2.194060  KCAL/ANGSTROM
     10          4  C    CARTESIAN X    -0.083569    -11.491693  KCAL/ANGSTROM
     11          4  C    CARTESIAN Y    -0.181011      1.990124  KCAL/ANGSTROM
     12          4  C    CARTESIAN Z     0.096634      6.602926  KCAL/ANGSTROM
     13          5  C    CARTESIAN X     1.159000      3.904126  KCAL/ANGSTROM
     14          5  C    CARTESIAN Y    -0.959286     -3.840285  KCAL/ANGSTROM
     15          5  C    CARTESIAN Z     0.659780     -0.242994  KCAL/ANGSTROM
     16          6  N    CARTESIAN X     2.002036     -2.846269  KCAL/ANGSTROM
     17          6  N    CARTESIAN Y     0.153918     -0.661066  KCAL/ANGSTROM
     18          6  N    CARTESIAN Z     0.225931     -0.509949  KCAL/ANGSTROM
     19          7  C    CARTESIAN X     3.368008      3.227943  KCAL/ANGSTROM
     20          7  C    CARTESIAN Y     0.440069      1.462807  KCAL/ANGSTROM
     21          7  C    CARTESIAN Z     0.430719      1.415526  KCAL/ANGSTROM
     22          8  C    CARTESIAN X     0.919819      2.870508  KCAL/ANGSTROM
     23          8  C    CARTESIAN Y     0.936474      2.848903  KCAL/ANGSTROM
     24          8  C    CARTESIAN Z    -0.369144     -3.505283  KCAL/ANGSTROM
     25          9  O    CARTESIAN X    -0.976278      8.993317  KCAL/ANGSTROM
     26          9  O    CARTESIAN Y     0.262549     -1.650312  KCAL/ANGSTROM
     27          9  O    CARTESIAN Z     1.089730     -5.199826  KCAL/ANGSTROM
     28         10  H    CARTESIAN X    -3.983382     -1.200169  KCAL/ANGSTROM
     29         10  H    CARTESIAN Y     0.532023      0.461077  KCAL/ANGSTROM
     30         10  H    CARTESIAN Z    -0.512521      0.272253  KCAL/ANGSTROM
     31         11  H    CARTESIAN X    -3.350951     -0.275589  KCAL/ANGSTROM
     32         11  H    CARTESIAN Y     1.467490      0.543703  KCAL/ANGSTROM
     33         11  H    CARTESIAN Z     0.852300      0.786964  KCAL/ANGSTROM
     34         12  H    CARTESIAN X    -2.583411     -1.033960  KCAL/ANGSTROM
     35         12  H    CARTESIAN Y     1.596248      0.204398  KCAL/ANGSTROM
     36         12  H    CARTESIAN Z    -0.728964      0.620704  KCAL/ANGSTROM
     37         13  H    CARTESIAN X    -2.630992     -0.491897  KCAL/ANGSTROM
     38         13  H    CARTESIAN Y    -1.022429     -0.069240  KCAL/ANGSTROM
     39         13  H    CARTESIAN Z     0.970990      0.658416  KCAL/ANGSTROM
     40         14  H    CARTESIAN X    -1.324778     -1.357684  KCAL/ANGSTROM
     41         14  H    CARTESIAN Y    -0.360027     -0.499200  KCAL/ANGSTROM
     42         14  H    CARTESIAN Z    -1.759823      0.067427  KCAL/ANGSTROM
     43         15  H    CARTESIAN X    -1.168704     -1.125956  KCAL/ANGSTROM
     44         15  H    CARTESIAN Y    -1.878591      0.207451  KCAL/ANGSTROM
     45         15  H    CARTESIAN Z    -0.872630     -0.061845  KCAL/ANGSTROM
     46         16  H    CARTESIAN X     1.391821     -0.681862  KCAL/ANGSTROM
     47         16  H    CARTESIAN Y    -1.927280      0.469665  KCAL/ANGSTROM
     48         16  H    CARTESIAN Z     0.173170      0.276461  KCAL/ANGSTROM
     49         17  H    CARTESIAN X     1.137803     -1.827342  KCAL/ANGSTROM
     50         17  H    CARTESIAN Y    -1.127739      0.210934  KCAL/ANGSTROM
     51         17  H    CARTESIAN Z     1.759823      1.138014  KCAL/ANGSTROM
     52         18  H    CARTESIAN X     3.815066      1.185117  KCAL/ANGSTROM
     53         18  H    CARTESIAN Y     1.018585     -0.007140  KCAL/ANGSTROM
     54         18  H    CARTESIAN Z    -0.413792     -0.514668  KCAL/ANGSTROM
     55         19  H    CARTESIAN X     3.983382      1.363612  KCAL/ANGSTROM
     56         19  H    CARTESIAN Y    -0.477538     -0.369947  KCAL/ANGSTROM
     57         19  H    CARTESIAN Z     0.584572     -0.207207  KCAL/ANGSTROM
     58         20  H    CARTESIAN X     3.511095      0.166728  KCAL/ANGSTROM
     59         20  H    CARTESIAN Y     1.074974      0.379098  KCAL/ANGSTROM
     60         20  H    CARTESIAN Z     1.349072      0.526605  KCAL/ANGSTROM
     61         21  H    CARTESIAN X     1.009983     -0.736380  KCAL/ANGSTROM
     62         21  H    CARTESIAN Y     1.098635      0.166348  KCAL/ANGSTROM
     63         21  H    CARTESIAN Z    -1.460433      0.528823  KCAL/ANGSTROM
     64         22  H    CARTESIAN X     0.747908     -1.945703  KCAL/ANGSTROM
     65         22  H    CARTESIAN Y     1.927280      0.281541  KCAL/ANGSTROM
     66         22  H    CARTESIAN Z     0.110108      1.338613  KCAL/ANGSTROM




   ATOM   CHEMICAL          X               Y               Z
  NUMBER   SYMBOL      (ANGSTROMS)     (ANGSTROMS)     (ANGSTROMS)

     1       C         -3.05415513  *   0.88557694  *  -0.03816907  *
     2       C         -2.15523529  *  -0.25153885  *   0.34181217  *
     3       C         -1.18436088  *  -0.78858704  *  -0.76178807  *
     4       C         -0.08356916  *  -0.18101056  *   0.09663442  *
     5       C          1.15900024  *  -0.95928598  *   0.65978046  *
     6       N          2.00203585  *   0.15391833  *   0.22593128  *
     7       C          3.36800824  *   0.44006920  *   0.43071880  *
     8       C          0.91981876  *   0.93647379  *  -0.36914427  *
     9       O         -0.97627769  *   0.26254867  *   1.08973040  *
    10       H         -3.98338219  *   0.53202301  *  -0.51252064  *
    11       H         -3.35095136  *   1.46748991  *   0.85230028  *
    12       H         -2.58341070  *   1.59624786  *  -0.72896440  *
    13       H         -2.63099155  *  -1.02242863  *   0.97099033  *
    14       H         -1.32477845  *  -0.36002680  *  -1.75982304  *
    15       H         -1.16870433  *  -1.87859122  *  -0.87262990  *
    16       H          1.39182092  *  -1.92728023  *   0.17317037  *
    17       H          1.13780306  *  -1.12773920  *   1.75982304  *
    18       H          3.81506613  *   1.01858491  *  -0.41379165  *
    19       H          3.98338219  *  -0.47753761  *   0.58457234  *
    20       H          3.51109530  *   1.07497373  *   1.34907237  *
    21       H          1.00998290  *   1.09863538  *  -1.46043322  *
    22       H          0.74790799  *   1.92728023  *   0.11010810  *

                             CARTESIAN COORDINATES

   1    C       -3.054155132     0.885576939    -0.038169075
   2    C       -2.155235291    -0.251538854     0.341812174
   3    C       -1.184360880    -0.788587039    -0.761788067
   4    C       -0.083569156    -0.181010564     0.096634423
   5    C        1.159000244    -0.959285979     0.659780463
   6    N        2.002035848     0.153918326     0.225931282
   7    C        3.368008238     0.440069203     0.430718798
   8    C        0.919818762     0.936473786    -0.369144268
   9    O       -0.976277691     0.262548671     1.089730400
  10    H       -3.983382190     0.532023006    -0.512520639
  11    H       -3.350951357     1.467489907     0.852300278
  12    H       -2.583410700     1.596247861    -0.728964403
  13    H       -2.630991552    -1.022428627     0.970990326
  14    H       -1.324778445    -0.360026798    -1.759823041
  15    H       -1.168704329    -1.878591218    -0.872629901
  16    H        1.391820918    -1.927280232     0.173170367
  17    H        1.137803060    -1.127739197     1.759823041
  18    H        3.815066134     1.018584909    -0.413791654
  19    H        3.983382190    -0.477537612     0.584572343
  20    H        3.511095300     1.074973730     1.349072370
  21    H        1.009982897     1.098635384    -1.460433217
  22    H        0.747907990     1.927280232     0.110108101


           Empirical Formula: C7 H13 N O  =    22 atoms



      MOLECULAR POINT GROUP   :   C1  


          ALPHA EIGENVALUES  
 -38.71792 -31.87949 -28.51629 -26.96968 -25.26135 -25.07220 -22.98091 -20.52665
 -19.30808 -18.66189 -18.25197 -18.08000 -16.74184 -16.28106 -15.63415 -14.71796
 -14.66416 -14.11700 -13.82487 -13.71611 -13.30388 -13.20189 -12.32529 -12.04988
 -11.45602 -10.92482  -0.12431   1.37441   1.93890   2.11979   2.33135   2.49402
   3.21549   3.80272   3.92164   4.00766   4.42590   4.48355   4.64747   4.67600
   5.00693   5.05772   5.06988   5.38996   5.43468   5.47273   5.66279   5.97504
   6.67920


           BETA EIGENVALUES 
 -37.16028 -31.82489 -28.26836 -26.96258 -25.13749 -24.95057 -22.60173 -20.43623
 -19.21180 -18.16238 -17.97844 -17.71510 -16.47018 -15.92830 -15.53288 -14.47980
 -14.39029 -14.08378 -13.72443 -13.61107 -13.26361 -13.17074 -12.28915 -12.04014
 -10.92941  -1.72588   0.47153   1.38381   1.95480   2.21536   2.50271   2.72611
   3.23698   3.85949   3.92267   4.38857   4.53572   4.54681   4.74472   4.84110
   5.05364   5.07546   5.13435   5.39031   5.47271   5.50590   5.66281   5.97509
   6.67923


              NET ATOMIC CHARGES AND DIPOLE CONTRIBUTIONS

  ATOM NO.   TYPE          CHARGE      No. of ELECS.   s-Pop       p-Pop       
    1          C          -0.496457        4.4965     1.05591     3.44055
    2          C           0.172840        3.8272     1.10463     2.72253
    3          C          -0.375470        4.3755     1.08503     3.29044
    4          C           0.251637        3.7484     1.10123     2.64713
    5          C          -0.203748        4.2037     1.11160     3.09215
    6          N           0.032693        4.9673     1.54618     3.42112
    7          C          -0.318531        4.3185     1.06863     3.24990
    8          C          -0.205352        4.2054     1.11201     3.09335
    9          O          -0.476200        6.4762     1.90081     4.57539
   10          H           0.178092        0.8219     0.82191
   11          H           0.176937        0.8231     0.82306
   12          H           0.168535        0.8315     0.83147
   13          H           0.155106        0.8449     0.84489
   14          H           0.185893        0.8141     0.81411
   15          H           0.185428        0.8146     0.81457
   16          H           0.224507        0.7755     0.77549
   17          H           0.224138        0.7759     0.77586
   18          H           0.220356        0.7796     0.77964
   19          H           0.215797        0.7842     0.78420
   20          H           0.237345        0.7627     0.76266
   21          H           0.221384        0.7786     0.77862
   22          H           0.225070        0.7749     0.77493
 DIPOLE           X         Y         Z       TOTAL
 POINT-CHG.     7.106    -0.696    -2.051     7.429
 HYBRID         0.578     0.347     0.331     0.751
 SUM            7.684    -0.349    -1.721     7.882


          ATOMIC ORBITAL ELECTRON POPULATIONS

     Atom    s        px        py        pz   
    1  C   1.05591   1.13714   1.10828   1.19512
    2  C   1.10463   0.84177   0.97669   0.90407
    3  C   1.08503   1.01349   1.17261   1.10434
    4  C   1.10123   0.87091   0.90652   0.86970
    5  C   1.11160   0.90900   1.00242   1.18074
    6  N   1.54618   1.10373   1.15468   1.16271
    7  C   1.06863   0.83166   1.21124   1.20701
    8  C   1.11201   0.85077   1.09060   1.15197
    9  O   1.90081   1.29924   1.81235   1.46380
   10  H   0.82191
   11  H   0.82306
   12  H   0.83147
   13  H   0.84489
   14  H   0.81411
   15  H   0.81457
   16  H   0.77549
   17  H   0.77586
   18  H   0.77964
   19  H   0.78420
   20  H   0.76266
   21  H   0.77862
   22  H   0.77493


                    (SZ)    =    0.500000
                    (S**2)  =    0.760443


          ATOMIC ORBITAL SPIN POPULATIONS

    Atom   Total    s     px     py     pz   
         Atomic
    1  C -0.0000 -0.000 -0.000 -0.000 -0.000
    2  C  0.0004  0.000  0.000  0.000  0.000
    3  C -0.0018 -0.000 -0.001 -0.000 -0.000
    4  C  0.0070  0.001  0.002  0.003  0.001
    5  C -0.0587 -0.007 -0.026 -0.026 -0.000
    6  N  0.9496  0.045  0.071  0.206  0.627
    7  C -0.0405 -0.006 -0.036 -0.004  0.006
    8  C -0.0591 -0.007 -0.035 -0.011 -0.007
    9  O  0.0005  0.000 -0.000  0.000  0.000
   10  H  0.0000  0.000
   11  H  0.0000  0.000
   12  H  0.0000  0.000
   13  H -0.0000 -0.000
   14  H  0.0001  0.000
   15  H  0.0001  0.000
   16  H  0.0287  0.029
   17  H  0.0289  0.029
   18  H  0.0187  0.019
   19  H  0.0106  0.011
   20  H  0.0579  0.058
   21  H  0.0283  0.028
   22  H  0.0293  0.029

 **********************
 *                    *
 * JOB ENDED NORMALLY *
 *                    *
 **********************



 TOTAL JOB TIME:             1.37 SECONDS

 == MOPAC DONE ==
