 *******************************************************************************
 **                                                                           **
 **                              MOPAC v23.2                                  **
 **                                                                           **
 *******************************************************************************
 **          Digital Object Identifier (DOI): 10.5281/zenodo.6511958          **
 **    Visit the DOI location for information on how to cite this program.    **
 *******************************************************************************

                              PM7 CALCULATION RESULTS

 *******************************************************************************
 *  CALCULATION DONE: (MAX THREADS = 40)             Fri Sep 19 21:30:44 2025  *
 *  PM7        - The PM7 Hamiltonian to be used
 *
 *
 *
 *                 CHARGE ON SYSTEM = +1
 *
 *
 *
 *  1SCF       - DO 1 SCF AND THEN STOP 
 *  T=         - A TIME OF 172800.0 SECONDS REQUESTED
 *  DUMP=N     - RESTART FILE WRITTEN EVERY 7200.0 SECONDS REQUESTED
 *  RELSCF     - DEFAULT SCF CRITERION MULTIPLIED BY 0.0001
 *              (DEFAULT SCF CRITERION = 0.00010)
 *  GRADIENTS  - ALL GRADIENTS TO BE PRINTED
 *  DISP       - PRINT DISPERSION AND HYDROGEN BOND ENERGIES
 *******************************************************************************
PM7 1SCF GRADIENTS DISP RELSCF=0.0001 CHARGE=1
 Title: ASE calculation

   ATOM   CHEMICAL          X               Y               Z
  NUMBER   SYMBOL      (ANGSTROMS)     (ANGSTROMS)     (ANGSTROMS)

     1       C         -3.23059414  *   1.68528332  *  -1.00816647  *
     2       C         -2.57702212  *   0.32835378  *  -0.75048387  *
     3       C         -1.81715508  *   0.34567484  *   0.58279889  *
     4       C         -1.28381722  *  -1.03207055  *   0.97739703  *
     5       C         -0.18153711  *  -1.54956501  *   0.01789200  *
     6       C          0.92748707  *  -0.68235405  *   0.02845081  *
     7       C          1.93664163  *   0.13868775  *   0.05496917  *
     8       C          2.98582374  *   0.99923473  *   0.08161051  *
     9       O          2.94050520  *   2.23784462  *  -0.04271119  *
    10       H         -3.99591619  *   1.91483537  *  -0.25432202  *
    11       H         -2.50328359  *   2.50388016  *  -0.99336856  *
    12       H         -3.72499213  *   1.70916278  *  -1.98937643  *
    13       H         -1.90165770  *   0.07424934  *  -1.58718919  *
    14       H         -3.35557992  *  -0.46193638  *  -0.73731323  *
    15       H         -1.00497165  *   1.09349524  *   0.54836054  *
    16       H         -2.50335474  *   0.70570093  *   1.38305845  *
    17       H         -0.89834820  *  -1.01133609  *   2.01672468  *
    18       H         -2.11708728  *  -1.76924489  *   0.99056656  *
    19       H          0.09140099  *  -2.60712704  *   0.28838289  *
    20       H         -0.62417606  *  -1.64218604  *  -1.01875006  *
    21       H          4.05075265  *   0.61359695  *   0.23217727  *



          CARTESIAN COORDINATES 

    NO.       ATOM           X           Y           Z

     1         C         -3.2306      1.6853     -1.0082
     2         C         -2.5770      0.3284     -0.7505
     3         C         -1.8172      0.3457      0.5828
     4         C         -1.2838     -1.0321      0.9774
     5         C         -0.1815     -1.5496      0.0179
     6         C          0.9275     -0.6824      0.0285
     7         C          1.9366      0.1387      0.0550
     8         C          2.9858      0.9992      0.0816
     9         O          2.9405      2.2378     -0.0427
    10         H         -3.9959      1.9148     -0.2543
    11         H         -2.5033      2.5039     -0.9934
    12         H         -3.7250      1.7092     -1.9894
    13         H         -1.9017      0.0742     -1.5872
    14         H         -3.3556     -0.4619     -0.7373
    15         H         -1.0050      1.0935      0.5484
    16         H         -2.5034      0.7057      1.3831
    17         H         -0.8983     -1.0113      2.0167
    18         H         -2.1171     -1.7692      0.9906
    19         H          0.0914     -2.6071      0.2884
    20         H         -0.6242     -1.6422     -1.0188
    21         H          4.0508      0.6136      0.2322

 General Reference for PM7:
 "Optimization of Parameters for Semiempirical Methods VI: More Modifications to the 
 NDDO Approximations and Re-optimization of Parameters", J. J. P. Stewart, J. Mol. Mod., 1:32, 19 (2013)
 https://link.springer.com/article/10.1007/s00894-012-1667-x

           Empirical Formula: C8 H12 O  =    21 atoms



      MOLECULAR POINT GROUP   :   C1  


          UHF CALCULATION, NO. OF ALPHA ELECTRONS =   25
                           NO. OF BETA  ELECTRONS =   24
  SCF CRITERION =    0.1000E-07

 -------------------------------------------------------------------------------
 PM7 1SCF GRADIENTS DISP RELSCF=0.0001 CHARGE=1
 Title: ASE calculation



     1SCF WAS SPECIFIED, SO BFGS WAS NOT USED                 
     SCF FIELD WAS ACHIEVED                                   


                              PM7 CALCULATION
                                                       MOPAC v23.2 Linux
                                                       Fri Sep 19 21:30:45 2025




          FINAL HEAT OF FORMATION =        209.41961 KCAL/MOL =     876.21166 KJ/MOL

          TOTAL ENERGY            =     -32958.13913 KCAL/MOL = ELECTRONIC ENERGY + CORE-CORE REPULSION
          ENERGY OF ATOMS         =      33167.45855 KCAL/MOL
                              SUM =        209.31942 KCAL/MOL
          DISPERSION ENERGY       =         -2.03322 KCAL/MOL
                              SUM =        207.28620 KCAL/MOL = FINAL HEAT OF FORMATION

     *    WARNING - An energy term is incorrect or missing!

     *    FINAL HEAT OF FORMATION     =    209.41961 KCAL/MOL
     *    SUM OF CONTRIBUTIONS TO HoF =    207.28620 KCAL/MOL
     *                     DIFFERENCE =      2.13341 KCAL/MOL



          TOTAL ENERGY            =      -1429.20018 EV
          ELECTRONIC ENERGY       =      -6718.21675 EV 
          CORE-CORE REPULSION     =       5289.01657 EV
          COSMO AREA              =        188.25 SQUARE ANGSTROMS
          COSMO VOLUME            =        181.25 CUBIC ANGSTROMS

          GRADIENT NORM           =          1.35907          =       0.29657 PER ATOM
          IONIZATION POTENTIAL    =         14.388678 EV
          ALPHA SOMO LUMO (EV)    =        -14.391 -6.591
          BETA  SOMO LUMO (EV)    =        -14.389 -7.902
          NO. OF ALPHA ELECTRONS  =         25
          NO. OF BETA  ELECTRONS  =         24
          MOLECULAR WEIGHT        =        124.1822         POINT GROUP:  C1  

          MOLECULAR DIMENSIONS (Angstroms)

            Atom       Atom       Distance
            H    21    H    10     8.16571
            H    19    O     9     5.25713
            H    17    H    12     3.60066


          SCF CALCULATIONS        =          1

          WALL-CLOCK TIME         =      1.148 SECONDS
          COMPUTATION TIME        =      0.743 SECONDS

          LARGEST ATOMIC GRADIENTS

          Atom     Label                     Cartesian Gradients           Cartesian Coordinates       |Gradient|
                                           X          Y          Z        X          Y          Z

            21       H                  -0.374      0.037      0.215    4.05075    0.61360    0.23218      0.433
            13       H                  -0.103     -0.151     -0.380   -1.90166    0.07425   -1.58719      0.421
            12       H                   0.115      0.119     -0.374   -3.72499    1.70916   -1.98938      0.409
            10       H                   0.012      0.051      0.405   -3.99592    1.91484   -0.25432      0.409
            15       H                   0.327      0.216     -0.060   -1.00497    1.09350    0.54836      0.396
            18       H                   0.233      0.253      0.181   -2.11709   -1.76924    0.99057      0.389
            11       H                  -0.178      0.239      0.189   -2.50328    2.50388   -0.99337      0.353
             7       C                   0.076     -0.004      0.328    1.93664    0.13869    0.05497      0.337
             3       C                   0.285      0.053     -0.032   -1.81716    0.34567    0.58280      0.292
            14       H                  -0.086     -0.221     -0.141   -3.35558   -0.46194   -0.73731      0.276



       FINAL  POINT  AND  DERIVATIVES

   PARAMETER     ATOM    TYPE            VALUE        GRADIENT
      1          1  C    CARTESIAN X    -3.230594     -0.126733  KCAL/ANGSTROM
      2          1  C    CARTESIAN Y     1.685283     -0.003126  KCAL/ANGSTROM
      3          1  C    CARTESIAN Z    -1.008166      0.005379  KCAL/ANGSTROM
      4          2  C    CARTESIAN X    -2.577022      0.059629  KCAL/ANGSTROM
      5          2  C    CARTESIAN Y     0.328354     -0.123448  KCAL/ANGSTROM
      6          2  C    CARTESIAN Z    -0.750484     -0.060580  KCAL/ANGSTROM
      7          3  C    CARTESIAN X    -1.817155      0.285345  KCAL/ANGSTROM
      8          3  C    CARTESIAN Y     0.345675      0.052739  KCAL/ANGSTROM
      9          3  C    CARTESIAN Z     0.582799     -0.032357  KCAL/ANGSTROM
     10          4  C    CARTESIAN X    -1.283817      0.256438  KCAL/ANGSTROM
     11          4  C    CARTESIAN Y    -1.032071      0.061208  KCAL/ANGSTROM
     12          4  C    CARTESIAN Z     0.977397     -0.037131  KCAL/ANGSTROM
     13          5  C    CARTESIAN X    -0.181537      0.057756  KCAL/ANGSTROM
     14          5  C    CARTESIAN Y    -1.549565     -0.028430  KCAL/ANGSTROM
     15          5  C    CARTESIAN Z     0.017892      0.050132  KCAL/ANGSTROM
     16          6  C    CARTESIAN X     0.927487     -0.235212  KCAL/ANGSTROM
     17          6  C    CARTESIAN Y    -0.682354     -0.025843  KCAL/ANGSTROM
     18          6  C    CARTESIAN Z     0.028451     -0.074644  KCAL/ANGSTROM
     19          7  C    CARTESIAN X     1.936642      0.076286  KCAL/ANGSTROM
     20          7  C    CARTESIAN Y     0.138688     -0.003807  KCAL/ANGSTROM
     21          7  C    CARTESIAN Z     0.054969      0.328445  KCAL/ANGSTROM
     22          8  C    CARTESIAN X     2.985824     -0.107191  KCAL/ANGSTROM
     23          8  C    CARTESIAN Y     0.999235     -0.159590  KCAL/ANGSTROM
     24          8  C    CARTESIAN Z     0.081611     -0.031044  KCAL/ANGSTROM
     25          9  O    CARTESIAN X     2.940505     -0.092017  KCAL/ANGSTROM
     26          9  O    CARTESIAN Y     2.237845     -0.019989  KCAL/ANGSTROM
     27          9  O    CARTESIAN Z    -0.042711     -0.165678  KCAL/ANGSTROM
     28         10  H    CARTESIAN X    -3.995916      0.012140  KCAL/ANGSTROM
     29         10  H    CARTESIAN Y     1.914835      0.050860  KCAL/ANGSTROM
     30         10  H    CARTESIAN Z    -0.254322      0.405392  KCAL/ANGSTROM
     31         11  H    CARTESIAN X    -2.503284     -0.177886  KCAL/ANGSTROM
     32         11  H    CARTESIAN Y     2.503880      0.238730  KCAL/ANGSTROM
     33         11  H    CARTESIAN Z    -0.993369      0.189292  KCAL/ANGSTROM
     34         12  H    CARTESIAN X    -3.724992      0.115094  KCAL/ANGSTROM
     35         12  H    CARTESIAN Y     1.709163      0.119184  KCAL/ANGSTROM
     36         12  H    CARTESIAN Z    -1.989376     -0.373941  KCAL/ANGSTROM
     37         13  H    CARTESIAN X    -1.901658     -0.103443  KCAL/ANGSTROM
     38         13  H    CARTESIAN Y     0.074249     -0.150535  KCAL/ANGSTROM
     39         13  H    CARTESIAN Z    -1.587189     -0.379784  KCAL/ANGSTROM
     40         14  H    CARTESIAN X    -3.355580     -0.086426  KCAL/ANGSTROM
     41         14  H    CARTESIAN Y    -0.461936     -0.220980  KCAL/ANGSTROM
     42         14  H    CARTESIAN Z    -0.737313     -0.140851  KCAL/ANGSTROM
     43         15  H    CARTESIAN X    -1.004972      0.326524  KCAL/ANGSTROM
     44         15  H    CARTESIAN Y     1.093495      0.215573  KCAL/ANGSTROM
     45         15  H    CARTESIAN Z     0.548361     -0.060290  KCAL/ANGSTROM
     46         16  H    CARTESIAN X    -2.503355     -0.035944  KCAL/ANGSTROM
     47         16  H    CARTESIAN Y     0.705701     -0.205555  KCAL/ANGSTROM
     48         16  H    CARTESIAN Z     1.383058      0.018292  KCAL/ANGSTROM
     49         17  H    CARTESIAN X    -0.898348      0.133616  KCAL/ANGSTROM
     50         17  H    CARTESIAN Y    -1.011336     -0.037847  KCAL/ANGSTROM
     51         17  H    CARTESIAN Z     2.016725     -0.170708  KCAL/ANGSTROM
     52         18  H    CARTESIAN X    -2.117087      0.233378  KCAL/ANGSTROM
     53         18  H    CARTESIAN Y    -1.769245      0.252643  KCAL/ANGSTROM
     54         18  H    CARTESIAN Z     0.990567      0.180842  KCAL/ANGSTROM
     55         19  H    CARTESIAN X     0.091401     -0.165572  KCAL/ANGSTROM
     56         19  H    CARTESIAN Y    -2.607127     -0.034894  KCAL/ANGSTROM
     57         19  H    CARTESIAN Z     0.288383     -0.099840  KCAL/ANGSTROM
     58         20  H    CARTESIAN X    -0.624176     -0.052072  KCAL/ANGSTROM
     59         20  H    CARTESIAN Y    -1.642186     -0.014396  KCAL/ANGSTROM
     60         20  H    CARTESIAN Z    -1.018750      0.234312  KCAL/ANGSTROM
     61         21  H    CARTESIAN X     4.050753     -0.373715  KCAL/ANGSTROM
     62         21  H    CARTESIAN Y     0.613597      0.037499  KCAL/ANGSTROM
     63         21  H    CARTESIAN Z     0.232177      0.214760  KCAL/ANGSTROM




   ATOM   CHEMICAL          X               Y               Z
  NUMBER   SYMBOL      (ANGSTROMS)     (ANGSTROMS)     (ANGSTROMS)

     1       C         -3.23059414  *   1.68528332  *  -1.00816647  *
     2       C         -2.57702212  *   0.32835378  *  -0.75048387  *
     3       C         -1.81715508  *   0.34567484  *   0.58279889  *
     4       C         -1.28381722  *  -1.03207055  *   0.97739703  *
     5       C         -0.18153711  *  -1.54956501  *   0.01789200  *
     6       C          0.92748707  *  -0.68235405  *   0.02845081  *
     7       C          1.93664163  *   0.13868775  *   0.05496917  *
     8       C          2.98582374  *   0.99923473  *   0.08161051  *
     9       O          2.94050520  *   2.23784462  *  -0.04271119  *
    10       H         -3.99591619  *   1.91483537  *  -0.25432202  *
    11       H         -2.50328359  *   2.50388016  *  -0.99336856  *
    12       H         -3.72499213  *   1.70916278  *  -1.98937643  *
    13       H         -1.90165770  *   0.07424934  *  -1.58718919  *
    14       H         -3.35557992  *  -0.46193638  *  -0.73731323  *
    15       H         -1.00497165  *   1.09349524  *   0.54836054  *
    16       H         -2.50335474  *   0.70570093  *   1.38305845  *
    17       H         -0.89834820  *  -1.01133609  *   2.01672468  *
    18       H         -2.11708728  *  -1.76924489  *   0.99056656  *
    19       H          0.09140099  *  -2.60712704  *   0.28838289  *
    20       H         -0.62417606  *  -1.64218604  *  -1.01875006  *
    21       H          4.05075265  *   0.61359695  *   0.23217727  *

                             CARTESIAN COORDINATES

   1    C       -3.230594143     1.685283318    -1.008166473
   2    C       -2.577022121     0.328353780    -0.750483868
   3    C       -1.817155083     0.345674838     0.582798892
   4    C       -1.283817223    -1.032070547     0.977397025
   5    C       -0.181537106    -1.549565005     0.017892002
   6    C        0.927487066    -0.682354048     0.028450809
   7    C        1.936641626     0.138687751     0.054969173
   8    C        2.985823740     0.999234729     0.081610506
   9    O        2.940505198     2.237844621    -0.042711186
  10    H       -3.995916188     1.914835374    -0.254322018
  11    H       -2.503283590     2.503880158    -0.993368557
  12    H       -3.724992131     1.709162783    -1.989376426
  13    H       -1.901657697     0.074249336    -1.587189191
  14    H       -3.355579922    -0.461936377    -0.737313234
  15    H       -1.004971651     1.093495244     0.548360543
  16    H       -2.503354738     0.705700926     1.383058451
  17    H       -0.898348200    -1.011336091     2.016724679
  18    H       -2.117087281    -1.769244886     0.990566562
  19    H        0.091400988    -2.607127044     0.288382886
  20    H       -0.624176058    -1.642186041    -1.018750060
  21    H        4.050752647     0.613596949     0.232177266


           Empirical Formula: C8 H12 O  =    21 atoms



      MOLECULAR POINT GROUP   :   C1  


          ALPHA EIGENVALUES  
 -40.31531 -33.77753 -32.05161 -31.00775 -29.08311 -27.38646 -24.76717 -24.12439
 -23.14617 -22.60491 -21.09672 -20.79193 -20.17978 -19.45226 -18.60794 -18.23320
 -17.58913 -17.37291 -16.29991 -15.96074 -15.68138 -15.58764 -15.15477 -14.69152
 -14.39100  -6.59103  -4.64957  -3.63402  -2.66944  -1.67788  -1.33687  -0.86168
  -0.51132   0.31864   0.46800   0.73773   1.06680   1.48780   1.66983   1.86760
   2.19056   2.58554   2.77568   3.22172   3.29847   3.36997   3.59127   4.43206


           BETA EIGENVALUES 
 -36.91906 -33.79339 -31.64976 -30.76329 -28.82997 -27.24456 -24.61111 -23.50465
 -22.72476 -21.72725 -20.80018 -20.33707 -20.10966 -19.39698 -18.23168 -17.61209
 -17.36959 -16.22929 -15.85989 -15.60056 -15.52375 -15.13740 -14.68911 -14.38868
  -7.90204  -6.40718  -4.56877  -3.66829  -2.08363  -1.54465  -1.08348  -0.73988
  -0.51797   0.31349   0.46435   0.73248   1.06645   1.48156   1.66957   1.86665
   2.19021   2.58518   2.77559   3.22160   3.29837   3.36996   3.59122   4.43206


              NET ATOMIC CHARGES AND DIPOLE CONTRIBUTIONS

  ATOM NO.   TYPE          CHARGE      No. of ELECS.   s-Pop       p-Pop       
    1          C          -0.437425        4.4374     1.05205     3.38538
    2          C          -0.250514        4.2505     1.05558     3.19493
    3          C          -0.291231        4.2912     1.06136     3.22987
    4          C          -0.239707        4.2397     1.06495     3.17476
    5          C          -0.346462        4.3465     1.05676     3.28970
    6          C           0.441155        3.5588     1.17594     2.38290
    7          C          -0.442019        4.4420     1.03215     3.40987
    8          C           0.279079        3.7209     1.13640     2.58452
    9          O           0.185885        5.8141     1.91499     3.89912
   10          H           0.158636        0.8414     0.84136
   11          H           0.141459        0.8585     0.85854
   12          H           0.160619        0.8394     0.83938
   13          H           0.120482        0.8795     0.87952
   14          H           0.151633        0.8484     0.84837
   15          H           0.129052        0.8709     0.87095
   16          H           0.171001        0.8290     0.82900
   17          H           0.156072        0.8439     0.84393
   18          H           0.180259        0.8197     0.81974
   19          H           0.222205        0.7778     0.77779
   20          H           0.236147        0.7639     0.76385
   21          H           0.273675        0.7263     0.72632
 DIPOLE           X         Y         Z       TOTAL
 POINT-CHG.     7.463    -1.278     0.587     7.595
 HYBRID         0.542     0.332    -0.107     0.645
 SUM            8.005    -0.946     0.480     8.075


          ATOMIC ORBITAL ELECTRON POPULATIONS

     Atom    s        px        py        pz   
    1  C   1.05205   1.15190   1.04698   1.18650
    2  C   1.05558   1.10185   1.07262   1.02046
    3  C   1.06136   1.12947   1.00649   1.09391
    4  C   1.06495   1.04025   1.07968   1.05482
    5  C   1.05676   1.01357   1.09720   1.17893
    6  C   1.17594   0.88969   0.87682   0.61639
    7  C   1.03215   1.05208   1.11090   1.24689
    8  C   1.13640   1.04065   0.87431   0.66956
    9  O   1.91499   1.13457   1.20994   1.55461
   10  H   0.84136
   11  H   0.85854
   12  H   0.83938
   13  H   0.87952
   14  H   0.84837
   15  H   0.87095
   16  H   0.82900
   17  H   0.84393
   18  H   0.81974
   19  H   0.77779
   20  H   0.76385
   21  H   0.72632


                    (SZ)    =    0.500000
                    (S**2)  =    0.782129


          ATOMIC ORBITAL SPIN POPULATIONS

    Atom   Total    s     px     py     pz   
         Atomic
    1  C  0.0000  0.000  0.000  0.000  0.000
    2  C -0.0001 -0.000 -0.000 -0.000 -0.000
    3  C  0.0001  0.000  0.000  0.000 -0.000
    4  C -0.0049 -0.001 -0.002 -0.000 -0.002
    5  C  0.0042  0.001  0.003  0.002 -0.001
    6  C -0.1085 -0.003 -0.019 -0.023 -0.064
    7  C  0.1143  0.024  0.040  0.032  0.018
    8  C -0.0987 -0.012 -0.001 -0.034 -0.052
    9  O  0.9948  0.018  0.836  0.025  0.116
   10  H -0.0000 -0.000
   11  H -0.0000 -0.000
   12  H -0.0000 -0.000
   13  H  0.0000  0.000
   14  H  0.0000  0.000
   15  H -0.0000 -0.000
   16  H -0.0001 -0.000
   17  H  0.0001  0.000
   18  H  0.0000  0.000
   19  H -0.0021 -0.002
   20  H -0.0047 -0.005
   21  H  0.1054  0.105

 **********************
 *                    *
 * JOB ENDED NORMALLY *
 *                    *
 **********************



 TOTAL JOB TIME:             1.66 SECONDS

 == MOPAC DONE ==
