 *******************************************************************************
 **                                                                           **
 **                              MOPAC v23.2                                  **
 **                                                                           **
 *******************************************************************************
 **          Digital Object Identifier (DOI): 10.5281/zenodo.6511958          **
 **    Visit the DOI location for information on how to cite this program.    **
 *******************************************************************************

                              PM7 CALCULATION RESULTS

 *******************************************************************************
 *  CALCULATION DONE: (MAX THREADS = 40)             Fri Sep 19 21:29:15 2025  *
 *  PM7        - The PM7 Hamiltonian to be used
 *
 *
 *
 *                 CHARGE ON SYSTEM = +1
 *
 *
 *
 *  1SCF       - DO 1 SCF AND THEN STOP 
 *  T=         - A TIME OF 172800.0 SECONDS REQUESTED
 *  DUMP=N     - RESTART FILE WRITTEN EVERY 7200.0 SECONDS REQUESTED
 *  RELSCF     - DEFAULT SCF CRITERION MULTIPLIED BY 0.0001
 *              (DEFAULT SCF CRITERION = 0.00010)
 *  GRADIENTS  - ALL GRADIENTS TO BE PRINTED
 *  DISP       - PRINT DISPERSION AND HYDROGEN BOND ENERGIES
 *******************************************************************************
PM7 1SCF GRADIENTS DISP RELSCF=0.0001 CHARGE=1
 Title: ASE calculation

   ATOM   CHEMICAL          X               Y               Z
  NUMBER   SYMBOL      (ANGSTROMS)     (ANGSTROMS)     (ANGSTROMS)

     1       C         -2.09573788  *  -1.49637419  *   0.16441769  *
     2       C         -0.79274030  *  -0.97496331  *  -0.18522845  *
     3       C         -0.57103403  *   0.22651597  *  -1.00303106  *
     4       C          0.71036434  *   1.03108990  *  -0.50961156  *
     5       O          0.28001154  *   2.13437050  *   0.20404203  *
     6       C          1.63661212  *   0.09569156  *   0.30544336  *
     7       C          1.61977844  *  -1.28457901  *  -0.45532328  *
     8       N          0.35119486  *  -1.61510726  *   0.35275100  *
     9       C          0.82341298  *  -0.60881683  *   1.35038970  *
    10       H         -2.64333207  *  -1.89380024  *  -0.73012562  *
    11       H         -2.80175074  *  -0.73702684  *   0.57533936  *
    12       H         -2.07728493  *  -2.34512996  *   0.89059973  *
    13       H         -0.45820158  *   0.00443088  *  -2.09363344  *
    14       H         -1.44293690  *   0.93251145  *  -1.00430191  *
    15       H          1.23527881  *   1.48494962  *  -1.38778549  *
    16       H          0.09635431  *   1.95083020  *   1.15305355  *
    17       H          2.59758172  *   0.55264871  *   0.58017145  *
    18       H          2.42455650  *  -1.99218337  *  -0.17154488  *
    19       H          1.53029144  *  -1.27827411  *  -1.54493901  *
    20       H          0.77404172  *  -0.69974642  *   2.40310659  *



          CARTESIAN COORDINATES 

    NO.       ATOM           X           Y           Z

     1         C         -2.0957     -1.4964      0.1644
     2         C         -0.7927     -0.9750     -0.1852
     3         C         -0.5710      0.2265     -1.0030
     4         C          0.7104      1.0311     -0.5096
     5         O          0.2800      2.1344      0.2040
     6         C          1.6366      0.0957      0.3054
     7         C          1.6198     -1.2846     -0.4553
     8         N          0.3512     -1.6151      0.3528
     9         C          0.8234     -0.6088      1.3504
    10         H         -2.6433     -1.8938     -0.7301
    11         H         -2.8018     -0.7370      0.5753
    12         H         -2.0773     -2.3451      0.8906
    13         H         -0.4582      0.0044     -2.0936
    14         H         -1.4429      0.9325     -1.0043
    15         H          1.2353      1.4849     -1.3878
    16         H          0.0964      1.9508      1.1531
    17         H          2.5976      0.5526      0.5802
    18         H          2.4246     -1.9922     -0.1715
    19         H          1.5303     -1.2783     -1.5449
    20         H          0.7740     -0.6997      2.4031

 General Reference for PM7:
 "Optimization of Parameters for Semiempirical Methods VI: More Modifications to the 
 NDDO Approximations and Re-optimization of Parameters", J. J. P. Stewart, J. Mol. Mod., 1:32, 19 (2013)
 https://link.springer.com/article/10.1007/s00894-012-1667-x

           Empirical Formula: C7 H11 N O  =    20 atoms



      MOLECULAR POINT GROUP   :   C1  


          UHF CALCULATION, NO. OF ALPHA ELECTRONS =   25
                           NO. OF BETA  ELECTRONS =   24
  SCF CRITERION =    0.1000E-07

 -------------------------------------------------------------------------------
 PM7 1SCF GRADIENTS DISP RELSCF=0.0001 CHARGE=1
 Title: ASE calculation



     1SCF WAS SPECIFIED, SO BFGS WAS NOT USED                 
     SCF FIELD WAS ACHIEVED                                   


                              PM7 CALCULATION
                                                       MOPAC v23.2 Linux
                                                       Fri Sep 19 21:29:17 2025




          FINAL HEAT OF FORMATION =        207.90570 KCAL/MOL =     869.87744 KJ/MOL

          TOTAL ENERGY            =     -34114.00554 KCAL/MOL = ELECTRONIC ENERGY + CORE-CORE REPULSION
          ENERGY OF ATOMS         =      34323.93363 KCAL/MOL
                              SUM =        209.92809 KCAL/MOL
          DISPERSION ENERGY       =         -2.02240 KCAL/MOL
                              SUM =        207.90570 KCAL/MOL = FINAL HEAT OF FORMATION



          TOTAL ENERGY            =      -1479.32329 EV
          ELECTRONIC ENERGY       =      -7623.47337 EV 
          CORE-CORE REPULSION     =       6144.15007 EV
          COSMO AREA              =        158.31 SQUARE ANGSTROMS
          COSMO VOLUME            =        160.32 CUBIC ANGSTROMS

          GRADIENT NORM           =          1.16471          =       0.26044 PER ATOM
          IONIZATION POTENTIAL    =         14.265149 EV
          ALPHA SOMO LUMO (EV)    =        -14.265 -6.630
          BETA  SOMO LUMO (EV)    =        -15.325 -6.644
          NO. OF ALPHA ELECTRONS  =         25
          NO. OF BETA  ELECTRONS  =         24
          MOLECULAR WEIGHT        =        125.1700         POINT GROUP:  C1  

          MOLECULAR DIMENSIONS (Angstroms)

            Atom       Atom       Distance
            H    17    H    10     5.93036
            H    16    H    18     4.76480
            H    13    H    20     4.36003


          SCF CALCULATIONS        =          1

          WALL-CLOCK TIME         =      1.969 SECONDS
          COMPUTATION TIME        =      0.380 SECONDS

          LARGEST ATOMIC GRADIENTS

          Atom     Label                     Cartesian Gradients           Cartesian Coordinates       |Gradient|
                                           X          Y          Z        X          Y          Z

            12       H                  -0.073     -0.381      0.054   -2.07728   -2.34513    0.89060      0.392
             7       C                  -0.041     -0.362      0.030    1.61978   -1.28458   -0.45532      0.365
            18       H                   0.174     -0.295     -0.040    2.42456   -1.99218   -0.17154      0.344
            17       H                  -0.158     -0.222      0.181    2.59758    0.55265    0.58017      0.327
             9       C                  -0.045      0.171      0.274    0.82341   -0.60882    1.35039      0.326
            15       H                  -0.194      0.112     -0.221    1.23528    1.48495   -1.38779      0.315
            10       H                   0.006      0.248     -0.142   -2.64333   -1.89380   -0.73013      0.286
            14       H                  -0.085      0.266      0.033   -1.44294    0.93251   -1.00430      0.282
             8       N                   0.214     -0.034      0.151    0.35119   -1.61511    0.35275      0.264
            19       H                   0.076      0.202     -0.148    1.53029   -1.27827   -1.54494      0.261



       FINAL  POINT  AND  DERIVATIVES

   PARAMETER     ATOM    TYPE            VALUE        GRADIENT
      1          1  C    CARTESIAN X    -2.095738      0.183184  KCAL/ANGSTROM
      2          1  C    CARTESIAN Y    -1.496374      0.030724  KCAL/ANGSTROM
      3          1  C    CARTESIAN Z     0.164418      0.144723  KCAL/ANGSTROM
      4          2  C    CARTESIAN X    -0.792740      0.212794  KCAL/ANGSTROM
      5          2  C    CARTESIAN Y    -0.974963     -0.003359  KCAL/ANGSTROM
      6          2  C    CARTESIAN Z    -0.185228      0.002916  KCAL/ANGSTROM
      7          3  C    CARTESIAN X    -0.571034     -0.006365  KCAL/ANGSTROM
      8          3  C    CARTESIAN Y     0.226516      0.094972  KCAL/ANGSTROM
      9          3  C    CARTESIAN Z    -1.003031     -0.170191  KCAL/ANGSTROM
     10          4  C    CARTESIAN X     0.710364      0.011962  KCAL/ANGSTROM
     11          4  C    CARTESIAN Y     1.031090      0.001948  KCAL/ANGSTROM
     12          4  C    CARTESIAN Z    -0.509612     -0.064495  KCAL/ANGSTROM
     13          5  O    CARTESIAN X     0.280012     -0.089586  KCAL/ANGSTROM
     14          5  O    CARTESIAN Y     2.134371      0.107774  KCAL/ANGSTROM
     15          5  O    CARTESIAN Z     0.204042     -0.189526  KCAL/ANGSTROM
     16          6  C    CARTESIAN X     1.636612     -0.122745  KCAL/ANGSTROM
     17          6  C    CARTESIAN Y     0.095692     -0.024207  KCAL/ANGSTROM
     18          6  C    CARTESIAN Z     0.305443      0.179927  KCAL/ANGSTROM
     19          7  C    CARTESIAN X     1.619778     -0.040755  KCAL/ANGSTROM
     20          7  C    CARTESIAN Y    -1.284579     -0.361798  KCAL/ANGSTROM
     21          7  C    CARTESIAN Z    -0.455323      0.029551  KCAL/ANGSTROM
     22          8  N    CARTESIAN X     0.351195      0.213502  KCAL/ANGSTROM
     23          8  N    CARTESIAN Y    -1.615107     -0.034068  KCAL/ANGSTROM
     24          8  N    CARTESIAN Z     0.352751      0.150765  KCAL/ANGSTROM
     25          9  C    CARTESIAN X     0.823413     -0.045113  KCAL/ANGSTROM
     26          9  C    CARTESIAN Y    -0.608817      0.171437  KCAL/ANGSTROM
     27          9  C    CARTESIAN Z     1.350390      0.274133  KCAL/ANGSTROM
     28         10  H    CARTESIAN X    -2.643332      0.005646  KCAL/ANGSTROM
     29         10  H    CARTESIAN Y    -1.893800      0.247558  KCAL/ANGSTROM
     30         10  H    CARTESIAN Z    -0.730126     -0.142415  KCAL/ANGSTROM
     31         11  H    CARTESIAN X    -2.801751     -0.200693  KCAL/ANGSTROM
     32         11  H    CARTESIAN Y    -0.737027      0.038287  KCAL/ANGSTROM
     33         11  H    CARTESIAN Z     0.575339      0.042891  KCAL/ANGSTROM
     34         12  H    CARTESIAN X    -2.077285     -0.073304  KCAL/ANGSTROM
     35         12  H    CARTESIAN Y    -2.345130     -0.380994  KCAL/ANGSTROM
     36         12  H    CARTESIAN Z     0.890600      0.053864  KCAL/ANGSTROM
     37         13  H    CARTESIAN X    -0.458202     -0.004717  KCAL/ANGSTROM
     38         13  H    CARTESIAN Y     0.004431      0.003777  KCAL/ANGSTROM
     39         13  H    CARTESIAN Z    -2.093633     -0.052644  KCAL/ANGSTROM
     40         14  H    CARTESIAN X    -1.442937     -0.084510  KCAL/ANGSTROM
     41         14  H    CARTESIAN Y     0.932511      0.266427  KCAL/ANGSTROM
     42         14  H    CARTESIAN Z    -1.004302      0.033441  KCAL/ANGSTROM
     43         15  H    CARTESIAN X     1.235279     -0.193786  KCAL/ANGSTROM
     44         15  H    CARTESIAN Y     1.484950      0.111543  KCAL/ANGSTROM
     45         15  H    CARTESIAN Z    -1.387785     -0.221286  KCAL/ANGSTROM
     46         16  H    CARTESIAN X     0.096354     -0.057260  KCAL/ANGSTROM
     47         16  H    CARTESIAN Y     1.950830      0.020766  KCAL/ANGSTROM
     48         16  H    CARTESIAN Z     1.153054     -0.013498  KCAL/ANGSTROM
     49         17  H    CARTESIAN X     2.597582     -0.157761  KCAL/ANGSTROM
     50         17  H    CARTESIAN Y     0.552649     -0.222155  KCAL/ANGSTROM
     51         17  H    CARTESIAN Z     0.580171      0.180656  KCAL/ANGSTROM
     52         18  H    CARTESIAN X     2.424556      0.173822  KCAL/ANGSTROM
     53         18  H    CARTESIAN Y    -1.992183     -0.294686  KCAL/ANGSTROM
     54         18  H    CARTESIAN Z    -0.171545     -0.039514  KCAL/ANGSTROM
     55         19  H    CARTESIAN X     1.530291      0.076052  KCAL/ANGSTROM
     56         19  H    CARTESIAN Y    -1.278274      0.201618  KCAL/ANGSTROM
     57         19  H    CARTESIAN Z    -1.544939     -0.147861  KCAL/ANGSTROM
     58         20  H    CARTESIAN X     0.774042      0.199628  KCAL/ANGSTROM
     59         20  H    CARTESIAN Y    -0.699746      0.024436  KCAL/ANGSTROM
     60         20  H    CARTESIAN Z     2.403107     -0.051443  KCAL/ANGSTROM




   ATOM   CHEMICAL          X               Y               Z
  NUMBER   SYMBOL      (ANGSTROMS)     (ANGSTROMS)     (ANGSTROMS)

     1       C         -2.09573788  *  -1.49637419  *   0.16441769  *
     2       C         -0.79274030  *  -0.97496331  *  -0.18522845  *
     3       C         -0.57103403  *   0.22651597  *  -1.00303106  *
     4       C          0.71036434  *   1.03108990  *  -0.50961156  *
     5       O          0.28001154  *   2.13437050  *   0.20404203  *
     6       C          1.63661212  *   0.09569156  *   0.30544336  *
     7       C          1.61977844  *  -1.28457901  *  -0.45532328  *
     8       N          0.35119486  *  -1.61510726  *   0.35275100  *
     9       C          0.82341298  *  -0.60881683  *   1.35038970  *
    10       H         -2.64333207  *  -1.89380024  *  -0.73012562  *
    11       H         -2.80175074  *  -0.73702684  *   0.57533936  *
    12       H         -2.07728493  *  -2.34512996  *   0.89059973  *
    13       H         -0.45820158  *   0.00443088  *  -2.09363344  *
    14       H         -1.44293690  *   0.93251145  *  -1.00430191  *
    15       H          1.23527881  *   1.48494962  *  -1.38778549  *
    16       H          0.09635431  *   1.95083020  *   1.15305355  *
    17       H          2.59758172  *   0.55264871  *   0.58017145  *
    18       H          2.42455650  *  -1.99218337  *  -0.17154488  *
    19       H          1.53029144  *  -1.27827411  *  -1.54493901  *
    20       H          0.77404172  *  -0.69974642  *   2.40310659  *

                             CARTESIAN COORDINATES

   1    C       -2.095737880    -1.496374188     0.164417685
   2    C       -0.792740303    -0.974963313    -0.185228450
   3    C       -0.571034032     0.226515966    -1.003031055
   4    C        0.710364336     1.031089899    -0.509611558
   5    O        0.280011543     2.134370501     0.204042035
   6    C        1.636612125     0.095691558     0.305443356
   7    C        1.619778438    -1.284579011    -0.455323280
   8    N        0.351194864    -1.615107259     0.352751003
   9    C        0.823412979    -0.608816829     1.350389704
  10    H       -2.643332071    -1.893800242    -0.730125621
  11    H       -2.801750735    -0.737026844     0.575339364
  12    H       -2.077284935    -2.345129956     0.890599726
  13    H       -0.458201576     0.004430877    -2.093633442
  14    H       -1.442936904     0.932511453    -1.004301906
  15    H        1.235278808     1.484949620    -1.387785486
  16    H        0.096354308     1.950830200     1.153053548
  17    H        2.597581724     0.552648713     0.580171447
  18    H        2.424556498    -1.992183368    -0.171544882
  19    H        1.530291443    -1.278274113    -1.544939013
  20    H        0.774041724    -0.699746415     2.403106588


           Empirical Formula: C7 H11 N O  =    20 atoms



      MOLECULAR POINT GROUP   :   C1  


          ALPHA EIGENVALUES  
 -42.63238 -34.64846 -33.70667 -32.01599 -29.77632 -27.89681 -27.00775 -25.66923
 -23.13398 -22.30555 -22.16554 -21.05273 -20.55192 -20.40718 -19.96403 -19.07450
 -18.94346 -18.64961 -18.23364 -17.72074 -17.21923 -16.75823 -15.68565 -15.35508
 -14.26515  -6.62971  -3.37830  -2.57576  -2.33648  -2.19027  -1.75862  -1.53165
  -1.49828  -1.40703  -1.32556  -0.59667  -0.16300  -0.06402   0.25926   0.67386
   0.82180   0.88758   1.14853   1.27483   1.30871   1.36963   1.75491


           BETA EIGENVALUES 
 -42.55379 -34.63424 -33.67373 -31.99130 -29.72618 -27.71869 -26.90766 -25.59850
 -23.01807 -22.17607 -22.10332 -21.00475 -20.48797 -20.31554 -19.93606 -18.99047
 -18.87191 -18.63596 -18.18801 -17.60516 -17.13235 -16.66500 -15.35885 -15.32506
  -6.64422  -4.90948  -3.25643  -2.57228  -2.25846  -2.14325  -1.55338  -1.45583
  -1.41055  -1.36148  -1.17439  -0.43564  -0.16161  -0.06490   0.26308   0.68165
   0.83018   0.89134   1.26373   1.31726   1.35056   1.37583   1.76106


              NET ATOMIC CHARGES AND DIPOLE CONTRIBUTIONS

  ATOM NO.   TYPE          CHARGE      No. of ELECS.   s-Pop       p-Pop       
    1          C          -0.553745        4.5537     1.06083     3.49291
    2          C           0.597044        3.4030     1.17026     2.23269
    3          C          -0.511994        4.5120     1.09275     3.41925
    4          C           0.193251        3.8067     1.10101     2.70574
    5          O          -0.490915        6.4909     1.84233     4.64859
    6          C          -0.236930        4.2369     1.09880     3.13813
    7          C          -0.121191        4.1212     1.10507     3.01612
    8          N          -0.389984        5.3900     1.73293     3.65705
    9          C          -0.020561        4.0206     1.16536     2.85520
   10          H           0.252720        0.7473     0.74728
   11          H           0.240897        0.7591     0.75910
   12          H           0.239464        0.7605     0.76054
   13          H           0.240722        0.7593     0.75928
   14          H           0.241167        0.7588     0.75883
   15          H           0.189109        0.8109     0.81089
   16          H           0.330476        0.6695     0.66952
   17          H           0.215738        0.7843     0.78426
   18          H           0.205125        0.7949     0.79488
   19          H           0.169012        0.8310     0.83099
   20          H           0.210595        0.7894     0.78941
 DIPOLE           X         Y         Z       TOTAL
 POINT-CHG.    -2.445    -2.077    -1.044     3.374
 HYBRID        -0.365    -0.100     0.026     0.379
 SUM           -2.810    -2.177    -1.018     3.697


          ATOMIC ORBITAL ELECTRON POPULATIONS

     Atom    s        px        py        pz   
    1  C   1.06083   1.03839   1.22185   1.23267
    2  C   1.17026   0.91958   0.71177   0.60135
    3  C   1.09275   1.20564   1.06333   1.15028
    4  C   1.10101   0.87920   0.84591   0.98063
    5  O   1.84233   1.87790   1.39407   1.37662
    6  C   1.09880   1.11242   1.01665   1.00905
    7  C   1.10507   0.93389   1.00481   1.07743
    8  N   1.73293   1.09944   1.36293   1.19468
    9  C   1.16536   0.98065   0.87165   1.00290
   10  H   0.74728
   11  H   0.75910
   12  H   0.76054
   13  H   0.75928
   14  H   0.75883
   15  H   0.81089
   16  H   0.66952
   17  H   0.78426
   18  H   0.79488
   19  H   0.83099
   20  H   0.78941


                    (SZ)    =    0.500000
                    (S**2)  =    0.756042


          ATOMIC ORBITAL SPIN POPULATIONS

    Atom   Total    s     px     py     pz   
         Atomic
    1  C -0.0006 -0.000  0.000  0.000 -0.001
    2  C  0.0137  0.007  0.015  0.009 -0.018
    3  C  0.0011 -0.000 -0.001  0.003 -0.001
    4  C  0.0325  0.006  0.007  0.010  0.009
    5  O  0.0001  0.000  0.001 -0.001 -0.000
    6  C -0.0445 -0.005 -0.007 -0.008 -0.024
    7  C  0.0197  0.005 -0.000  0.009  0.006
    8  N  0.0178  0.006 -0.004  0.031 -0.015
    9  C  0.9752  0.031  0.563  0.350  0.031
   10  H -0.0014 -0.001
   11  H  0.0000  0.000
   12  H  0.0002  0.000
   13  H -0.0014 -0.001
   14  H  0.0024  0.002
   15  H -0.0000 -0.000
   16  H  0.0005  0.001
   17  H  0.0059  0.006
   18  H -0.0008 -0.001
   19  H  0.0015  0.002
   20  H -0.0218 -0.022

 **********************
 *                    *
 * JOB ENDED NORMALLY *
 *                    *
 **********************



 TOTAL JOB TIME:             2.37 SECONDS

 == MOPAC DONE ==
