 *******************************************************************************
 **                                                                           **
 **                              MOPAC v23.2                                  **
 **                                                                           **
 *******************************************************************************
 **          Digital Object Identifier (DOI): 10.5281/zenodo.6511958          **
 **    Visit the DOI location for information on how to cite this program.    **
 *******************************************************************************

                              PM7 CALCULATION RESULTS

 *******************************************************************************
 *  CALCULATION DONE: (MAX THREADS = 40)             Fri Sep 19 21:35:39 2025  *
 *  PM7        - The PM7 Hamiltonian to be used
 *  1SCF       - DO 1 SCF AND THEN STOP 
 *  T=         - A TIME OF 172800.0 SECONDS REQUESTED
 *  DUMP=N     - RESTART FILE WRITTEN EVERY 7200.0 SECONDS REQUESTED
 *  RELSCF     - DEFAULT SCF CRITERION MULTIPLIED BY 0.0001
 *              (DEFAULT SCF CRITERION = 0.00010)
 *  GRADIENTS  - ALL GRADIENTS TO BE PRINTED
 *  DISP       - PRINT DISPERSION AND HYDROGEN BOND ENERGIES
 *******************************************************************************
PM7 1SCF GRADIENTS DISP RELSCF=0.0001
 Title: ASE calculation

   ATOM   CHEMICAL          X               Y               Z
  NUMBER   SYMBOL      (ANGSTROMS)     (ANGSTROMS)     (ANGSTROMS)

     1       C         -1.95059030  *   1.05902671  *  -0.87476805  *
     2       C         -1.45901054  *  -0.05274859  *   0.01524272  *
     3       C         -2.50296497  *  -1.11830124  *   0.24161005  *
     4       C         -0.50622436  *   0.27455507  *   1.14819391  *
     5       C         -0.00085349  *  -0.50543833  *  -0.04694996  *
     6       C          0.96952611  *   0.13337804  *  -1.01645933  *
     7       C          2.33064403  *  -0.15260764  *  -0.62172914  *
     8       N          3.41816513  *  -0.38113702  *  -0.30110876  *
     9       H         -2.91147255  *   1.45165796  *  -0.51296662  *
    10       H         -1.26015378  *   1.90890326  *  -0.91840674  *
    11       H         -2.10849346  *   0.70624916  *  -1.90238239  *
    12       H         -3.38990876  *  -0.70054119  *   0.73634692  *
    13       H         -2.83129941  *  -1.56109420  *  -0.70774122  *
    14       H         -2.13826499  *  -1.93823357  *   0.87240200  *
    15       H         -0.18295080  *   1.29872031  *   1.30534952  *
    16       H         -0.61133407  *  -0.22393062  *   2.10752143  *
    17       H          0.19874081  *  -1.57644214  *   0.09140388  *
    18       H          0.77031804  *  -0.24714851  *  -2.04982589  *
    19       H          0.81109005  *   1.23831373  *  -1.07749864  *



          CARTESIAN COORDINATES 

    NO.       ATOM           X           Y           Z

     1         C         -1.9506      1.0590     -0.8748
     2         C         -1.4590     -0.0527      0.0152
     3         C         -2.5030     -1.1183      0.2416
     4         C         -0.5062      0.2746      1.1482
     5         C         -0.0009     -0.5054     -0.0469
     6         C          0.9695      0.1334     -1.0165
     7         C          2.3306     -0.1526     -0.6217
     8         N          3.4182     -0.3811     -0.3011
     9         H         -2.9115      1.4517     -0.5130
    10         H         -1.2602      1.9089     -0.9184
    11         H         -2.1085      0.7062     -1.9024
    12         H         -3.3899     -0.7005      0.7363
    13         H         -2.8313     -1.5611     -0.7077
    14         H         -2.1383     -1.9382      0.8724
    15         H         -0.1830      1.2987      1.3053
    16         H         -0.6113     -0.2239      2.1075
    17         H          0.1987     -1.5764      0.0914
    18         H          0.7703     -0.2471     -2.0498
    19         H          0.8111      1.2383     -1.0775

 General Reference for PM7:
 "Optimization of Parameters for Semiempirical Methods VI: More Modifications to the 
 NDDO Approximations and Re-optimization of Parameters", J. J. P. Stewart, J. Mol. Mod., 1:32, 19 (2013)
 https://link.springer.com/article/10.1007/s00894-012-1667-x

           Empirical Formula: C7 H11 N  =    19 atoms



      MOLECULAR POINT GROUP   :   C1  


      RHF CALCULATION, NO. OF DOUBLY OCCUPIED LEVELS = 22

  SCF CRITERION =    0.1000E-07

 -------------------------------------------------------------------------------
 PM7 1SCF GRADIENTS DISP RELSCF=0.0001
 Title: ASE calculation



     1SCF WAS SPECIFIED, SO BFGS WAS NOT USED                 
     SCF FIELD WAS ACHIEVED                                   


                              PM7 CALCULATION
                                                       MOPAC v23.2 Linux
                                                       Fri Sep 19 21:35:39 2025




          FINAL HEAT OF FORMATION =         24.93311 KCAL/MOL =     104.32012 KJ/MOL

          TOTAL ENERGY            =     -27528.75398 KCAL/MOL = ELECTRONIC ENERGY + CORE-CORE REPULSION
          ENERGY OF ATOMS         =      27555.33859 KCAL/MOL
                              SUM =         26.58461 KCAL/MOL
          DISPERSION ENERGY       =         -1.65150 KCAL/MOL
                              SUM =         24.93311 KCAL/MOL = FINAL HEAT OF FORMATION



          TOTAL ENERGY            =      -1193.75976 EV
          ELECTRONIC ENERGY       =      -5744.83250 EV 
          CORE-CORE REPULSION     =       4551.07274 EV
          COSMO AREA              =        163.58 SQUARE ANGSTROMS
          COSMO VOLUME            =        161.66 CUBIC ANGSTROMS

          GRADIENT NORM           =          0.82461          =       0.18918 PER ATOM
          IONIZATION POTENTIAL    =         10.754286 EV
          HOMO LUMO ENERGIES (EV) =        -10.754  1.289
          NO. OF FILLED LEVELS    =         22
          MOLECULAR WEIGHT        =        109.1706         POINT GROUP:  C1  

          MOLECULAR DIMENSIONS (Angstroms)

            Atom       Atom       Distance
            H    12    N     8     6.89407
            H    11    H    16     4.30045
            H    10    H    14     3.32327


          SCF CALCULATIONS        =          1

          WALL-CLOCK TIME         =      0.742 SECONDS
          COMPUTATION TIME        =      0.554 SECONDS

          LARGEST ATOMIC GRADIENTS

          Atom     Label                     Cartesian Gradients           Cartesian Coordinates       |Gradient|
                                           X          Y          Z        X          Y          Z

             5       C                  -0.166     -0.112     -0.254   -0.00085   -0.50544   -0.04695      0.323
             9       H                  -0.012     -0.252      0.173   -2.91147    1.45166   -0.51297      0.306
            17       H                   0.065     -0.179      0.199    0.19874   -1.57644    0.09140      0.276
            19       H                   0.042      0.256      0.077    0.81109    1.23831   -1.07750      0.271
            12       H                   0.089      0.247     -0.063   -3.38991   -0.70054    0.73635      0.270
            18       H                  -0.070     -0.098     -0.201    0.77032   -0.24715   -2.04983      0.234
             7       C                   0.127     -0.107      0.063    2.33064   -0.15261   -0.62173      0.178
             8       N                   0.162      0.030      0.030    3.41817   -0.38114   -0.30111      0.168
            15       H                  -0.039      0.112      0.113   -0.18295    1.29872    1.30535      0.164
            10       H                  -0.089     -0.076     -0.099   -1.26015    1.90890   -0.91841      0.154



       FINAL  POINT  AND  DERIVATIVES

   PARAMETER     ATOM    TYPE            VALUE        GRADIENT
      1          1  C    CARTESIAN X    -1.950590     -0.050966  KCAL/ANGSTROM
      2          1  C    CARTESIAN Y     1.059027     -0.055875  KCAL/ANGSTROM
      3          1  C    CARTESIAN Z    -0.874768      0.024352  KCAL/ANGSTROM
      4          2  C    CARTESIAN X    -1.459011     -0.064007  KCAL/ANGSTROM
      5          2  C    CARTESIAN Y    -0.052749      0.071438  KCAL/ANGSTROM
      6          2  C    CARTESIAN Z     0.015243      0.115448  KCAL/ANGSTROM
      7          3  C    CARTESIAN X    -2.502965     -0.029155  KCAL/ANGSTROM
      8          3  C    CARTESIAN Y    -1.118301      0.052974  KCAL/ANGSTROM
      9          3  C    CARTESIAN Z     0.241610     -0.003841  KCAL/ANGSTROM
     10          4  C    CARTESIAN X    -0.506224     -0.004769  KCAL/ANGSTROM
     11          4  C    CARTESIAN Y     0.274555      0.032724  KCAL/ANGSTROM
     12          4  C    CARTESIAN Z     1.148194      0.004269  KCAL/ANGSTROM
     13          5  C    CARTESIAN X    -0.000853     -0.165671  KCAL/ANGSTROM
     14          5  C    CARTESIAN Y    -0.505438     -0.111621  KCAL/ANGSTROM
     15          5  C    CARTESIAN Z    -0.046950     -0.253718  KCAL/ANGSTROM
     16          6  C    CARTESIAN X     0.969526      0.118579  KCAL/ANGSTROM
     17          6  C    CARTESIAN Y     0.133378      0.015308  KCAL/ANGSTROM
     18          6  C    CARTESIAN Z    -1.016459     -0.093923  KCAL/ANGSTROM
     19          7  C    CARTESIAN X     2.330644      0.127105  KCAL/ANGSTROM
     20          7  C    CARTESIAN Y    -0.152608     -0.107346  KCAL/ANGSTROM
     21          7  C    CARTESIAN Z    -0.621729      0.062877  KCAL/ANGSTROM
     22          8  N    CARTESIAN X     3.418165      0.162150  KCAL/ANGSTROM
     23          8  N    CARTESIAN Y    -0.381137      0.030026  KCAL/ANGSTROM
     24          8  N    CARTESIAN Z    -0.301109      0.030388  KCAL/ANGSTROM
     25          9  H    CARTESIAN X    -2.911473     -0.011780  KCAL/ANGSTROM
     26          9  H    CARTESIAN Y     1.451658     -0.252151  KCAL/ANGSTROM
     27          9  H    CARTESIAN Z    -0.512967      0.172898  KCAL/ANGSTROM
     28         10  H    CARTESIAN X    -1.260154     -0.089090  KCAL/ANGSTROM
     29         10  H    CARTESIAN Y     1.908903     -0.076492  KCAL/ANGSTROM
     30         10  H    CARTESIAN Z    -0.918407     -0.098943  KCAL/ANGSTROM
     31         11  H    CARTESIAN X    -2.108493     -0.035238  KCAL/ANGSTROM
     32         11  H    CARTESIAN Y     0.706249      0.097966  KCAL/ANGSTROM
     33         11  H    CARTESIAN Z    -1.902382     -0.033517  KCAL/ANGSTROM
     34         12  H    CARTESIAN X    -3.389909      0.088745  KCAL/ANGSTROM
     35         12  H    CARTESIAN Y    -0.700541      0.247422  KCAL/ANGSTROM
     36         12  H    CARTESIAN Z     0.736347     -0.062512  KCAL/ANGSTROM
     37         13  H    CARTESIAN X    -2.831299     -0.005584  KCAL/ANGSTROM
     38         13  H    CARTESIAN Y    -1.561094     -0.047662  KCAL/ANGSTROM
     39         13  H    CARTESIAN Z    -0.707741      0.022945  KCAL/ANGSTROM
     40         14  H    CARTESIAN X    -2.138265      0.002839  KCAL/ANGSTROM
     41         14  H    CARTESIAN Y    -1.938234     -0.001587  KCAL/ANGSTROM
     42         14  H    CARTESIAN Z     0.872402     -0.134126  KCAL/ANGSTROM
     43         15  H    CARTESIAN X    -0.182951     -0.039414  KCAL/ANGSTROM
     44         15  H    CARTESIAN Y     1.298720      0.112006  KCAL/ANGSTROM
     45         15  H    CARTESIAN Z     1.305350      0.112850  KCAL/ANGSTROM
     46         16  H    CARTESIAN X    -0.611334     -0.039998  KCAL/ANGSTROM
     47         16  H    CARTESIAN Y    -0.223931      0.014087  KCAL/ANGSTROM
     48         16  H    CARTESIAN Z     2.107521      0.059339  KCAL/ANGSTROM
     49         17  H    CARTESIAN X     0.198741      0.064876  KCAL/ANGSTROM
     50         17  H    CARTESIAN Y    -1.576442     -0.179218  KCAL/ANGSTROM
     51         17  H    CARTESIAN Z     0.091404      0.199153  KCAL/ANGSTROM
     52         18  H    CARTESIAN X     0.770318     -0.070209  KCAL/ANGSTROM
     53         18  H    CARTESIAN Y    -0.247149     -0.097950  KCAL/ANGSTROM
     54         18  H    CARTESIAN Z    -2.049826     -0.200981  KCAL/ANGSTROM
     55         19  H    CARTESIAN X     0.811090      0.041584  KCAL/ANGSTROM
     56         19  H    CARTESIAN Y     1.238314      0.255949  KCAL/ANGSTROM
     57         19  H    CARTESIAN Z    -1.077499      0.077040  KCAL/ANGSTROM




   ATOM   CHEMICAL          X               Y               Z
  NUMBER   SYMBOL      (ANGSTROMS)     (ANGSTROMS)     (ANGSTROMS)

     1       C         -1.95059030  *   1.05902671  *  -0.87476805  *
     2       C         -1.45901054  *  -0.05274859  *   0.01524272  *
     3       C         -2.50296497  *  -1.11830124  *   0.24161005  *
     4       C         -0.50622436  *   0.27455507  *   1.14819391  *
     5       C         -0.00085349  *  -0.50543833  *  -0.04694996  *
     6       C          0.96952611  *   0.13337804  *  -1.01645933  *
     7       C          2.33064403  *  -0.15260764  *  -0.62172914  *
     8       N          3.41816513  *  -0.38113702  *  -0.30110876  *
     9       H         -2.91147255  *   1.45165796  *  -0.51296662  *
    10       H         -1.26015378  *   1.90890326  *  -0.91840674  *
    11       H         -2.10849346  *   0.70624916  *  -1.90238239  *
    12       H         -3.38990876  *  -0.70054119  *   0.73634692  *
    13       H         -2.83129941  *  -1.56109420  *  -0.70774122  *
    14       H         -2.13826499  *  -1.93823357  *   0.87240200  *
    15       H         -0.18295080  *   1.29872031  *   1.30534952  *
    16       H         -0.61133407  *  -0.22393062  *   2.10752143  *
    17       H          0.19874081  *  -1.57644214  *   0.09140388  *
    18       H          0.77031804  *  -0.24714851  *  -2.04982589  *
    19       H          0.81109005  *   1.23831373  *  -1.07749864  *

                             CARTESIAN COORDINATES

   1    C       -1.950590301     1.059026707    -0.874768053
   2    C       -1.459010544    -0.052748594     0.015242716
   3    C       -2.502964968    -1.118301236     0.241610053
   4    C       -0.506224365     0.274555074     1.148193907
   5    C       -0.000853485    -0.505438326    -0.046949960
   6    C        0.969526105     0.133378043    -1.016459325
   7    C        2.330644026    -0.152607639    -0.621729144
   8    N        3.418165133    -0.381137023    -0.301108756
   9    H       -2.911472552     1.451657964    -0.512966623
  10    H       -1.260153782     1.908903255    -0.918406744
  11    H       -2.108493461     0.706249159    -1.902382387
  12    H       -3.389908756    -0.700541190     0.736346921
  13    H       -2.831299410    -1.561094203    -0.707741224
  14    H       -2.138264989    -1.938233566     0.872401997
  15    H       -0.182950800     1.298720310     1.305349524
  16    H       -0.611334065    -0.223930621     2.107521432
  17    H        0.198740811    -1.576442142     0.091403880
  18    H        0.770318041    -0.247148512    -2.049825895
  19    H        0.811090046     1.238313731    -1.077498638


           Empirical Formula: C7 H11 N  =    19 atoms



      MOLECULAR POINT GROUP   :   C1  


                  EIGENVALUES  
 -34.84600 -31.55295 -27.32945 -25.42759 -24.47030 -20.70078 -18.74459 -18.06867
 -16.61566 -16.19884 -15.29888 -15.15637 -13.97469 -13.78639 -13.56755 -13.28521
 -13.19687 -12.63744 -12.49972 -12.27465 -11.24630 -10.75429   1.28907   1.37401
   2.12803   3.06219   3.46275   3.81676   3.93271   4.15937   4.44381   4.74973
   5.22574   5.45378   5.47780   5.51749   5.54228   5.59944   5.85184   6.00912
   6.30275   6.59460   6.72124


              NET ATOMIC CHARGES AND DIPOLE CONTRIBUTIONS

  ATOM NO.   TYPE          CHARGE      No. of ELECS.   s-Pop       p-Pop       
    1          C          -0.443333        4.4433     1.05092     3.39241
    2          C           0.059682        3.9403     1.03511     2.90521
    3          C          -0.444999        4.4450     1.05205     3.39295
    4          C          -0.353311        4.3533     1.05708     3.29623
    5          C          -0.186482        4.1865     1.05013     3.13635
    6          C          -0.250536        4.2505     1.04213     3.20841
    7          C           0.120400        3.8796     1.11793     2.76167
    8          N          -0.262580        5.2626     1.83159     3.43099
    9          H           0.155440        0.8446     0.84456
   10          H           0.146702        0.8533     0.85330
   11          H           0.152415        0.8476     0.84758
   12          H           0.153128        0.8469     0.84687
   13          H           0.152692        0.8473     0.84731
   14          H           0.151230        0.8488     0.84877
   15          H           0.161555        0.8384     0.83844
   16          H           0.163406        0.8366     0.83659
   17          H           0.166259        0.8337     0.83374
   18          H           0.180077        0.8199     0.81992
   19          H           0.178256        0.8217     0.82174
 DIPOLE           X         Y         Z       TOTAL
 POINT-CHG.    -4.015     0.636    -1.034     4.195
 HYBRID        -0.266     0.168    -0.105     0.331
 SUM           -4.281     0.804    -1.140     4.503


          ATOMIC ORBITAL ELECTRON POPULATIONS

     Atom    s        px        py        pz   
    1  C   1.05092   1.16833   1.09463   1.12946
    2  C   1.03511   0.90250   0.99019   1.01252
    3  C   1.05205   1.11250   1.10391   1.17654
    4  C   1.05708   1.13055   1.14020   1.02549
    5  C   1.05013   1.00831   1.08651   1.04153
    6  C   1.04213   0.94502   1.15409   1.10930
    7  C   1.11793   0.92013   0.92058   0.92096
    8  N   1.83159   1.21176   1.10871   1.11051
    9  H   0.84456
   10  H   0.85330
   11  H   0.84758
   12  H   0.84687
   13  H   0.84731
   14  H   0.84877
   15  H   0.83844
   16  H   0.83659
   17  H   0.83374
   18  H   0.81992
   19  H   0.82174

 **********************
 *                    *
 * JOB ENDED NORMALLY *
 *                    *
 **********************



 TOTAL JOB TIME:             1.20 SECONDS

 == MOPAC DONE ==
