 *******************************************************************************
 **                                                                           **
 **                              MOPAC v23.2                                  **
 **                                                                           **
 *******************************************************************************
 **          Digital Object Identifier (DOI): 10.5281/zenodo.6511958          **
 **    Visit the DOI location for information on how to cite this program.    **
 *******************************************************************************

                              PM7 CALCULATION RESULTS

 *******************************************************************************
 *  CALCULATION DONE: (MAX THREADS = 40)             Fri Sep 19 21:32:54 2025  *
 *  PM7        - The PM7 Hamiltonian to be used
 *
 *
 *
 *                 CHARGE ON SYSTEM = +1
 *
 *
 *
 *  1SCF       - DO 1 SCF AND THEN STOP 
 *  T=         - A TIME OF 172800.0 SECONDS REQUESTED
 *  DUMP=N     - RESTART FILE WRITTEN EVERY 7200.0 SECONDS REQUESTED
 *  RELSCF     - DEFAULT SCF CRITERION MULTIPLIED BY 0.0001
 *              (DEFAULT SCF CRITERION = 0.00010)
 *  GRADIENTS  - ALL GRADIENTS TO BE PRINTED
 *  DISP       - PRINT DISPERSION AND HYDROGEN BOND ENERGIES
 *******************************************************************************
PM7 1SCF GRADIENTS DISP RELSCF=0.0001 CHARGE=1
 Title: ASE calculation

   ATOM   CHEMICAL          X               Y               Z
  NUMBER   SYMBOL      (ANGSTROMS)     (ANGSTROMS)     (ANGSTROMS)

     1       C         -1.88253358  *   1.76376779  *  -0.24143105  *
     2       C         -2.00966418  *   0.25983017  *  -0.05817739  *
     3       C         -0.66090569  *  -0.48753802  *  -0.06184040  *
     4       C         -0.83622738  *  -1.94743026  *   0.36193369  *
     5       C          0.15441195  *  -0.32123139  *  -1.32649216  *
     6       C          1.64613233  *  -0.47288115  *  -1.04199884  *
     7       C          2.07284720  *   0.59893601  *  -0.04442119  *
     8       C          1.24449987  *   0.50748153  *   1.21271135  *
     9       O         -0.05544461  *   0.05790628  *   1.14252004  *
    10       H         -2.86738145  *   2.25300947  *  -0.12274985  *
    11       H         -1.21837561  *   2.23529914  *   0.48827166  *
    12       H         -1.53497770  *   2.04477184  *  -1.24461199  *
    13       H         -2.57445203  *   0.04000573  *   0.87495821  *
    14       H         -2.63611081  *  -0.17042160  *  -0.87592606  *
    15       H         -1.29251547  *  -2.06518088  *   1.35754974  *
    16       H         -1.51004746  *  -2.46702069  *  -0.34550194  *
    17       H          0.11129837  *  -2.50621766  *   0.35754446  *
    18       H         -0.17303570  *  -1.06280104  *  -2.09193477  *
    19       H         -0.03951866  *   0.66384146  *  -1.80926281  *
    20       H          1.88954296  *  -1.48954740  *  -0.67468459  *
    21       H          2.22823834  *  -0.37343463  *  -1.98638607  *
    22       H          3.15875634  *   0.50429759  *   0.19144832  *
    23       H          1.98426438  *   1.60843759  *  -0.50807611  *
    24       H          1.69160708  *  -0.18820691  *   1.99428917  *
    25       H          1.15123756  *   1.48656104  *   1.77297463  *



          CARTESIAN COORDINATES 

    NO.       ATOM           X           Y           Z

     1         C         -1.8825      1.7638     -0.2414
     2         C         -2.0097      0.2598     -0.0582
     3         C         -0.6609     -0.4875     -0.0618
     4         C         -0.8362     -1.9474      0.3619
     5         C          0.1544     -0.3212     -1.3265
     6         C          1.6461     -0.4729     -1.0420
     7         C          2.0728      0.5989     -0.0444
     8         C          1.2445      0.5075      1.2127
     9         O         -0.0554      0.0579      1.1425
    10         H         -2.8674      2.2530     -0.1227
    11         H         -1.2184      2.2353      0.4883
    12         H         -1.5350      2.0448     -1.2446
    13         H         -2.5745      0.0400      0.8750
    14         H         -2.6361     -0.1704     -0.8759
    15         H         -1.2925     -2.0652      1.3575
    16         H         -1.5100     -2.4670     -0.3455
    17         H          0.1113     -2.5062      0.3575
    18         H         -0.1730     -1.0628     -2.0919
    19         H         -0.0395      0.6638     -1.8093
    20         H          1.8895     -1.4895     -0.6747
    21         H          2.2282     -0.3734     -1.9864
    22         H          3.1588      0.5043      0.1914
    23         H          1.9843      1.6084     -0.5081
    24         H          1.6916     -0.1882      1.9943
    25         H          1.1512      1.4866      1.7730

 General Reference for PM7:
 "Optimization of Parameters for Semiempirical Methods VI: More Modifications to the 
 NDDO Approximations and Re-optimization of Parameters", J. J. P. Stewart, J. Mol. Mod., 1:32, 19 (2013)
 https://link.springer.com/article/10.1007/s00894-012-1667-x

           Empirical Formula: C8 H16 O  =    25 atoms



      MOLECULAR POINT GROUP   :   C1  


          UHF CALCULATION, NO. OF ALPHA ELECTRONS =   27
                           NO. OF BETA  ELECTRONS =   26
  SCF CRITERION =    0.1000E-07

 -------------------------------------------------------------------------------
 PM7 1SCF GRADIENTS DISP RELSCF=0.0001 CHARGE=1
 Title: ASE calculation



     1SCF WAS SPECIFIED, SO BFGS WAS NOT USED                 
     SCF FIELD WAS ACHIEVED                                   


                              PM7 CALCULATION
                                                       MOPAC v23.2 Linux
                                                       Fri Sep 19 21:32:55 2025




          FINAL HEAT OF FORMATION =        125.46365 KCAL/MOL =     524.93990 KJ/MOL

          TOTAL ENERGY            =     -34268.69887 KCAL/MOL = ELECTRONIC ENERGY + CORE-CORE REPULSION
          ENERGY OF ATOMS         =      34396.99794 KCAL/MOL
                              SUM =        128.29907 KCAL/MOL
          DISPERSION ENERGY       =         -2.83542 KCAL/MOL
                              SUM =        125.46365 KCAL/MOL = FINAL HEAT OF FORMATION



          TOTAL ENERGY            =      -1486.03143 EV
          ELECTRONIC ENERGY       =      -8499.11321 EV 
          CORE-CORE REPULSION     =       7013.08178 EV
          COSMO AREA              =        173.51 SQUARE ANGSTROMS
          COSMO VOLUME            =        183.98 CUBIC ANGSTROMS

          GRADIENT NORM           =          1.38969          =       0.27794 PER ATOM
          IONIZATION POTENTIAL    =         15.643564 EV
          ALPHA SOMO LUMO (EV)    =        -15.644 -4.567
          BETA  SOMO LUMO (EV)    =        -15.691 -7.592
          NO. OF ALPHA ELECTRONS  =         27
          NO. OF BETA  ELECTRONS  =         26
          MOLECULAR WEIGHT        =        128.2138         POINT GROUP:  C1  

          MOLECULAR DIMENSIONS (Angstroms)

            Atom       Atom       Distance
            H    22    H    10     6.28260
            H    16    H    25     4.97728
            H    15    H    21     4.24780


          SCF CALCULATIONS        =          1

          WALL-CLOCK TIME         =      0.859 SECONDS
          COMPUTATION TIME        =      0.523 SECONDS

          LARGEST ATOMIC GRADIENTS

          Atom     Label                     Cartesian Gradients           Cartesian Coordinates       |Gradient|
                                           X          Y          Z        X          Y          Z

            19       H                   0.157      0.400     -0.062   -0.03952    0.66384   -1.80926      0.434
            12       H                  -0.275      0.189      0.265   -1.53498    2.04477   -1.24461      0.426
             9       O                  -0.161      0.298      0.243   -0.05544    0.05791    1.14252      0.417
            15       H                  -0.202      0.038      0.352   -1.29252   -2.06518    1.35755      0.407
            17       H                   0.352     -0.160     -0.082    0.11130   -2.50622    0.35754      0.396
             4       C                   0.067     -0.330      0.147   -0.83623   -1.94743    0.36193      0.367
            11       H                   0.104     -0.026     -0.339   -1.21838    2.23530    0.48827      0.355
            16       H                  -0.049     -0.024     -0.348   -1.51005   -2.46702   -0.34550      0.352
            23       H                  -0.028     -0.321      0.040    1.98426    1.60844   -0.50808      0.325
            25       H                   0.127      0.158      0.234    1.15124    1.48656    1.77297      0.310



       FINAL  POINT  AND  DERIVATIVES

   PARAMETER     ATOM    TYPE            VALUE        GRADIENT
      1          1  C    CARTESIAN X    -1.882534     -0.151122  KCAL/ANGSTROM
      2          1  C    CARTESIAN Y     1.763768     -0.098502  KCAL/ANGSTROM
      3          1  C    CARTESIAN Z    -0.241431      0.102203  KCAL/ANGSTROM
      4          2  C    CARTESIAN X    -2.009664      0.088064  KCAL/ANGSTROM
      5          2  C    CARTESIAN Y     0.259830     -0.095927  KCAL/ANGSTROM
      6          2  C    CARTESIAN Z    -0.058177     -0.039370  KCAL/ANGSTROM
      7          3  C    CARTESIAN X    -0.660906     -0.032399  KCAL/ANGSTROM
      8          3  C    CARTESIAN Y    -0.487538     -0.287838  KCAL/ANGSTROM
      9          3  C    CARTESIAN Z    -0.061840     -0.037531  KCAL/ANGSTROM
     10          4  C    CARTESIAN X    -0.836227      0.067130  KCAL/ANGSTROM
     11          4  C    CARTESIAN Y    -1.947430     -0.329729  KCAL/ANGSTROM
     12          4  C    CARTESIAN Z     0.361934      0.147443  KCAL/ANGSTROM
     13          5  C    CARTESIAN X     0.154412      0.055939  KCAL/ANGSTROM
     14          5  C    CARTESIAN Y    -0.321231      0.050631  KCAL/ANGSTROM
     15          5  C    CARTESIAN Z    -1.326492     -0.166662  KCAL/ANGSTROM
     16          6  C    CARTESIAN X     1.646132      0.056410  KCAL/ANGSTROM
     17          6  C    CARTESIAN Y    -0.472881     -0.016026  KCAL/ANGSTROM
     18          6  C    CARTESIAN Z    -1.041999      0.051653  KCAL/ANGSTROM
     19          7  C    CARTESIAN X     2.072847      0.015910  KCAL/ANGSTROM
     20          7  C    CARTESIAN Y     0.598936     -0.127523  KCAL/ANGSTROM
     21          7  C    CARTESIAN Z    -0.044421     -0.033876  KCAL/ANGSTROM
     22          8  C    CARTESIAN X     1.244500     -0.053833  KCAL/ANGSTROM
     23          8  C    CARTESIAN Y     0.507482      0.176295  KCAL/ANGSTROM
     24          8  C    CARTESIAN Z     1.212711     -0.032706  KCAL/ANGSTROM
     25          9  O    CARTESIAN X    -0.055445     -0.161323  KCAL/ANGSTROM
     26          9  O    CARTESIAN Y     0.057906      0.297503  KCAL/ANGSTROM
     27          9  O    CARTESIAN Z     1.142520      0.243229  KCAL/ANGSTROM
     28         10  H    CARTESIAN X    -2.867381     -0.072254  KCAL/ANGSTROM
     29         10  H    CARTESIAN Y     2.253009      0.130975  KCAL/ANGSTROM
     30         10  H    CARTESIAN Z    -0.122750      0.045675  KCAL/ANGSTROM
     31         11  H    CARTESIAN X    -1.218376      0.103841  KCAL/ANGSTROM
     32         11  H    CARTESIAN Y     2.235299     -0.025727  KCAL/ANGSTROM
     33         11  H    CARTESIAN Z     0.488272     -0.338665  KCAL/ANGSTROM
     34         12  H    CARTESIAN X    -1.534978     -0.274656  KCAL/ANGSTROM
     35         12  H    CARTESIAN Y     2.044772      0.189294  KCAL/ANGSTROM
     36         12  H    CARTESIAN Z    -1.244612      0.264869  KCAL/ANGSTROM
     37         13  H    CARTESIAN X    -2.574452      0.019677  KCAL/ANGSTROM
     38         13  H    CARTESIAN Y     0.040006      0.135070  KCAL/ANGSTROM
     39         13  H    CARTESIAN Z     0.874958     -0.110054  KCAL/ANGSTROM
     40         14  H    CARTESIAN X    -2.636111      0.096478  KCAL/ANGSTROM
     41         14  H    CARTESIAN Y    -0.170422      0.020671  KCAL/ANGSTROM
     42         14  H    CARTESIAN Z    -0.875926      0.008097  KCAL/ANGSTROM
     43         15  H    CARTESIAN X    -1.292515     -0.201728  KCAL/ANGSTROM
     44         15  H    CARTESIAN Y    -2.065181      0.038248  KCAL/ANGSTROM
     45         15  H    CARTESIAN Z     1.357550      0.351686  KCAL/ANGSTROM
     46         16  H    CARTESIAN X    -1.510047     -0.049187  KCAL/ANGSTROM
     47         16  H    CARTESIAN Y    -2.467021     -0.024063  KCAL/ANGSTROM
     48         16  H    CARTESIAN Z    -0.345502     -0.348067  KCAL/ANGSTROM
     49         17  H    CARTESIAN X     0.111298      0.352460  KCAL/ANGSTROM
     50         17  H    CARTESIAN Y    -2.506218     -0.159756  KCAL/ANGSTROM
     51         17  H    CARTESIAN Z     0.357544     -0.082198  KCAL/ANGSTROM
     52         18  H    CARTESIAN X    -0.173036     -0.057109  KCAL/ANGSTROM
     53         18  H    CARTESIAN Y    -1.062801     -0.114751  KCAL/ANGSTROM
     54         18  H    CARTESIAN Z    -2.091935     -0.236327  KCAL/ANGSTROM
     55         19  H    CARTESIAN X    -0.039519      0.156710  KCAL/ANGSTROM
     56         19  H    CARTESIAN Y     0.663841      0.400075  KCAL/ANGSTROM
     57         19  H    CARTESIAN Z    -1.809263     -0.061681  KCAL/ANGSTROM
     58         20  H    CARTESIAN X     1.889543     -0.173056  KCAL/ANGSTROM
     59         20  H    CARTESIAN Y    -1.489547      0.053194  KCAL/ANGSTROM
     60         20  H    CARTESIAN Z    -0.674685      0.097969  KCAL/ANGSTROM
     61         21  H    CARTESIAN X     2.228238      0.058714  KCAL/ANGSTROM
     62         21  H    CARTESIAN Y    -0.373435     -0.127383  KCAL/ANGSTROM
     63         21  H    CARTESIAN Z    -1.986386      0.052268  KCAL/ANGSTROM
     64         22  H    CARTESIAN X     3.158756     -0.041540  KCAL/ANGSTROM
     65         22  H    CARTESIAN Y     0.504298      0.049220  KCAL/ANGSTROM
     66         22  H    CARTESIAN Z     0.191448     -0.151854  KCAL/ANGSTROM
     67         23  H    CARTESIAN X     1.984264     -0.028011  KCAL/ANGSTROM
     68         23  H    CARTESIAN Y     1.608438     -0.320996  KCAL/ANGSTROM
     69         23  H    CARTESIAN Z    -0.508076      0.040249  KCAL/ANGSTROM
     70         24  H    CARTESIAN X     1.691607      0.098157  KCAL/ANGSTROM
     71         24  H    CARTESIAN Y    -0.188207      0.028912  KCAL/ANGSTROM
     72         24  H    CARTESIAN Z     1.994289     -0.000352  KCAL/ANGSTROM
     73         25  H    CARTESIAN X     1.151238      0.126729  KCAL/ANGSTROM
     74         25  H    CARTESIAN Y     1.486561      0.158129  KCAL/ANGSTROM
     75         25  H    CARTESIAN Z     1.772975      0.233996  KCAL/ANGSTROM




   ATOM   CHEMICAL          X               Y               Z
  NUMBER   SYMBOL      (ANGSTROMS)     (ANGSTROMS)     (ANGSTROMS)

     1       C         -1.88253358  *   1.76376779  *  -0.24143105  *
     2       C         -2.00966418  *   0.25983017  *  -0.05817739  *
     3       C         -0.66090569  *  -0.48753802  *  -0.06184040  *
     4       C         -0.83622738  *  -1.94743026  *   0.36193369  *
     5       C          0.15441195  *  -0.32123139  *  -1.32649216  *
     6       C          1.64613233  *  -0.47288115  *  -1.04199884  *
     7       C          2.07284720  *   0.59893601  *  -0.04442119  *
     8       C          1.24449987  *   0.50748153  *   1.21271135  *
     9       O         -0.05544461  *   0.05790628  *   1.14252004  *
    10       H         -2.86738145  *   2.25300947  *  -0.12274985  *
    11       H         -1.21837561  *   2.23529914  *   0.48827166  *
    12       H         -1.53497770  *   2.04477184  *  -1.24461199  *
    13       H         -2.57445203  *   0.04000573  *   0.87495821  *
    14       H         -2.63611081  *  -0.17042160  *  -0.87592606  *
    15       H         -1.29251547  *  -2.06518088  *   1.35754974  *
    16       H         -1.51004746  *  -2.46702069  *  -0.34550194  *
    17       H          0.11129837  *  -2.50621766  *   0.35754446  *
    18       H         -0.17303570  *  -1.06280104  *  -2.09193477  *
    19       H         -0.03951866  *   0.66384146  *  -1.80926281  *
    20       H          1.88954296  *  -1.48954740  *  -0.67468459  *
    21       H          2.22823834  *  -0.37343463  *  -1.98638607  *
    22       H          3.15875634  *   0.50429759  *   0.19144832  *
    23       H          1.98426438  *   1.60843759  *  -0.50807611  *
    24       H          1.69160708  *  -0.18820691  *   1.99428917  *
    25       H          1.15123756  *   1.48656104  *   1.77297463  *

                             CARTESIAN COORDINATES

   1    C       -1.882533575     1.763767785    -0.241431048
   2    C       -2.009664177     0.259830165    -0.058177389
   3    C       -0.660905694    -0.487538025    -0.061840399
   4    C       -0.836227381    -1.947430259     0.361933692
   5    C        0.154411952    -0.321231389    -1.326492156
   6    C        1.646132331    -0.472881146    -1.041998843
   7    C        2.072847204     0.598936013    -0.044421190
   8    C        1.244499870     0.507481527     1.212711352
   9    O       -0.055444609     0.057906275     1.142520041
  10    H       -2.867381452     2.253009470    -0.122749853
  11    H       -1.218375608     2.235299137     0.488271663
  12    H       -1.534977701     2.044771836    -1.244611989
  13    H       -2.574452033     0.040005731     0.874958214
  14    H       -2.636110806    -0.170421601    -0.875926062
  15    H       -1.292515467    -2.065180885     1.357549745
  16    H       -1.510047460    -2.467020692    -0.345501937
  17    H        0.111298370    -2.506217659     0.357544465
  18    H       -0.173035703    -1.062801039    -2.091934775
  19    H       -0.039518665     0.663841464    -1.809262813
  20    H        1.889542958    -1.489547398    -0.674684592
  21    H        2.228238336    -0.373434632    -1.986386067
  22    H        3.158756343     0.504297588     0.191448317
  23    H        1.984264375     1.608437593    -0.508076111
  24    H        1.691607084    -0.188206909     1.994289169
  25    H        1.151237560     1.486561043     1.772974627


           Empirical Formula: C8 H16 O  =    25 atoms



      MOLECULAR POINT GROUP   :   C1  


          ALPHA EIGENVALUES  
 -38.93945 -34.31558 -33.21963 -30.64963 -29.41351 -27.70913 -26.59572 -25.04152
 -23.45713 -22.19937 -22.14204 -21.14070 -20.17212 -20.00049 -19.16315 -18.98985
 -18.84702 -17.98511 -17.89262 -17.47662 -17.03648 -16.94629 -16.60982 -16.26617
 -16.20049 -15.76987 -15.64356  -4.56687  -2.07647  -1.22962  -1.16634  -0.83948
  -0.81542  -0.66470  -0.39498   0.08097   0.16373   0.17579   1.01943   1.13224
   1.15804   1.18537   1.24927   1.52013   1.84058   1.90855   1.97111   2.10368
   2.19911   2.30613   2.42244   3.14663


           BETA EIGENVALUES 
 -36.39960 -33.75434 -32.92074 -30.57247 -29.20354 -27.51748 -26.49969 -24.95948
 -23.11060 -21.88250 -21.23374 -20.92842 -19.95836 -19.58745 -19.05634 -18.94472
 -18.56787 -17.78490 -17.67431 -17.37264 -16.87958 -16.47973 -16.17198 -16.11904
 -16.02123 -15.69084  -7.59223  -4.00480  -1.80479  -1.17938  -1.12527  -0.81592
  -0.71617  -0.49589  -0.33442   0.11237   0.18184   0.28494   1.02809   1.14489
   1.17051   1.19341   1.25380   1.52115   1.84407   1.91140   1.97499   2.10533
   2.20052   2.30755   2.42472   3.14763


              NET ATOMIC CHARGES AND DIPOLE CONTRIBUTIONS

  ATOM NO.   TYPE          CHARGE      No. of ELECS.   s-Pop       p-Pop       
    1          C          -0.447044        4.4470     1.05050     3.39654
    2          C          -0.295349        4.2953     1.06946     3.22589
    3          C           0.179902        3.8201     1.12650     2.69360
    4          C          -0.488376        4.4884     1.06655     3.42183
    5          C          -0.338724        4.3387     1.06547     3.27326
    6          C          -0.265325        4.2653     1.05559     3.20974
    7          C          -0.307932        4.3079     1.06056     3.24737
    8          C          -0.163726        4.1637     1.11622     3.04751
    9          O           0.128275        5.8717     1.89401     3.97771
   10          H           0.186940        0.8131     0.81306
   11          H           0.144041        0.8560     0.85596
   12          H           0.162747        0.8373     0.83725
   13          H           0.176867        0.8231     0.82313
   14          H           0.193867        0.8061     0.80613
   15          H           0.186431        0.8136     0.81357
   16          H           0.206772        0.7932     0.79323
   17          H           0.182275        0.8177     0.81772
   18          H           0.191459        0.8085     0.80854
   19          H           0.182979        0.8170     0.81702
   20          H           0.159849        0.8402     0.84015
   21          H           0.183857        0.8161     0.81614
   22          H           0.191770        0.8082     0.80823
   23          H           0.182946        0.8171     0.81705
   24          H           0.236513        0.7635     0.76349
   25          H           0.228988        0.7710     0.77101
 DIPOLE           X         Y         Z       TOTAL
 POINT-CHG.     1.320    -0.161     1.482     1.991
 HYBRID        -0.069    -0.001     0.342     0.349
 SUM            1.250    -0.162     1.824     2.217


          ATOMIC ORBITAL ELECTRON POPULATIONS

     Atom    s        px        py        pz   
    1  C   1.05050   1.21210   0.99898   1.18547
    2  C   1.06946   0.99021   1.02901   1.20667
    3  C   1.12650   0.92168   0.92824   0.84368
    4  C   1.06655   1.21834   0.99432   1.20918
    5  C   1.06547   1.01670   1.21685   1.03971
    6  C   1.05559   1.00335   1.08676   1.11963
    7  C   1.06056   1.11851   1.13575   0.99311
    8  C   1.11622   0.85314   1.10571   1.08866
    9  O   1.89401   1.26460   1.26894   1.44417
   10  H   0.81306
   11  H   0.85596
   12  H   0.83725
   13  H   0.82313
   14  H   0.80613
   15  H   0.81357
   16  H   0.79323
   17  H   0.81772
   18  H   0.80854
   19  H   0.81702
   20  H   0.84015
   21  H   0.81614
   22  H   0.80823
   23  H   0.81705
   24  H   0.76349
   25  H   0.77101


                    (SZ)    =    0.500000
                    (S**2)  =    0.758202


          ATOMIC ORBITAL SPIN POPULATIONS

    Atom   Total    s     px     py     pz   
         Atomic
    1  C -0.0013 -0.000 -0.000 -0.001 -0.000
    2  C  0.0381  0.004  0.026  0.006  0.002
    3  C -0.0432 -0.005 -0.017 -0.000 -0.021
    4  C  0.0527  0.006  0.002  0.044  0.001
    5  C  0.0011  0.000  0.000  0.000  0.000
    6  C -0.0010 -0.000 -0.001  0.000 -0.001
    7  C  0.0018 -0.000 -0.001  0.002  0.001
    8  C  0.0016 -0.008 -0.023  0.042 -0.010
    9  O  0.8072  0.019  0.108  0.607  0.073
   10  H  0.0009  0.001
   11  H  0.0001  0.000
   12  H  0.0001  0.000
   13  H -0.0013 -0.001
   14  H  0.0004  0.000
   15  H -0.0015 -0.001
   16  H  0.0012  0.001
   17  H -0.0014 -0.001
   18  H -0.0014 -0.001
   19  H  0.0010  0.001
   20  H  0.0004  0.000
   21  H -0.0001 -0.000
   22  H  0.0001  0.000
   23  H  0.0052  0.005
   24  H  0.0798  0.080
   25  H  0.0593  0.059

 **********************
 *                    *
 * JOB ENDED NORMALLY *
 *                    *
 **********************



 TOTAL JOB TIME:             1.33 SECONDS

 == MOPAC DONE ==
