 *******************************************************************************
 **                                                                           **
 **                              MOPAC v23.2                                  **
 **                                                                           **
 *******************************************************************************
 **          Digital Object Identifier (DOI): 10.5281/zenodo.6511958          **
 **    Visit the DOI location for information on how to cite this program.    **
 *******************************************************************************

                              PM7 CALCULATION RESULTS

 *******************************************************************************
 *  CALCULATION DONE: (MAX THREADS = 40)             Fri Sep 19 21:41:06 2025  *
 *  PM7        - The PM7 Hamiltonian to be used
 *
 *
 *
 *                 CHARGE ON SYSTEM = +1
 *
 *
 *
 *  EPS=37.5   - USE ANDREAS KLAMT'S COSMO IMPLICIT SOLVATION MODEL
 *  1SCF       - DO 1 SCF AND THEN STOP 
 *  T=         - A TIME OF 172800.0 SECONDS REQUESTED
 *  DUMP=N     - RESTART FILE WRITTEN EVERY 7200.0 SECONDS REQUESTED
 *  RELSCF     - DEFAULT SCF CRITERION MULTIPLIED BY 0.0001
 *              (DEFAULT SCF CRITERION = 0.00010)
 *  GRADIENTS  - ALL GRADIENTS TO BE PRINTED
 *  DISP       - PRINT DISPERSION AND HYDROGEN BOND ENERGIES
 *******************************************************************************
PM7 1SCF GRADIENTS EPS=37.5 DISP RELSCF=0.0001 CHARGE=1
 Title: ASE calculation

   ATOM   CHEMICAL          X               Y               Z
  NUMBER   SYMBOL      (ANGSTROMS)     (ANGSTROMS)     (ANGSTROMS)

     1       O          2.30370926  *   0.99656135  *   0.14183307  *
     2       C          1.11372342  *   1.55030660  *  -0.36880676  *
     3       C          0.08884714  *   0.52297782  *  -0.16188369  *
     4       C          0.38027963  *  -0.78476236  *   0.42047769  *
     5       C         -0.89135025  *  -1.53374789  *   0.46017943  *
     6       C         -1.99337727  *  -0.72313414  *  -0.09617436  *
     7       O         -2.75724567  *  -0.07788050  *   0.95503375  *
     8       C         -2.24215452  *   1.23328384  *   0.63551877  *
     9       C         -1.32188917  *   0.66247501  *  -0.50796197  *
    10       H          3.06127107  *   1.63622584  *   0.06761642  *
    11       H          1.24287911  *   1.81230113  *  -1.45526916  *
    12       H          0.87007791  *   2.51312761  *   0.15700703  *
    13       H          0.90052191  *  -0.72007149  *   1.42940236  *
    14       H          1.21205489  *  -1.33561510  *  -0.12393282  *
    15       H         -1.01277764  *  -2.51312761  *   0.87689886  *
    16       H         -2.67808482  *  -1.20877886  *  -0.80892257  *
    17       H         -1.74098796  *   1.66719447  *   1.50619609  *
    18       H         -3.06127107  *   1.87364109  *   0.27146323  *
    19       H         -1.55230370  *   1.06957370  *  -1.50619609  *



          CARTESIAN COORDINATES 

    NO.       ATOM           X           Y           Z

     1         O          2.3037      0.9966      0.1418
     2         C          1.1137      1.5503     -0.3688
     3         C          0.0888      0.5230     -0.1619
     4         C          0.3803     -0.7848      0.4205
     5         C         -0.8914     -1.5337      0.4602
     6         C         -1.9934     -0.7231     -0.0962
     7         O         -2.7572     -0.0779      0.9550
     8         C         -2.2422      1.2333      0.6355
     9         C         -1.3219      0.6625     -0.5080
    10         H          3.0613      1.6362      0.0676
    11         H          1.2429      1.8123     -1.4553
    12         H          0.8701      2.5131      0.1570
    13         H          0.9005     -0.7201      1.4294
    14         H          1.2121     -1.3356     -0.1239
    15         H         -1.0128     -2.5131      0.8769
    16         H         -2.6781     -1.2088     -0.8089
    17         H         -1.7410      1.6672      1.5062
    18         H         -3.0613      1.8736      0.2715
    19         H         -1.5523      1.0696     -1.5062

 General Reference for PM7:
 "Optimization of Parameters for Semiempirical Methods VI: More Modifications to the 
 NDDO Approximations and Re-optimization of Parameters", J. J. P. Stewart, J. Mol. Mod., 1:32, 19 (2013)
 https://link.springer.com/article/10.1007/s00894-012-1667-x

           Empirical Formula: C7 H10 O2  =    19 atoms



      MOLECULAR POINT GROUP   :   C1  


          UHF CALCULATION, NO. OF ALPHA ELECTRONS =   25
                           NO. OF BETA  ELECTRONS =   24
  SCF CRITERION =    0.1000E-07

 -------------------------------------------------------------------------------
 PM7 1SCF GRADIENTS EPS=37.5 DISP RELSCF=0.0001 CHARGE=1
 Title: ASE calculation



     1SCF WAS SPECIFIED, SO BFGS WAS NOT USED                 
     SCF FIELD WAS ACHIEVED                                   


                              PM7 CALCULATION
                                                       MOPAC v23.2 Linux
                                                       Fri Sep 19 21:41:07 2025




          FINAL HEAT OF FORMATION =        100.39017 KCAL/MOL =     420.03248 KJ/MOL

          TOTAL ENERGY            =     -36380.34482 KCAL/MOL = ELECTRONIC ENERGY + CORE-CORE REPULSION + SOLVATION ENERGY
          ENERGY OF ATOMS         =      36482.50324 KCAL/MOL
                              SUM =        102.15842 KCAL/MOL
          DISPERSION ENERGY       =         -1.76824 KCAL/MOL
                              SUM =        100.39017 KCAL/MOL = FINAL HEAT OF FORMATION

          VAN DER WAALS AREA      =        158.43 SQUARE ANGSTROMS


          TOTAL ENERGY            =      -1577.60107 EV
          ELECTRONIC ENERGY       =      -2317.64715 EV 
          CORE-CORE REPULSION     =        740.04609 EV

          DIELECTRIC ENERGY       =         -2.67641 EV
          COSMO AREA              =        158.43 SQUARE ANGSTROMS
          COSMO VOLUME            =        156.19 CUBIC ANGSTROMS

          GRADIENT NORM           =         21.80869          =       5.00326 PER ATOM
          IONIZATION POTENTIAL    =         10.017904 EV
          ALPHA SOMO LUMO (EV)    =        -10.018 -2.465
          BETA  SOMO LUMO (EV)    =        -11.087 -2.430
          NO. OF ALPHA ELECTRONS  =         25
          NO. OF BETA  ELECTRONS  =         24
          MOLECULAR WEIGHT        =        126.1548         POINT GROUP:  C1  

          MOLECULAR DIMENSIONS (Angstroms)

            Atom       Atom       Distance
            H    16    H    10     6.46549
            H    15    H    18     4.87911
            H    11    H    17     3.42962


          SCF CALCULATIONS        =          2

          WALL-CLOCK TIME         =      1.148 SECONDS
          COMPUTATION TIME        =      0.720 SECONDS

          LARGEST ATOMIC GRADIENTS

          Atom     Label                     Cartesian Gradients           Cartesian Coordinates       |Gradient|
                                           X          Y          Z        X          Y          Z

             9       C                   9.704      2.305     -8.390   -1.32189    0.66248   -0.50796     13.033
             2       C                   4.790      7.880     -3.447    1.11372    1.55031   -0.36881      9.845
             3       C                  -7.661     -4.395      1.986    0.08885    0.52298   -0.16188      9.052
             6       C                  -3.771      0.444      4.326   -1.99338   -0.72313   -0.09617      5.756
             8       C                  -2.405     -3.427      3.438   -2.24215    1.23328    0.63552      5.417
             4       C                   3.572      1.630      0.095    0.38028   -0.78476    0.42048      3.928
             1       O                  -2.760      0.820     -1.216    2.30371    0.99656    0.14183      3.125
             7       O                   2.431      1.005     -1.456   -2.75725   -0.07788    0.95503      3.007
            19       H                  -1.357     -0.422      2.342   -1.55230    1.06957   -1.50620      2.739
            10       H                   1.539     -1.704      1.188    3.06127    1.63623    0.06762      2.585



       FINAL  POINT  AND  DERIVATIVES

   PARAMETER     ATOM    TYPE            VALUE        GRADIENT
      1          1  O    CARTESIAN X     2.303709     -2.759765  KCAL/ANGSTROM
      2          1  O    CARTESIAN Y     0.996561      0.819963  KCAL/ANGSTROM
      3          1  O    CARTESIAN Z     0.141833     -1.216022  KCAL/ANGSTROM
      4          2  C    CARTESIAN X     1.113723      4.790027  KCAL/ANGSTROM
      5          2  C    CARTESIAN Y     1.550307      7.879910  KCAL/ANGSTROM
      6          2  C    CARTESIAN Z    -0.368807     -3.447160  KCAL/ANGSTROM
      7          3  C    CARTESIAN X     0.088847     -7.660841  KCAL/ANGSTROM
      8          3  C    CARTESIAN Y     0.522978     -4.394555  KCAL/ANGSTROM
      9          3  C    CARTESIAN Z    -0.161884      1.985565  KCAL/ANGSTROM
     10          4  C    CARTESIAN X     0.380280      3.572398  KCAL/ANGSTROM
     11          4  C    CARTESIAN Y    -0.784762      1.630019  KCAL/ANGSTROM
     12          4  C    CARTESIAN Z     0.420478      0.094575  KCAL/ANGSTROM
     13          5  C    CARTESIAN X    -0.891350     -0.552858  KCAL/ANGSTROM
     14          5  C    CARTESIAN Y    -1.533748      0.261714  KCAL/ANGSTROM
     15          5  C    CARTESIAN Z     0.460179     -1.658216  KCAL/ANGSTROM
     16          6  C    CARTESIAN X    -1.993377     -3.770813  KCAL/ANGSTROM
     17          6  C    CARTESIAN Y    -0.723134      0.444280  KCAL/ANGSTROM
     18          6  C    CARTESIAN Z    -0.096174      4.326118  KCAL/ANGSTROM
     19          7  O    CARTESIAN X    -2.757246      2.431442  KCAL/ANGSTROM
     20          7  O    CARTESIAN Y    -0.077880      1.005383  KCAL/ANGSTROM
     21          7  O    CARTESIAN Z     0.955034     -1.455610  KCAL/ANGSTROM
     22          8  C    CARTESIAN X    -2.242155     -2.405319  KCAL/ANGSTROM
     23          8  C    CARTESIAN Y     1.233284     -3.426871  KCAL/ANGSTROM
     24          8  C    CARTESIAN Z     0.635519      3.437937  KCAL/ANGSTROM
     25          9  C    CARTESIAN X    -1.321889      9.703530  KCAL/ANGSTROM
     26          9  C    CARTESIAN Y     0.662475      2.304596  KCAL/ANGSTROM
     27          9  C    CARTESIAN Z    -0.507962     -8.389955  KCAL/ANGSTROM
     28         10  H    CARTESIAN X     3.061271      1.539084  KCAL/ANGSTROM
     29         10  H    CARTESIAN Y     1.636226     -1.704253  KCAL/ANGSTROM
     30         10  H    CARTESIAN Z     0.067616      1.187911  KCAL/ANGSTROM
     31         11  H    CARTESIAN X     1.242879      0.506044  KCAL/ANGSTROM
     32         11  H    CARTESIAN Y     1.812301     -0.754958  KCAL/ANGSTROM
     33         11  H    CARTESIAN Z    -1.455269      0.825920  KCAL/ANGSTROM
     34         12  H    CARTESIAN X     0.870078     -0.147906  KCAL/ANGSTROM
     35         12  H    CARTESIAN Y     2.513128     -1.160886  KCAL/ANGSTROM
     36         12  H    CARTESIAN Z     0.157007      0.541445  KCAL/ANGSTROM
     37         13  H    CARTESIAN X     0.900522     -0.132217  KCAL/ANGSTROM
     38         13  H    CARTESIAN Y    -0.720071     -0.270989  KCAL/ANGSTROM
     39         13  H    CARTESIAN Z     1.429402      0.742578  KCAL/ANGSTROM
     40         14  H    CARTESIAN X     1.212055      0.334813  KCAL/ANGSTROM
     41         14  H    CARTESIAN Y    -1.335615     -0.314041  KCAL/ANGSTROM
     42         14  H    CARTESIAN Z    -0.123933      0.083569  KCAL/ANGSTROM
     43         15  H    CARTESIAN X    -1.012778     -1.222547  KCAL/ANGSTROM
     44         15  H    CARTESIAN Y    -2.513128     -1.520032  KCAL/ANGSTROM
     45         15  H    CARTESIAN Z     0.876899      0.999019  KCAL/ANGSTROM
     46         16  H    CARTESIAN X    -2.678085     -0.860313  KCAL/ANGSTROM
     47         16  H    CARTESIAN Y    -1.208779     -0.900854  KCAL/ANGSTROM
     48         16  H    CARTESIAN Z    -0.808923     -0.388925  KCAL/ANGSTROM
     49         17  H    CARTESIAN X    -1.740988     -0.857433  KCAL/ANGSTROM
     50         17  H    CARTESIAN Y     1.667194      0.061234  KCAL/ANGSTROM
     51         17  H    CARTESIAN Z     1.506196      0.158326  KCAL/ANGSTROM
     52         18  H    CARTESIAN X    -3.061271     -1.150625  KCAL/ANGSTROM
     53         18  H    CARTESIAN Y     1.873641      0.461857  KCAL/ANGSTROM
     54         18  H    CARTESIAN Z     0.271463     -0.168959  KCAL/ANGSTROM
     55         19  H    CARTESIAN X    -1.552304     -1.356705  KCAL/ANGSTROM
     56         19  H    CARTESIAN Y     1.069574     -0.421522  KCAL/ANGSTROM
     57         19  H    CARTESIAN Z    -1.506196      2.341882  KCAL/ANGSTROM




   ATOM   CHEMICAL          X               Y               Z
  NUMBER   SYMBOL      (ANGSTROMS)     (ANGSTROMS)     (ANGSTROMS)

     1       O          2.30370926  *   0.99656135  *   0.14183307  *
     2       C          1.11372342  *   1.55030660  *  -0.36880676  *
     3       C          0.08884714  *   0.52297782  *  -0.16188369  *
     4       C          0.38027963  *  -0.78476236  *   0.42047769  *
     5       C         -0.89135025  *  -1.53374789  *   0.46017943  *
     6       C         -1.99337727  *  -0.72313414  *  -0.09617436  *
     7       O         -2.75724567  *  -0.07788050  *   0.95503375  *
     8       C         -2.24215452  *   1.23328384  *   0.63551877  *
     9       C         -1.32188917  *   0.66247501  *  -0.50796197  *
    10       H          3.06127107  *   1.63622584  *   0.06761642  *
    11       H          1.24287911  *   1.81230113  *  -1.45526916  *
    12       H          0.87007791  *   2.51312761  *   0.15700703  *
    13       H          0.90052191  *  -0.72007149  *   1.42940236  *
    14       H          1.21205489  *  -1.33561510  *  -0.12393282  *
    15       H         -1.01277764  *  -2.51312761  *   0.87689886  *
    16       H         -2.67808482  *  -1.20877886  *  -0.80892257  *
    17       H         -1.74098796  *   1.66719447  *   1.50619609  *
    18       H         -3.06127107  *   1.87364109  *   0.27146323  *
    19       H         -1.55230370  *   1.06957370  *  -1.50619609  *

                             CARTESIAN COORDINATES

   1    O        2.303709259     0.996561353     0.141833073
   2    C        1.113723425     1.550306605    -0.368806764
   3    C        0.088847142     0.522977818    -0.161883693
   4    C        0.380279625    -0.784762362     0.420477693
   5    C       -0.891350253    -1.533747893     0.460179427
   6    C       -1.993377269    -0.723134135    -0.096174364
   7    O       -2.757245670    -0.077880499     0.955033746
   8    C       -2.242154518     1.233283842     0.635518767
   9    C       -1.321889172     0.662475008    -0.507961966
  10    H        3.061271072     1.636225842     0.067616415
  11    H        1.242879108     1.812301126    -1.455269159
  12    H        0.870077911     2.513127605     0.157007030
  13    H        0.900521908    -0.720071487     1.429402363
  14    H        1.212054888    -1.335615096    -0.123932819
  15    H       -1.012777636    -2.513127605     0.876898861
  16    H       -2.678084822    -1.208778855    -0.808922571
  17    H       -1.740987959     1.667194475     1.506196090
  18    H       -3.061271072     1.873641087     0.271463229
  19    H       -1.552303699     1.069573703    -1.506196090


           Empirical Formula: C7 H10 O2  =    19 atoms



      MOLECULAR POINT GROUP   :   C1  


          ALPHA EIGENVALUES  
 -33.25842 -30.84444 -29.58799 -27.15814 -25.98578 -24.46134 -22.60289 -20.53460
 -19.61708 -18.51365 -17.89866 -17.73615 -16.42628 -16.24095 -15.74805 -14.92569
 -14.84406 -14.71132 -13.84181 -13.52546 -13.34960 -12.62917 -11.73918 -11.17538
 -10.01790  -2.46485   0.92158   1.35690   1.46537   1.85740   2.37434   2.48650
   2.92022   3.12897   3.33151   3.62875   4.06909   4.24361   4.67889   4.74606
   4.95784   5.11148   5.14804   5.16762   5.35039   5.54551


           BETA EIGENVALUES 
 -33.16798 -30.78363 -29.48100 -27.04267 -25.87680 -24.40714 -22.48862 -20.40613
 -19.57320 -18.43117 -17.86146 -17.60497 -16.38462 -16.18588 -15.69083 -14.81212
 -14.64955 -14.58299 -13.76907 -13.49872 -13.19866 -12.59734 -11.73339 -11.08664
  -2.42964  -0.64582   1.13646   1.35591   1.54625   1.86277   2.42628   2.51359
   3.07922   3.16928   3.49653   3.92348   4.14581   4.26466   4.68086   4.74893
   4.97969   5.12392   5.16877   5.18681   5.35474   5.74336


              NET ATOMIC CHARGES AND DIPOLE CONTRIBUTIONS

  ATOM NO.   TYPE          CHARGE      No. of ELECS.   s-Pop       p-Pop       
    1          O          -0.581737        6.5817     1.84974     4.73200
    2          C          -0.092800        4.0928     1.09075     3.00205
    3          C           0.485401        3.5146     1.18389     2.33071
    4          C          -0.385088        4.3851     1.06328     3.32181
    5          C          -0.178637        4.1786     1.12549     3.05314
    6          C           0.141382        3.8586     1.10460     2.75402
    7          O          -0.438691        6.4387     1.90256     4.53613
    8          C           0.026414        3.9736     1.10552     2.86806
    9          C          -0.361681        4.3617     1.10007     3.26161
   10          H           0.388511        0.6115     0.61149
   11          H           0.237394        0.7626     0.76261
   12          H           0.231488        0.7685     0.76851
   13          H           0.283604        0.7164     0.71640
   14          H           0.282732        0.7173     0.71727
   15          H           0.189934        0.8101     0.81007
   16          H           0.187645        0.8124     0.81236
   17          H           0.164800        0.8352     0.83520
   18          H           0.178713        0.8213     0.82129
   19          H           0.240617        0.7594     0.75938
 DIPOLE           X         Y         Z       TOTAL
 POINT-CHG.     4.243     3.924    -3.579     6.798
 HYBRID         0.606     0.076     0.201     0.643
 SUM            4.849     3.999    -3.378     7.135


          ATOMIC ORBITAL ELECTRON POPULATIONS

     Atom    s        px        py        pz   
    1  O   1.84974   1.32013   1.54197   1.86989
    2  C   1.09075   0.83620   1.03104   1.13481
    3  C   1.18389   0.95263   0.90854   0.46954
    4  C   1.06328   1.11309   1.01299   1.19573
    5  C   1.12549   0.94655   1.06808   1.03852
    6  C   1.10460   0.94904   0.90555   0.89943
    7  O   1.90256   1.67767   1.27711   1.58136
    8  C   1.10552   1.00882   0.86706   0.99219
    9  C   1.10007   0.97898   1.12905   1.15358
   10  H   0.61149
   11  H   0.76261
   12  H   0.76851
   13  H   0.71640
   14  H   0.71727
   15  H   0.81007
   16  H   0.81236
   17  H   0.83520
   18  H   0.82129
   19  H   0.75938


                    (SZ)    =    0.500000
                    (S**2)  =    0.754415


          ATOMIC ORBITAL SPIN POPULATIONS

    Atom   Total    s     px     py     pz   
         Atomic
    1  O -0.0001 -0.000  0.000  0.000 -0.000
    2  C -0.0009 -0.000 -0.000 -0.001  0.000
    3  C  0.0184  0.001  0.001  0.003  0.014
    4  C -0.0359 -0.006 -0.022 -0.007 -0.001
    5  C  0.9914  0.026  0.061  0.163  0.742
    6  C -0.0597 -0.006 -0.018 -0.013 -0.023
    7  O  0.0639  0.002  0.034  0.009  0.019
    8  C -0.0039 -0.000 -0.002 -0.001 -0.001
    9  C  0.0049  0.001  0.001  0.002  0.001
   10  H -0.0000 -0.000
   11  H  0.0009  0.001
   12  H  0.0007  0.001
   13  H  0.0176  0.018
   14  H  0.0179  0.018
   15  H -0.0269 -0.027
   16  H  0.0111  0.011
   17  H  0.0001  0.000
   18  H  0.0007  0.001
   19  H -0.0000 -0.000

 **********************
 *                    *
 * JOB ENDED NORMALLY *
 *                    *
 **********************



 TOTAL JOB TIME:             1.62 SECONDS

 == MOPAC DONE ==
