 *******************************************************************************
 **                                                                           **
 **                              MOPAC v23.2                                  **
 **                                                                           **
 *******************************************************************************
 **          Digital Object Identifier (DOI): 10.5281/zenodo.6511958          **
 **    Visit the DOI location for information on how to cite this program.    **
 *******************************************************************************

                              PM7 CALCULATION RESULTS

 *******************************************************************************
 *  CALCULATION DONE: (MAX THREADS = 40)             Fri Sep 19 21:34:31 2025  *
 *  PM7        - The PM7 Hamiltonian to be used
 *  1SCF       - DO 1 SCF AND THEN STOP 
 *  T=         - A TIME OF 172800.0 SECONDS REQUESTED
 *  DUMP=N     - RESTART FILE WRITTEN EVERY 7200.0 SECONDS REQUESTED
 *  RELSCF     - DEFAULT SCF CRITERION MULTIPLIED BY 0.0001
 *              (DEFAULT SCF CRITERION = 0.00010)
 *  GRADIENTS  - ALL GRADIENTS TO BE PRINTED
 *  DISP       - PRINT DISPERSION AND HYDROGEN BOND ENERGIES
 *******************************************************************************
PM7 1SCF GRADIENTS DISP RELSCF=0.0001
 Title: ASE calculation

   ATOM   CHEMICAL          X               Y               Z
  NUMBER   SYMBOL      (ANGSTROMS)     (ANGSTROMS)     (ANGSTROMS)

     1       C          2.41217950  *  -0.61797156  *  -0.94578368  *
     2       O          1.02942380  *  -0.90649775  *  -0.79103669  *
     3       C          0.37353496  *  -0.00528639  *   0.04283565  *
     4       C          0.10526764  *   1.40583361  *  -0.61168575  *
     5       O          0.73425760  *   2.35803339  *  -0.95064323  *
     6       N         -1.26675549  *   1.13756631  *  -0.64979132  *
     7       C         -1.15649315  *  -0.21757166  *  -0.11246458  *
     8       C         -1.88893118  *  -1.43495346  *  -0.58843110  *
     9       C         -2.12431011  *  -0.89423262  *   0.80985470  *
    10       H          2.74613341  *  -1.42427026  *  -1.61176932  *
    11       H          2.55468498  *   0.35881653  *  -1.42481928  *
    12       H          2.93816994  *  -0.66503601  *   0.01167899  *
    13       H          0.78227709  *   0.01638314  *   1.05828120  *
    14       H         -2.05190795  *   1.60435303  *  -1.01613793  *
    15       H         -2.67008301  *  -1.35036152  *  -1.33909931  *
    16       H         -1.33952276  *  -2.36503948  *  -0.72948978  *
    17       H         -1.75491124  *  -1.44270511  *   1.67250533  *
    18       H         -3.07302355  *  -0.42164996  *   1.05158315  *



          CARTESIAN COORDINATES 

    NO.       ATOM           X           Y           Z

     1         C          2.4122     -0.6180     -0.9458
     2         O          1.0294     -0.9065     -0.7910
     3         C          0.3735     -0.0053      0.0428
     4         C          0.1053      1.4058     -0.6117
     5         O          0.7343      2.3580     -0.9506
     6         N         -1.2668      1.1376     -0.6498
     7         C         -1.1565     -0.2176     -0.1125
     8         C         -1.8889     -1.4350     -0.5884
     9         C         -2.1243     -0.8942      0.8099
    10         H          2.7461     -1.4243     -1.6118
    11         H          2.5547      0.3588     -1.4248
    12         H          2.9382     -0.6650      0.0117
    13         H          0.7823      0.0164      1.0583
    14         H         -2.0519      1.6044     -1.0161
    15         H         -2.6701     -1.3504     -1.3391
    16         H         -1.3395     -2.3650     -0.7295
    17         H         -1.7549     -1.4427      1.6725
    18         H         -3.0730     -0.4216      1.0516

 General Reference for PM7:
 "Optimization of Parameters for Semiempirical Methods VI: More Modifications to the 
 NDDO Approximations and Re-optimization of Parameters", J. J. P. Stewart, J. Mol. Mod., 1:32, 19 (2013)
 https://link.springer.com/article/10.1007/s00894-012-1667-x

           Empirical Formula: C6 H9 N O2  =    18 atoms



      MOLECULAR POINT GROUP   :   C1  


      RHF CALCULATION, NO. OF DOUBLY OCCUPIED LEVELS = 25

  SCF CRITERION =    0.1000E-07

 -------------------------------------------------------------------------------
 PM7 1SCF GRADIENTS DISP RELSCF=0.0001
 Title: ASE calculation



     1SCF WAS SPECIFIED, SO BFGS WAS NOT USED                 
     SCF FIELD WAS ACHIEVED                                   


                              PM7 CALCULATION
                                                       MOPAC v23.2 Linux
                                                       Fri Sep 19 21:34:31 2025




          FINAL HEAT OF FORMATION =        -30.81070 KCAL/MOL =    -128.91197 KJ/MOL

          TOTAL ENERGY            =     -37668.05780 KCAL/MOL = ELECTRONIC ENERGY + CORE-CORE REPULSION
          ENERGY OF ATOMS         =      37638.97832 KCAL/MOL
                              SUM =        -29.07948 KCAL/MOL
          DISPERSION ENERGY       =         -1.76793 KCAL/MOL
          MM CORR. FOR -CO-NH-    =          0.03671 KCAL/MOL
                              SUM =        -30.81070 KCAL/MOL = FINAL HEAT OF FORMATION



          TOTAL ENERGY            =      -1633.44159 EV
          ELECTRONIC ENERGY       =      -7602.03963 EV 
          CORE-CORE REPULSION     =       5968.59804 EV
          COSMO AREA              =        162.67 SQUARE ANGSTROMS
          COSMO VOLUME            =        157.28 CUBIC ANGSTROMS

          GRADIENT NORM           =          1.33849          =       0.31549 PER ATOM
          IONIZATION POTENTIAL    =          9.796793 EV
          HOMO LUMO ENERGIES (EV) =         -9.797  0.975
          NO. OF FILLED LEVELS    =         25
          MOLECULAR WEIGHT        =        127.1426         POINT GROUP:  C1  

          MOLECULAR DIMENSIONS (Angstroms)

            Atom       Atom       Distance
            H    18    H    10     6.47775
            H    16    O     5     5.01613
            H    15    H    13     3.36311


          SCF CALCULATIONS        =          1

          WALL-CLOCK TIME         =      0.492 SECONDS
          COMPUTATION TIME        =      0.410 SECONDS

          LARGEST ATOMIC GRADIENTS

          Atom     Label                     Cartesian Gradients           Cartesian Coordinates       |Gradient|
                                           X          Y          Z        X          Y          Z

             2       O                   0.012     -0.322      0.300    1.02942   -0.90650   -0.79104      0.440
             8       C                   0.318      0.073     -0.272   -1.88893   -1.43495   -0.58843      0.425
            11       H                   0.297      0.040     -0.287    2.55468    0.35882   -1.42482      0.415
            16       H                  -0.056     -0.394     -0.118   -1.33952   -2.36504   -0.72949      0.415
            15       H                  -0.321     -0.177      0.161   -2.67008   -1.35036   -1.33910      0.401
             7       C                  -0.224      0.288      0.080   -1.15649   -0.21757   -0.11246      0.374
            13       H                   0.193      0.297      0.048    0.78228    0.01638    1.05828      0.358
            10       H                  -0.275     -0.204      0.032    2.74613   -1.42427   -1.61177      0.344
             6       N                  -0.018      0.309      0.009   -1.26676    1.13757   -0.64979      0.310
             5       O                  -0.180     -0.018      0.237    0.73426    2.35803   -0.95064      0.299



       FINAL  POINT  AND  DERIVATIVES

   PARAMETER     ATOM    TYPE            VALUE        GRADIENT
      1          1  C    CARTESIAN X     2.412180     -0.064309  KCAL/ANGSTROM
      2          1  C    CARTESIAN Y    -0.617972      0.072514  KCAL/ANGSTROM
      3          1  C    CARTESIAN Z    -0.945784     -0.067417  KCAL/ANGSTROM
      4          2  O    CARTESIAN X     1.029424      0.012228  KCAL/ANGSTROM
      5          2  O    CARTESIAN Y    -0.906498     -0.322256  KCAL/ANGSTROM
      6          2  O    CARTESIAN Z    -0.791037      0.299591  KCAL/ANGSTROM
      7          3  C    CARTESIAN X     0.373535      0.003685  KCAL/ANGSTROM
      8          3  C    CARTESIAN Y    -0.005286      0.003868  KCAL/ANGSTROM
      9          3  C    CARTESIAN Z     0.042836      0.023783  KCAL/ANGSTROM
     10          4  C    CARTESIAN X     0.105268      0.071650  KCAL/ANGSTROM
     11          4  C    CARTESIAN Y     1.405834      0.012748  KCAL/ANGSTROM
     12          4  C    CARTESIAN Z    -0.611686      0.211844  KCAL/ANGSTROM
     13          5  O    CARTESIAN X     0.734258     -0.180331  KCAL/ANGSTROM
     14          5  O    CARTESIAN Y     2.358033     -0.018234  KCAL/ANGSTROM
     15          5  O    CARTESIAN Z    -0.950643      0.237413  KCAL/ANGSTROM
     16          6  N    CARTESIAN X    -1.266755     -0.018064  KCAL/ANGSTROM
     17          6  N    CARTESIAN Y     1.137566      0.309024  KCAL/ANGSTROM
     18          6  N    CARTESIAN Z    -0.649791      0.009471  KCAL/ANGSTROM
     19          7  C    CARTESIAN X    -1.156493     -0.224198  KCAL/ANGSTROM
     20          7  C    CARTESIAN Y    -0.217572      0.288439  KCAL/ANGSTROM
     21          7  C    CARTESIAN Z    -0.112465      0.079742  KCAL/ANGSTROM
     22          8  C    CARTESIAN X    -1.888931      0.317864  KCAL/ANGSTROM
     23          8  C    CARTESIAN Y    -1.434953      0.073357  KCAL/ANGSTROM
     24          8  C    CARTESIAN Z    -0.588431     -0.272360  KCAL/ANGSTROM
     25          9  C    CARTESIAN X    -2.124310     -0.055801  KCAL/ANGSTROM
     26          9  C    CARTESIAN Y    -0.894233     -0.132098  KCAL/ANGSTROM
     27          9  C    CARTESIAN Z     0.809855     -0.206948  KCAL/ANGSTROM
     28         10  H    CARTESIAN X     2.746133     -0.274626  KCAL/ANGSTROM
     29         10  H    CARTESIAN Y    -1.424270     -0.203867  KCAL/ANGSTROM
     30         10  H    CARTESIAN Z    -1.611769      0.032095  KCAL/ANGSTROM
     31         11  H    CARTESIAN X     2.554685      0.297431  KCAL/ANGSTROM
     32         11  H    CARTESIAN Y     0.358817      0.040018  KCAL/ANGSTROM
     33         11  H    CARTESIAN Z    -1.424819     -0.287125  KCAL/ANGSTROM
     34         12  H    CARTESIAN X     2.938170      0.240980  KCAL/ANGSTROM
     35         12  H    CARTESIAN Y    -0.665036      0.091994  KCAL/ANGSTROM
     36         12  H    CARTESIAN Z     0.011679     -0.025662  KCAL/ANGSTROM
     37         13  H    CARTESIAN X     0.782277      0.193070  KCAL/ANGSTROM
     38         13  H    CARTESIAN Y     0.016383      0.297160  KCAL/ANGSTROM
     39         13  H    CARTESIAN Z     1.058281      0.048031  KCAL/ANGSTROM
     40         14  H    CARTESIAN X    -2.051908      0.115133  KCAL/ANGSTROM
     41         14  H    CARTESIAN Y     1.604353      0.160881  KCAL/ANGSTROM
     42         14  H    CARTESIAN Z    -1.016138     -0.197912  KCAL/ANGSTROM
     43         15  H    CARTESIAN X    -2.670083     -0.321314  KCAL/ANGSTROM
     44         15  H    CARTESIAN Y    -1.350362     -0.177488  KCAL/ANGSTROM
     45         15  H    CARTESIAN Z    -1.339099      0.160725  KCAL/ANGSTROM
     46         16  H    CARTESIAN X    -1.339523     -0.056134  KCAL/ANGSTROM
     47         16  H    CARTESIAN Y    -2.365039     -0.393500  KCAL/ANGSTROM
     48         16  H    CARTESIAN Z    -0.729490     -0.117879  KCAL/ANGSTROM
     49         17  H    CARTESIAN X    -1.754911     -0.010158  KCAL/ANGSTROM
     50         17  H    CARTESIAN Y    -1.442705      0.118273  KCAL/ANGSTROM
     51         17  H    CARTESIAN Z     1.672505      0.029878  KCAL/ANGSTROM
     52         18  H    CARTESIAN X    -3.073024     -0.047106  KCAL/ANGSTROM
     53         18  H    CARTESIAN Y    -0.421650     -0.220835  KCAL/ANGSTROM
     54         18  H    CARTESIAN Z     1.051583      0.042725  KCAL/ANGSTROM




   ATOM   CHEMICAL          X               Y               Z
  NUMBER   SYMBOL      (ANGSTROMS)     (ANGSTROMS)     (ANGSTROMS)

     1       C          2.41217950  *  -0.61797156  *  -0.94578368  *
     2       O          1.02942380  *  -0.90649775  *  -0.79103669  *
     3       C          0.37353496  *  -0.00528639  *   0.04283565  *
     4       C          0.10526764  *   1.40583361  *  -0.61168575  *
     5       O          0.73425760  *   2.35803339  *  -0.95064323  *
     6       N         -1.26675549  *   1.13756631  *  -0.64979132  *
     7       C         -1.15649315  *  -0.21757166  *  -0.11246458  *
     8       C         -1.88893118  *  -1.43495346  *  -0.58843110  *
     9       C         -2.12431011  *  -0.89423262  *   0.80985470  *
    10       H          2.74613341  *  -1.42427026  *  -1.61176932  *
    11       H          2.55468498  *   0.35881653  *  -1.42481928  *
    12       H          2.93816994  *  -0.66503601  *   0.01167899  *
    13       H          0.78227709  *   0.01638314  *   1.05828120  *
    14       H         -2.05190795  *   1.60435303  *  -1.01613793  *
    15       H         -2.67008301  *  -1.35036152  *  -1.33909931  *
    16       H         -1.33952276  *  -2.36503948  *  -0.72948978  *
    17       H         -1.75491124  *  -1.44270511  *   1.67250533  *
    18       H         -3.07302355  *  -0.42164996  *   1.05158315  *

                             CARTESIAN COORDINATES

   1    C        2.412179502    -0.617971558    -0.945783679
   2    O        1.029423802    -0.906497754    -0.791036688
   3    C        0.373534956    -0.005286387     0.042835651
   4    C        0.105267639     1.405833612    -0.611685754
   5    O        0.734257602     2.358033386    -0.950643227
   6    N       -1.266755491     1.137566306    -0.649791325
   7    C       -1.156493150    -0.217571656    -0.112464578
   8    C       -1.888931177    -1.434953456    -0.588431102
   9    C       -2.124310115    -0.894232625     0.809854697
  10    H        2.746133408    -1.424270262    -1.611769322
  11    H        2.554684980     0.358816526    -1.424819280
  12    H        2.938169944    -0.665036013     0.011678989
  13    H        0.782277091     0.016383140     1.058281200
  14    H       -2.051907953     1.604353035    -1.016137933
  15    H       -2.670083008    -1.350361522    -1.339099309
  16    H       -1.339522760    -2.365039480    -0.729489778
  17    H       -1.754911242    -1.442705106     1.672505330
  18    H       -3.073023546    -0.421649956     1.051583152


           Empirical Formula: C6 H9 N O2  =    18 atoms



      MOLECULAR POINT GROUP   :   C1  


                  EIGENVALUES  
 -37.53713 -31.09551 -30.40007 -29.90669 -26.23897 -24.27323 -21.40299 -20.58007
 -19.93727 -17.77060 -17.35769 -17.10351 -16.16041 -15.31616 -14.89990 -14.60160
 -13.94900 -13.05151 -12.94443 -12.86156 -12.46838 -11.90155 -11.35441 -10.03058
  -9.79679   0.97452   1.63098   1.74537   2.16873   2.49314   2.90633   3.70618
   3.85142   4.26360   4.38794   5.06492   5.11906   5.24219   5.38030   5.48423
   5.70192   6.01930   6.05901   6.15592   6.74877


              NET ATOMIC CHARGES AND DIPOLE CONTRIBUTIONS

  ATOM NO.   TYPE          CHARGE      No. of ELECS.   s-Pop       p-Pop       
    1          C          -0.206021        4.2060     1.08632     3.11970
    2          O          -0.343608        6.3436     1.87785     4.46576
    3          C           0.008243        3.9918     1.12030     2.87146
    4          C           0.556139        3.4439     1.11906     2.32480
    5          O          -0.458136        6.4581     1.87181     4.58632
    6          N          -0.625582        5.6256     1.57621     4.04937
    7          C           0.164900        3.8351     1.04105     2.79405
    8          C          -0.331652        4.3317     1.05495     3.27670
    9          C          -0.348099        4.3481     1.05458     3.29352
   10          H           0.150954        0.8490     0.84905
   11          H           0.145773        0.8542     0.85423
   12          H           0.126766        0.8732     0.87323
   13          H           0.151097        0.8489     0.84890
   14          H           0.324668        0.6753     0.67533
   15          H           0.168637        0.8314     0.83136
   16          H           0.176577        0.8234     0.82342
   17          H           0.168740        0.8313     0.83126
   18          H           0.170604        0.8294     0.82940
 DIPOLE           X         Y         Z       TOTAL
 POINT-CHG.    -0.257    -2.423     1.686     2.963
 HYBRID        -0.698     0.348    -0.503     0.928
 SUM           -0.956    -2.074     1.183     2.572


          ATOMIC ORBITAL ELECTRON POPULATIONS

     Atom    s        px        py        pz   
    1  C   1.08632   0.82386   1.15671   1.13913
    2  O   1.87785   1.26793   1.50334   1.69449
    3  C   1.12030   0.93306   0.92682   1.01157
    4  C   1.11906   0.75377   0.83443   0.73660
    5  O   1.87181   1.64735   1.40557   1.53340
    6  N   1.57621   1.19095   1.21892   1.63950
    7  C   1.04105   0.93426   0.82158   1.03822
    8  C   1.05495   1.14640   1.08657   1.04372
    9  C   1.05458   1.13043   1.14209   1.02099
   10  H   0.84905
   11  H   0.85423
   12  H   0.87323
   13  H   0.84890
   14  H   0.67533
   15  H   0.83136
   16  H   0.82342
   17  H   0.83126
   18  H   0.82940

 **********************
 *                    *
 * JOB ENDED NORMALLY *
 *                    *
 **********************



 TOTAL JOB TIME:             0.88 SECONDS

 == MOPAC DONE ==
