 *******************************************************************************
 **                                                                           **
 **                              MOPAC v23.2                                  **
 **                                                                           **
 *******************************************************************************
 **          Digital Object Identifier (DOI): 10.5281/zenodo.6511958          **
 **    Visit the DOI location for information on how to cite this program.    **
 *******************************************************************************

                              PM7 CALCULATION RESULTS

 *******************************************************************************
 *  CALCULATION DONE: (MAX THREADS = 40)             Fri Sep 19 22:03:45 2025  *
 *  PM7        - The PM7 Hamiltonian to be used
 *  1SCF       - DO 1 SCF AND THEN STOP 
 *  T=         - A TIME OF 172800.0 SECONDS REQUESTED
 *  DUMP=N     - RESTART FILE WRITTEN EVERY 7200.0 SECONDS REQUESTED
 *  RELSCF     - DEFAULT SCF CRITERION MULTIPLIED BY 0.0001
 *              (DEFAULT SCF CRITERION = 0.00010)
 *  GRADIENTS  - ALL GRADIENTS TO BE PRINTED
 *  DISP       - PRINT DISPERSION AND HYDROGEN BOND ENERGIES
 *******************************************************************************
PM7 1SCF GRADIENTS DISP RELSCF=0.0001
 Title: ASE calculation

   ATOM   CHEMICAL          X               Y               Z
  NUMBER   SYMBOL      (ANGSTROMS)     (ANGSTROMS)     (ANGSTROMS)

     1       C          0.13624793  *   1.65526089  *   0.53590572  *
     2       C          0.24506115  *   0.23595857  *   0.12213015  *
     3       O          0.97785737  *   0.05211012  *  -1.10541495  *
     4       C          1.73652644  *  -1.08225929  *  -0.57707002  *
     5       C          1.05282799  *  -0.95540543  *   0.80079981  *
     6       O         -0.15436283  *  -1.74425095  *   0.87069405  *
     7       C         -0.94116167  *  -0.72836490  *   0.22515810  *
     8       C         -2.36643093  *  -0.53167599  *   0.62680829  *
     9       C         -2.01816262  *  -1.10967605  *  -0.73458872  *
    10       H          1.11598106  *   2.15696276  *   0.52310125  *
    11       H         -0.28089522  *   1.75744479  *   1.54793662  *
    12       H         -0.51627749  *   2.21971441  *  -0.14896134  *
    13       H          2.80082877  *  -0.84279718  *  -0.61714299  *
    14       H          1.49207288  *  -1.98349326  *  -1.14748905  *
    15       H          1.59663815  *  -0.96224886  *   1.72639086  *
    16       H         -2.80052178  *  -1.17991676  *   1.38599083  *
    17       H         -2.78136946  *   0.46892666  *   0.70022114  *
    18       H         -2.17466860  *  -0.52276895  *  -1.63555624  *
    19       H         -2.20890952  *  -2.16234980  *  -0.93413410  *



          CARTESIAN COORDINATES 

    NO.       ATOM           X           Y           Z

     1         C          0.1362      1.6553      0.5359
     2         C          0.2451      0.2360      0.1221
     3         O          0.9779      0.0521     -1.1054
     4         C          1.7365     -1.0823     -0.5771
     5         C          1.0528     -0.9554      0.8008
     6         O         -0.1544     -1.7443      0.8707
     7         C         -0.9412     -0.7284      0.2252
     8         C         -2.3664     -0.5317      0.6268
     9         C         -2.0182     -1.1097     -0.7346
    10         H          1.1160      2.1570      0.5231
    11         H         -0.2809      1.7574      1.5479
    12         H         -0.5163      2.2197     -0.1490
    13         H          2.8008     -0.8428     -0.6171
    14         H          1.4921     -1.9835     -1.1475
    15         H          1.5966     -0.9622      1.7264
    16         H         -2.8005     -1.1799      1.3860
    17         H         -2.7814      0.4689      0.7002
    18         H         -2.1747     -0.5228     -1.6356
    19         H         -2.2089     -2.1623     -0.9341

 General Reference for PM7:
 "Optimization of Parameters for Semiempirical Methods VI: More Modifications to the 
 NDDO Approximations and Re-optimization of Parameters", J. J. P. Stewart, J. Mol. Mod., 1:32, 19 (2013)
 https://link.springer.com/article/10.1007/s00894-012-1667-x

           Empirical Formula: C7 H10 O2  =    19 atoms



      MOLECULAR POINT GROUP   :   C1  


      RHF CALCULATION, NO. OF DOUBLY OCCUPIED LEVELS = 25

  SCF CRITERION =    0.1000E-07

 -------------------------------------------------------------------------------
 PM7 1SCF GRADIENTS DISP RELSCF=0.0001
 Title: ASE calculation



     1SCF WAS SPECIFIED, SO BFGS WAS NOT USED                 
     SCF FIELD WAS ACHIEVED                                   


                              PM7 CALCULATION
                                                       MOPAC v23.2 Linux
                                                       Fri Sep 19 22:03:46 2025




          FINAL HEAT OF FORMATION =        -16.11914 KCAL/MOL =     -67.44247 KJ/MOL

          TOTAL ENERGY            =     -36496.83411 KCAL/MOL = ELECTRONIC ENERGY + CORE-CORE REPULSION
          ENERGY OF ATOMS         =      36482.50324 KCAL/MOL
                              SUM =        -14.33087 KCAL/MOL
          DISPERSION ENERGY       =         -1.78827 KCAL/MOL
                              SUM =        -16.11914 KCAL/MOL = FINAL HEAT OF FORMATION



          TOTAL ENERGY            =      -1582.65252 EV
          ELECTRONIC ENERGY       =      -7799.86816 EV 
          CORE-CORE REPULSION     =       6217.21564 EV
          COSMO AREA              =        157.82 SQUARE ANGSTROMS
          COSMO VOLUME            =        159.19 CUBIC ANGSTROMS

          GRADIENT NORM           =          0.98132          =       0.22513 PER ATOM
          IONIZATION POTENTIAL    =          9.902639 EV
          HOMO LUMO ENERGIES (EV) =         -9.903  1.396
          NO. OF FILLED LEVELS    =         25
          MOLECULAR WEIGHT        =        126.1548         POINT GROUP:  C1  

          MOLECULAR DIMENSIONS (Angstroms)

            Atom       Atom       Distance
            H    16    H    13     5.95830
            H    11    H    19     4.87884
            H    15    H    12     3.95061


          SCF CALCULATIONS        =          1

          WALL-CLOCK TIME         =      0.312 SECONDS
          COMPUTATION TIME        =      0.805 SECONDS

          LARGEST ATOMIC GRADIENTS

          Atom     Label                     Cartesian Gradients           Cartesian Coordinates       |Gradient|
                                           X          Y          Z        X          Y          Z

             2       C                   0.279      0.168      0.133    0.24506    0.23596    0.12213      0.352
             7       C                   0.016      0.051     -0.295   -0.94116   -0.72836    0.22516      0.300
            15       H                   0.055      0.027     -0.287    1.59664   -0.96225    1.72639      0.294
            14       H                  -0.276      0.067     -0.043    1.49207   -1.98349   -1.14749      0.287
            17       H                  -0.119      0.115     -0.228   -2.78137    0.46893    0.70022      0.282
            12       H                  -0.086     -0.059      0.262   -0.51628    2.21971   -0.14896      0.282
             4       C                   0.156     -0.178     -0.000    1.73653   -1.08226   -0.57707      0.237
             3       O                   0.075     -0.212     -0.017    0.97786    0.05211   -1.10541      0.225
             8       C                   0.127      0.104      0.146   -2.36643   -0.53168    0.62681      0.220
            16       H                  -0.034     -0.189     -0.011   -2.80052   -1.17992    1.38599      0.192



       FINAL  POINT  AND  DERIVATIVES

   PARAMETER     ATOM    TYPE            VALUE        GRADIENT
      1          1  C    CARTESIAN X     0.136248      0.001368  KCAL/ANGSTROM
      2          1  C    CARTESIAN Y     1.655261     -0.169374  KCAL/ANGSTROM
      3          1  C    CARTESIAN Z     0.535906      0.051101  KCAL/ANGSTROM
      4          2  C    CARTESIAN X     0.245061      0.279047  KCAL/ANGSTROM
      5          2  C    CARTESIAN Y     0.235959      0.167920  KCAL/ANGSTROM
      6          2  C    CARTESIAN Z     0.122130      0.132768  KCAL/ANGSTROM
      7          3  O    CARTESIAN X     0.977857      0.074615  KCAL/ANGSTROM
      8          3  O    CARTESIAN Y     0.052110     -0.211550  KCAL/ANGSTROM
      9          3  O    CARTESIAN Z    -1.105415     -0.017071  KCAL/ANGSTROM
     10          4  C    CARTESIAN X     1.736526      0.156174  KCAL/ANGSTROM
     11          4  C    CARTESIAN Y    -1.082259     -0.178439  KCAL/ANGSTROM
     12          4  C    CARTESIAN Z    -0.577070     -0.000036  KCAL/ANGSTROM
     13          5  C    CARTESIAN X     1.052828      0.061622  KCAL/ANGSTROM
     14          5  C    CARTESIAN Y    -0.955405      0.140668  KCAL/ANGSTROM
     15          5  C    CARTESIAN Z     0.800800      0.075429  KCAL/ANGSTROM
     16          6  O    CARTESIAN X    -0.154363     -0.026943  KCAL/ANGSTROM
     17          6  O    CARTESIAN Y    -1.744251      0.127192  KCAL/ANGSTROM
     18          6  O    CARTESIAN Z     0.870694     -0.011774  KCAL/ANGSTROM
     19          7  C    CARTESIAN X    -0.941162      0.016413  KCAL/ANGSTROM
     20          7  C    CARTESIAN Y    -0.728365      0.050953  KCAL/ANGSTROM
     21          7  C    CARTESIAN Z     0.225158     -0.295384  KCAL/ANGSTROM
     22          8  C    CARTESIAN X    -2.366431      0.126857  KCAL/ANGSTROM
     23          8  C    CARTESIAN Y    -0.531676      0.104372  KCAL/ANGSTROM
     24          8  C    CARTESIAN Z     0.626808      0.145888  KCAL/ANGSTROM
     25          9  C    CARTESIAN X    -2.018163      0.022048  KCAL/ANGSTROM
     26          9  C    CARTESIAN Y    -1.109676     -0.016608  KCAL/ANGSTROM
     27          9  C    CARTESIAN Z    -0.734589      0.054964  KCAL/ANGSTROM
     28         10  H    CARTESIAN X     1.115981     -0.156980  KCAL/ANGSTROM
     29         10  H    CARTESIAN Y     2.156963      0.042341  KCAL/ANGSTROM
     30         10  H    CARTESIAN Z     0.523101      0.030105  KCAL/ANGSTROM
     31         11  H    CARTESIAN X    -0.280895     -0.104596  KCAL/ANGSTROM
     32         11  H    CARTESIAN Y     1.757445      0.136560  KCAL/ANGSTROM
     33         11  H    CARTESIAN Z     1.547937     -0.036471  KCAL/ANGSTROM
     34         12  H    CARTESIAN X    -0.516277     -0.085776  KCAL/ANGSTROM
     35         12  H    CARTESIAN Y     2.219714     -0.058815  KCAL/ANGSTROM
     36         12  H    CARTESIAN Z    -0.148961      0.261608  KCAL/ANGSTROM
     37         13  H    CARTESIAN X     2.800829      0.114914  KCAL/ANGSTROM
     38         13  H    CARTESIAN Y    -0.842797     -0.067746  KCAL/ANGSTROM
     39         13  H    CARTESIAN Z    -0.617143      0.079831  KCAL/ANGSTROM
     40         14  H    CARTESIAN X     1.492073     -0.275824  KCAL/ANGSTROM
     41         14  H    CARTESIAN Y    -1.983493      0.066629  KCAL/ANGSTROM
     42         14  H    CARTESIAN Z    -1.147489     -0.043287  KCAL/ANGSTROM
     43         15  H    CARTESIAN X     1.596638      0.055168  KCAL/ANGSTROM
     44         15  H    CARTESIAN Y    -0.962249      0.026895  KCAL/ANGSTROM
     45         15  H    CARTESIAN Z     1.726391     -0.287462  KCAL/ANGSTROM
     46         16  H    CARTESIAN X    -2.800522     -0.033867  KCAL/ANGSTROM
     47         16  H    CARTESIAN Y    -1.179917     -0.189060  KCAL/ANGSTROM
     48         16  H    CARTESIAN Z     1.385991     -0.010799  KCAL/ANGSTROM
     49         17  H    CARTESIAN X    -2.781369     -0.118799  KCAL/ANGSTROM
     50         17  H    CARTESIAN Y     0.468927      0.115258  KCAL/ANGSTROM
     51         17  H    CARTESIAN Z     0.700221     -0.227854  KCAL/ANGSTROM
     52         18  H    CARTESIAN X    -2.174669      0.045548  KCAL/ANGSTROM
     53         18  H    CARTESIAN Y    -0.522769     -0.168112  KCAL/ANGSTROM
     54         18  H    CARTESIAN Z    -1.635556      0.075196  KCAL/ANGSTROM
     55         19  H    CARTESIAN X    -2.208910     -0.150986  KCAL/ANGSTROM
     56         19  H    CARTESIAN Y    -2.162350      0.080915  KCAL/ANGSTROM
     57         19  H    CARTESIAN Z    -0.934134      0.023244  KCAL/ANGSTROM




   ATOM   CHEMICAL          X               Y               Z
  NUMBER   SYMBOL      (ANGSTROMS)     (ANGSTROMS)     (ANGSTROMS)

     1       C          0.13624793  *   1.65526089  *   0.53590572  *
     2       C          0.24506115  *   0.23595857  *   0.12213015  *
     3       O          0.97785737  *   0.05211012  *  -1.10541495  *
     4       C          1.73652644  *  -1.08225929  *  -0.57707002  *
     5       C          1.05282799  *  -0.95540543  *   0.80079981  *
     6       O         -0.15436283  *  -1.74425095  *   0.87069405  *
     7       C         -0.94116167  *  -0.72836490  *   0.22515810  *
     8       C         -2.36643093  *  -0.53167599  *   0.62680829  *
     9       C         -2.01816262  *  -1.10967605  *  -0.73458872  *
    10       H          1.11598106  *   2.15696276  *   0.52310125  *
    11       H         -0.28089522  *   1.75744479  *   1.54793662  *
    12       H         -0.51627749  *   2.21971441  *  -0.14896134  *
    13       H          2.80082877  *  -0.84279718  *  -0.61714299  *
    14       H          1.49207288  *  -1.98349326  *  -1.14748905  *
    15       H          1.59663815  *  -0.96224886  *   1.72639086  *
    16       H         -2.80052178  *  -1.17991676  *   1.38599083  *
    17       H         -2.78136946  *   0.46892666  *   0.70022114  *
    18       H         -2.17466860  *  -0.52276895  *  -1.63555624  *
    19       H         -2.20890952  *  -2.16234980  *  -0.93413410  *

                             CARTESIAN COORDINATES

   1    C        0.136247934     1.655260886     0.535905724
   2    C        0.245061148     0.235958565     0.122130153
   3    O        0.977857367     0.052110125    -1.105414945
   4    C        1.736526441    -1.082259285    -0.577070021
   5    C        1.052827994    -0.955405430     0.800799806
   6    O       -0.154362830    -1.744250951     0.870694048
   7    C       -0.941161670    -0.728364905     0.225158101
   8    C       -2.366430927    -0.531675991     0.626808286
   9    C       -2.018162624    -1.109676047    -0.734588718
  10    H        1.115981057     2.156962763     0.523101251
  11    H       -0.280895216     1.757444787     1.547936618
  12    H       -0.516277491     2.219714407    -0.148961341
  13    H        2.800828770    -0.842797179    -0.617142986
  14    H        1.492072875    -1.983493260    -1.147489047
  15    H        1.596638146    -0.962248864     1.726390858
  16    H       -2.800521780    -1.179916761     1.385990835
  17    H       -2.781369455     0.468926660     0.700221136
  18    H       -2.174668601    -0.522768950    -1.635556236
  19    H       -2.208909517    -2.162349802    -0.934134096


           Empirical Formula: C7 H10 O2  =    19 atoms



      MOLECULAR POINT GROUP   :   C1  


                  EIGENVALUES  
 -32.52304 -30.10111 -28.72860 -26.66943 -24.87569 -22.57760 -21.10475 -20.69258
 -18.01573 -17.79652 -17.02393 -16.56845 -15.69995 -14.96168 -14.30341 -14.07482
 -13.79264 -13.12802 -12.81275 -12.59356 -12.29498 -11.78737 -10.99848 -10.21685
  -9.90264   1.39632   1.96342   2.44942   2.57281   3.47829   3.65443   3.71792
   3.85507   4.15676   4.28775   4.38779   5.34112   5.38536   5.39422   5.54909
   5.63566   5.83963   5.98579   6.30122   6.40251   6.52618


              NET ATOMIC CHARGES AND DIPOLE CONTRIBUTIONS

  ATOM NO.   TYPE          CHARGE      No. of ELECS.   s-Pop       p-Pop       
    1          C          -0.471873        4.4719     1.04998     3.42189
    2          C           0.212388        3.7876     1.10042     2.68719
    3          O          -0.382809        6.3828     1.90799     4.47482
    4          C          -0.091162        4.0912     1.10561     2.98555
    5          C          -0.001757        4.0018     1.12349     2.87827
    6          O          -0.356194        6.3562     1.90466     4.45153
    7          C           0.134969        3.8650     1.07214     2.79289
    8          C          -0.350642        4.3506     1.05410     3.29654
    9          C          -0.334064        4.3341     1.05380     3.28026
   10          H           0.171159        0.8288     0.82884
   11          H           0.166656        0.8333     0.83334
   12          H           0.171184        0.8288     0.82882
   13          H           0.141971        0.8580     0.85803
   14          H           0.154825        0.8452     0.84518
   15          H           0.155106        0.8449     0.84489
   16          H           0.173852        0.8261     0.82615
   17          H           0.163930        0.8361     0.83607
   18          H           0.169338        0.8307     0.83066
   19          H           0.173124        0.8269     0.82688
 DIPOLE           X         Y         Z       TOTAL
 POINT-CHG.     0.595     1.462     1.128     1.940
 HYBRID        -0.216    -0.275    -0.234     0.421
 SUM            0.379     1.187     0.894     1.534


          ATOMIC ORBITAL ELECTRON POPULATIONS

     Atom    s        px        py        pz   
    1  C   1.04998   1.19854   1.04868   1.17468
    2  C   1.10042   0.92029   0.93725   0.82965
    3  O   1.90799   1.59672   1.51912   1.35898
    4  C   1.10561   1.03924   0.96335   0.98297
    5  C   1.12349   0.91071   0.93400   1.03355
    6  O   1.90466   1.26310   1.39429   1.79415
    7  C   1.07214   0.88359   0.89354   1.01576
    8  C   1.05410   1.06713   1.16068   1.06874
    9  C   1.05380   1.10750   1.15939   1.01337
   10  H   0.82884
   11  H   0.83334
   12  H   0.82882
   13  H   0.85803
   14  H   0.84518
   15  H   0.84489
   16  H   0.82615
   17  H   0.83607
   18  H   0.83066
   19  H   0.82688

 **********************
 *                    *
 * JOB ENDED NORMALLY *
 *                    *
 **********************



 TOTAL JOB TIME:             0.57 SECONDS

 == MOPAC DONE ==
