 *******************************************************************************
 **                                                                           **
 **                              MOPAC v23.2                                  **
 **                                                                           **
 *******************************************************************************
 **          Digital Object Identifier (DOI): 10.5281/zenodo.6511958          **
 **    Visit the DOI location for information on how to cite this program.    **
 *******************************************************************************

                              PM7 CALCULATION RESULTS

 *******************************************************************************
 *  CALCULATION DONE: (MAX THREADS = 40)             Fri Sep 19 21:42:03 2025  *
 *  PM7        - The PM7 Hamiltonian to be used
 *
 *
 *
 *                 CHARGE ON SYSTEM = +1
 *
 *
 *
 *  EPS=37.5   - USE ANDREAS KLAMT'S COSMO IMPLICIT SOLVATION MODEL
 *  1SCF       - DO 1 SCF AND THEN STOP 
 *  T=         - A TIME OF 172800.0 SECONDS REQUESTED
 *  DUMP=N     - RESTART FILE WRITTEN EVERY 7200.0 SECONDS REQUESTED
 *  RELSCF     - DEFAULT SCF CRITERION MULTIPLIED BY 0.0001
 *              (DEFAULT SCF CRITERION = 0.00010)
 *  GRADIENTS  - ALL GRADIENTS TO BE PRINTED
 *  DISP       - PRINT DISPERSION AND HYDROGEN BOND ENERGIES
 *******************************************************************************
PM7 1SCF GRADIENTS EPS=37.5 DISP RELSCF=0.0001 CHARGE=1
 Title: ASE calculation

   ATOM   CHEMICAL          X               Y               Z
  NUMBER   SYMBOL      (ANGSTROMS)     (ANGSTROMS)     (ANGSTROMS)

     1       C          1.66681927  *  -0.55338710  *  -0.36285827  *
     2       C          0.70584567  *   0.26053151  *   0.47548366  *
     3       C         -0.33294087  *   1.11990515  *  -0.30740565  *
     4       C         -1.06197513  *   0.25816193  *  -1.34529916  *
     5       C         -1.52109130  *  -1.02890347  *  -0.78622591  *
     6       C         -1.22123132  *  -1.41150019  *   0.49845658  *
     7       C         -0.26567253  *  -0.58499930  *   1.30890419  *
     8       O         -1.37941102  *   0.28066142  *   1.64666891  *
     9       C         -1.32091727  *   1.46084167  *   0.82156791  *
    10       H          1.17407173  *  -1.26699983  *  -1.03258800  *
    11       H          2.35861759  *  -1.13748427  *   0.26792602  *
    12       H          2.30332517  *   0.09282490  *  -0.98940747  *
    13       H          1.30463696  *   0.92830609  *   1.15009273  *
    14       H          0.12610474  *   2.01640003  *  -0.77145362  *
    15       H         -0.39421831  *   0.07458043  *  -2.23242635  *
    16       H         -1.91202162  *   0.82276389  *  -1.80965721  *
    17       H         -2.10106288  *  -1.68773543  *  -1.45059380  *
    18       H         -1.67171796  *  -2.27747310  *   0.99010538  *
    19       H          0.13439567  *  -1.04216567  *   2.23242635  *
    20       H         -0.96897439  *   2.27747310  *   1.48835307  *
    21       H         -2.35861759  *   1.67557073  *   0.51118606  *



          CARTESIAN COORDINATES 

    NO.       ATOM           X           Y           Z

     1         C          1.6668     -0.5534     -0.3629
     2         C          0.7058      0.2605      0.4755
     3         C         -0.3329      1.1199     -0.3074
     4         C         -1.0620      0.2582     -1.3453
     5         C         -1.5211     -1.0289     -0.7862
     6         C         -1.2212     -1.4115      0.4985
     7         C         -0.2657     -0.5850      1.3089
     8         O         -1.3794      0.2807      1.6467
     9         C         -1.3209      1.4608      0.8216
    10         H          1.1741     -1.2670     -1.0326
    11         H          2.3586     -1.1375      0.2679
    12         H          2.3033      0.0928     -0.9894
    13         H          1.3046      0.9283      1.1501
    14         H          0.1261      2.0164     -0.7715
    15         H         -0.3942      0.0746     -2.2324
    16         H         -1.9120      0.8228     -1.8097
    17         H         -2.1011     -1.6877     -1.4506
    18         H         -1.6717     -2.2775      0.9901
    19         H          0.1344     -1.0422      2.2324
    20         H         -0.9690      2.2775      1.4884
    21         H         -2.3586      1.6756      0.5112

 General Reference for PM7:
 "Optimization of Parameters for Semiempirical Methods VI: More Modifications to the 
 NDDO Approximations and Re-optimization of Parameters", J. J. P. Stewart, J. Mol. Mod., 1:32, 19 (2013)
 https://link.springer.com/article/10.1007/s00894-012-1667-x

           Empirical Formula: C8 H12 O  =    21 atoms



      MOLECULAR POINT GROUP   :   C1  


          UHF CALCULATION, NO. OF ALPHA ELECTRONS =   25
                           NO. OF BETA  ELECTRONS =   24
  SCF CRITERION =    0.1000E-07

 -------------------------------------------------------------------------------
 PM7 1SCF GRADIENTS EPS=37.5 DISP RELSCF=0.0001 CHARGE=1
 Title: ASE calculation



     1SCF WAS SPECIFIED, SO BFGS WAS NOT USED                 
     SCF FIELD WAS ACHIEVED                                   


                              PM7 CALCULATION
                                                       MOPAC v23.2 Linux
                                                       Fri Sep 19 21:42:04 2025




          FINAL HEAT OF FORMATION =        119.99970 KCAL/MOL =     502.07876 KJ/MOL

          TOTAL ENERGY            =     -33045.43674 KCAL/MOL = ELECTRONIC ENERGY + CORE-CORE REPULSION + SOLVATION ENERGY
          ENERGY OF ATOMS         =      33167.45855 KCAL/MOL
                              SUM =        122.02181 KCAL/MOL
          DISPERSION ENERGY       =         -2.02210 KCAL/MOL
                              SUM =        119.99970 KCAL/MOL = FINAL HEAT OF FORMATION

          VAN DER WAALS AREA      =        156.05 SQUARE ANGSTROMS


          TOTAL ENERGY            =      -1432.98576 EV
          ELECTRONIC ENERGY       =      -2508.40960 EV 
          CORE-CORE REPULSION     =       1075.42383 EV

          DIELECTRIC ENERGY       =         -2.14064 EV
          COSMO AREA              =        156.05 SQUARE ANGSTROMS
          COSMO VOLUME            =        160.66 CUBIC ANGSTROMS

          GRADIENT NORM           =         18.33672          =       4.00140 PER ATOM
          IONIZATION POTENTIAL    =         10.910916 EV
          ALPHA SOMO LUMO (EV)    =        -10.911 -1.145
          BETA  SOMO LUMO (EV)    =        -11.081 -3.446
          NO. OF ALPHA ELECTRONS  =         25
          NO. OF BETA  ELECTRONS  =         24
          MOLECULAR WEIGHT        =        124.1822         POINT GROUP:  C1  

          MOLECULAR DIMENSIONS (Angstroms)

            Atom       Atom       Distance
            H    21    H    11     5.49771
            H    14    H    18     4.94370
            H    20    H    17     4.13555


          SCF CALCULATIONS        =          2

          WALL-CLOCK TIME         =      1.406 SECONDS
          COMPUTATION TIME        =      0.964 SECONDS

          LARGEST ATOMIC GRADIENTS

          Atom     Label                     Cartesian Gradients           Cartesian Coordinates       |Gradient|
                                           X          Y          Z        X          Y          Z

             5       C                   1.081     -6.777     10.349   -1.52109   -1.02890   -0.78623     12.418
             6       C                  -5.197      1.915     -9.204   -1.22123   -1.41150    0.49846     10.742
             4       C                  -0.358      2.865     -4.406   -1.06198    0.25816   -1.34530      5.268
             1       C                  -3.736      0.290      0.218    1.66682   -0.55339   -0.36286      3.753
            12       H                   1.924      0.022     -0.012    2.30333    0.09282   -0.98941      1.924
             7       C                   0.730      1.449      0.806   -0.26567   -0.58500    1.30890      1.811
            11       H                   1.703     -0.442      0.022    2.35862   -1.13748    0.26793      1.759
             9       C                  -0.396     -1.676     -0.337   -1.32092    1.46084    0.82157      1.755
            20       H                   0.167      1.140      1.042   -0.96897    2.27747    1.48835      1.554
            21       H                  -0.786      0.824      0.648   -2.35862    1.67557    0.51119      1.310



       FINAL  POINT  AND  DERIVATIVES

   PARAMETER     ATOM    TYPE            VALUE        GRADIENT
      1          1  C    CARTESIAN X     1.666819     -3.735541  KCAL/ANGSTROM
      2          1  C    CARTESIAN Y    -0.553387      0.289948  KCAL/ANGSTROM
      3          1  C    CARTESIAN Z    -0.362858      0.217875  KCAL/ANGSTROM
      4          2  C    CARTESIAN X     0.705846      0.378887  KCAL/ANGSTROM
      5          2  C    CARTESIAN Y     0.260532     -0.001483  KCAL/ANGSTROM
      6          2  C    CARTESIAN Z     0.475484     -0.114897  KCAL/ANGSTROM
      7          3  C    CARTESIAN X    -0.332941     -0.058599  KCAL/ANGSTROM
      8          3  C    CARTESIAN Y     1.119905     -0.029903  KCAL/ANGSTROM
      9          3  C    CARTESIAN Z    -0.307406      0.361553  KCAL/ANGSTROM
     10          4  C    CARTESIAN X    -1.061975     -0.358423  KCAL/ANGSTROM
     11          4  C    CARTESIAN Y     0.258162      2.865421  KCAL/ANGSTROM
     12          4  C    CARTESIAN Z    -1.345299     -4.405862  KCAL/ANGSTROM
     13          5  C    CARTESIAN X    -1.521091      1.081321  KCAL/ANGSTROM
     14          5  C    CARTESIAN Y    -1.028903     -6.776783  KCAL/ANGSTROM
     15          5  C    CARTESIAN Z    -0.786226     10.349425  KCAL/ANGSTROM
     16          6  C    CARTESIAN X    -1.221231     -5.197233  KCAL/ANGSTROM
     17          6  C    CARTESIAN Y    -1.411500      1.914894  KCAL/ANGSTROM
     18          6  C    CARTESIAN Z     0.498457     -9.203939  KCAL/ANGSTROM
     19          7  C    CARTESIAN X    -0.265673      0.729824  KCAL/ANGSTROM
     20          7  C    CARTESIAN Y    -0.584999      1.448868  KCAL/ANGSTROM
     21          7  C    CARTESIAN Z     1.308904      0.805778  KCAL/ANGSTROM
     22          8  O    CARTESIAN X    -1.379411     -0.191046  KCAL/ANGSTROM
     23          8  O    CARTESIAN Y     0.280661      0.443257  KCAL/ANGSTROM
     24          8  O    CARTESIAN Z     1.646669     -0.705786  KCAL/ANGSTROM
     25          9  C    CARTESIAN X    -1.320917     -0.396056  KCAL/ANGSTROM
     26          9  C    CARTESIAN Y     1.460842     -1.676077  KCAL/ANGSTROM
     27          9  C    CARTESIAN Z     0.821568     -0.337311  KCAL/ANGSTROM
     28         10  H    CARTESIAN X     1.174072      0.886002  KCAL/ANGSTROM
     29         10  H    CARTESIAN Y    -1.267000      0.003989  KCAL/ANGSTROM
     30         10  H    CARTESIAN Z    -1.032588      0.087591  KCAL/ANGSTROM
     31         11  H    CARTESIAN X     2.358618      1.702773  KCAL/ANGSTROM
     32         11  H    CARTESIAN Y    -1.137484     -0.442094  KCAL/ANGSTROM
     33         11  H    CARTESIAN Z     0.267926      0.022458  KCAL/ANGSTROM
     34         12  H    CARTESIAN X     2.303325      1.924130  KCAL/ANGSTROM
     35         12  H    CARTESIAN Y     0.092825      0.022060  KCAL/ANGSTROM
     36         12  H    CARTESIAN Z    -0.989407     -0.012339  KCAL/ANGSTROM
     37         13  H    CARTESIAN X     1.304637      1.025041  KCAL/ANGSTROM
     38         13  H    CARTESIAN Y     0.928306      0.091919  KCAL/ANGSTROM
     39         13  H    CARTESIAN Z     1.150093     -0.196551  KCAL/ANGSTROM
     40         14  H    CARTESIAN X     0.126105      0.496958  KCAL/ANGSTROM
     41         14  H    CARTESIAN Y     2.016400      0.194408  KCAL/ANGSTROM
     42         14  H    CARTESIAN Z    -0.771454     -0.331881  KCAL/ANGSTROM
     43         15  H    CARTESIAN X    -0.394218      0.973335  KCAL/ANGSTROM
     44         15  H    CARTESIAN Y     0.074580      0.405598  KCAL/ANGSTROM
     45         15  H    CARTESIAN Z    -2.232426      0.500516  KCAL/ANGSTROM
     46         16  H    CARTESIAN X    -1.912022      0.117862  KCAL/ANGSTROM
     47         16  H    CARTESIAN Y     0.822764      0.171883  KCAL/ANGSTROM
     48         16  H    CARTESIAN Z    -1.809657      0.456061  KCAL/ANGSTROM
     49         17  H    CARTESIAN X    -2.101063     -0.122693  KCAL/ANGSTROM
     50         17  H    CARTESIAN Y    -1.687735      0.375853  KCAL/ANGSTROM
     51         17  H    CARTESIAN Z    -1.450594      0.591115  KCAL/ANGSTROM
     52         18  H    CARTESIAN X    -1.671718      1.048536  KCAL/ANGSTROM
     53         18  H    CARTESIAN Y    -2.277473     -0.773844  KCAL/ANGSTROM
     54         18  H    CARTESIAN Z     0.990105      0.011541  KCAL/ANGSTROM
     55         19  H    CARTESIAN X     0.134396      0.314048  KCAL/ANGSTROM
     56         19  H    CARTESIAN Y    -1.042166     -0.492251  KCAL/ANGSTROM
     57         19  H    CARTESIAN Z     2.232426      0.214012  KCAL/ANGSTROM
     58         20  H    CARTESIAN X    -0.968974      0.166671  KCAL/ANGSTROM
     59         20  H    CARTESIAN Y     2.277473      1.140327  KCAL/ANGSTROM
     60         20  H    CARTESIAN Z     1.488353      1.042240  KCAL/ANGSTROM
     61         21  H    CARTESIAN X    -2.358618     -0.785796  KCAL/ANGSTROM
     62         21  H    CARTESIAN Y     1.675571      0.824007  KCAL/ANGSTROM
     63         21  H    CARTESIAN Z     0.511186      0.648399  KCAL/ANGSTROM




   ATOM   CHEMICAL          X               Y               Z
  NUMBER   SYMBOL      (ANGSTROMS)     (ANGSTROMS)     (ANGSTROMS)

     1       C          1.66681927  *  -0.55338710  *  -0.36285827  *
     2       C          0.70584567  *   0.26053151  *   0.47548366  *
     3       C         -0.33294087  *   1.11990515  *  -0.30740565  *
     4       C         -1.06197513  *   0.25816193  *  -1.34529916  *
     5       C         -1.52109130  *  -1.02890347  *  -0.78622591  *
     6       C         -1.22123132  *  -1.41150019  *   0.49845658  *
     7       C         -0.26567253  *  -0.58499930  *   1.30890419  *
     8       O         -1.37941102  *   0.28066142  *   1.64666891  *
     9       C         -1.32091727  *   1.46084167  *   0.82156791  *
    10       H          1.17407173  *  -1.26699983  *  -1.03258800  *
    11       H          2.35861759  *  -1.13748427  *   0.26792602  *
    12       H          2.30332517  *   0.09282490  *  -0.98940747  *
    13       H          1.30463696  *   0.92830609  *   1.15009273  *
    14       H          0.12610474  *   2.01640003  *  -0.77145362  *
    15       H         -0.39421831  *   0.07458043  *  -2.23242635  *
    16       H         -1.91202162  *   0.82276389  *  -1.80965721  *
    17       H         -2.10106288  *  -1.68773543  *  -1.45059380  *
    18       H         -1.67171796  *  -2.27747310  *   0.99010538  *
    19       H          0.13439567  *  -1.04216567  *   2.23242635  *
    20       H         -0.96897439  *   2.27747310  *   1.48835307  *
    21       H         -2.35861759  *   1.67557073  *   0.51118606  *

                             CARTESIAN COORDINATES

   1    C        1.666819272    -0.553387096    -0.362858269
   2    C        0.705845666     0.260531514     0.475483657
   3    C       -0.332940875     1.119905150    -0.307405648
   4    C       -1.061975126     0.258161933    -1.345299162
   5    C       -1.521091300    -1.028903473    -0.786225913
   6    C       -1.221231323    -1.411500194     0.498456578
   7    C       -0.265672525    -0.584999299     1.308904186
   8    O       -1.379411015     0.280661422     1.646668912
   9    C       -1.320917266     1.460841666     0.821567911
  10    H        1.174071734    -1.266999832    -1.032588000
  11    H        2.358617586    -1.137484275     0.267926023
  12    H        2.303325171     0.092824903    -0.989407465
  13    H        1.304636961     0.928306095     1.150092731
  14    H        0.126104744     2.016400035    -0.771453623
  15    H       -0.394218311     0.074580429    -2.232426353
  16    H       -1.912021619     0.822763888    -1.809657214
  17    H       -2.101062879    -1.687735432    -1.450593798
  18    H       -1.671717963    -2.277473098     0.990105379
  19    H        0.134395672    -1.042165674     2.232426353
  20    H       -0.968974393     2.277473098     1.488353071
  21    H       -2.358617586     1.675570730     0.511186064


           Empirical Formula: C8 H12 O  =    21 atoms



      MOLECULAR POINT GROUP   :   C1  


          ALPHA EIGENVALUES  
 -33.78300 -30.42840 -27.98246 -27.51018 -25.12897 -23.91573 -21.51616 -21.10069
 -19.17910 -18.45495 -16.94853 -16.53067 -16.27458 -15.78525 -15.13825 -14.75810
 -14.58270 -14.07065 -13.69754 -13.12602 -12.94258 -12.46048 -12.07075 -12.03017
 -10.91092  -1.14548   0.63558   2.05441   2.48091   2.67906   2.83613   3.05681
   3.12191   3.52398   3.80689   3.96893   4.61359   4.65492   4.82144   4.88661
   5.08121   5.20824   5.30332   5.38480   5.44511   5.54213   5.62933   6.61679


           BETA EIGENVALUES 
 -33.17001 -29.40993 -27.84649 -27.44450 -24.82145 -23.77972 -21.43779 -20.99782
 -19.03605 -18.29125 -16.62323 -16.35377 -16.12069 -15.53671 -14.98247 -14.63650
 -14.41326 -13.82487 -13.62632 -12.98946 -12.77769 -12.15844 -12.01333 -11.08132
  -3.44649  -0.24134   0.90642   2.15750   2.52486   2.71445   2.91583   3.14231
   3.22320   3.56829   3.83090   3.99139   4.68216   4.70642   4.84588   4.93897
   5.12252   5.21483   5.31961   5.38953   5.44714   5.55126   5.65398   6.61736


              NET ATOMIC CHARGES AND DIPOLE CONTRIBUTIONS

  ATOM NO.   TYPE          CHARGE      No. of ELECS.   s-Pop       p-Pop       
    1          C          -0.456142        4.4561     1.05129     3.40485
    2          C          -0.138756        4.1388     1.07438     3.06438
    3          C          -0.135518        4.1355     1.08036     3.05516
    4          C          -0.347459        4.3475     1.06496     3.28250
    5          C           0.103068        3.8969     1.14162     2.75532
    6          C          -0.112008        4.1120     1.13409     2.97792
    7          C           0.047524        3.9525     1.12602     2.82646
    8          O          -0.140320        6.1403     1.90628     4.23404
    9          C          -0.130278        4.1303     1.11775     3.01253
   10          H           0.159384        0.8406     0.84062
   11          H           0.169480        0.8305     0.83052
   12          H           0.170210        0.8298     0.82979
   13          H           0.182153        0.8178     0.81785
   14          H           0.187945        0.8121     0.81205
   15          H           0.229125        0.7709     0.77088
   16          H           0.220125        0.7799     0.77987
   17          H           0.200815        0.7992     0.79919
   18          H           0.210326        0.7897     0.78967
   19          H           0.204726        0.7953     0.79527
   20          H           0.190694        0.8093     0.80931
   21          H           0.184905        0.8151     0.81509
 DIPOLE           X         Y         Z       TOTAL
 POINT-CHG.    -1.109    -0.692    -1.983     2.375
 HYBRID        -0.432    -0.041     0.211     0.483
 SUM           -1.541    -0.733    -1.772     2.460


          ATOMIC ORBITAL ELECTRON POPULATIONS

     Atom    s        px        py        pz   
    1  C   1.05129   1.11813   1.14313   1.14359
    2  C   1.07438   1.00474   1.02385   1.03579
    3  C   1.08036   0.99254   1.07140   0.99122
    4  C   1.06496   1.15541   1.02913   1.09796
    5  C   1.14162   0.78758   0.98080   0.98694
    6  C   1.13409   1.05161   0.96410   0.96220
    7  C   1.12602   0.89821   0.88605   1.04221
    8  O   1.90628   1.49105   1.29295   1.45003
    9  C   1.11775   1.13280   0.89254   0.98719
   10  H   0.84062
   11  H   0.83052
   12  H   0.82979
   13  H   0.81785
   14  H   0.81205
   15  H   0.77088
   16  H   0.77987
   17  H   0.79919
   18  H   0.78967
   19  H   0.79527
   20  H   0.80931
   21  H   0.81509


                    (SZ)    =    0.500000
                    (S**2)  =    0.774368


          ATOMIC ORBITAL SPIN POPULATIONS

    Atom   Total    s     px     py     pz   
         Atomic
    1  C -0.0002 -0.000 -0.000  0.000  0.000
    2  C -0.0025 -0.000 -0.000 -0.002  0.000
    3  C  0.0098  0.000  0.005  0.002  0.003
    4  C  0.0074 -0.001  0.015 -0.007  0.002
    5  C  0.3260  0.006  0.248  0.045  0.028
    6  C  0.1961  0.006 -0.015  0.148  0.057
    7  C -0.0031 -0.003 -0.005 -0.006  0.010
    8  O  0.4241  0.009  0.003  0.137  0.275
    9  C -0.0212 -0.003 -0.001 -0.006 -0.010
   10  H -0.0000 -0.000
   11  H  0.0000  0.000
   12  H -0.0000 -0.000
   13  H  0.0005  0.000
   14  H -0.0013 -0.001
   15  H  0.0271  0.027
   16  H  0.0177  0.018
   17  H -0.0057 -0.006
   18  H -0.0010 -0.001
   19  H  0.0052  0.005
   20  H  0.0202  0.020
   21  H  0.0009  0.001

 **********************
 *                    *
 * JOB ENDED NORMALLY *
 *                    *
 **********************



 TOTAL JOB TIME:             1.81 SECONDS

 == MOPAC DONE ==
