 *******************************************************************************
 **                                                                           **
 **                              MOPAC v23.2                                  **
 **                                                                           **
 *******************************************************************************
 **          Digital Object Identifier (DOI): 10.5281/zenodo.6511958          **
 **    Visit the DOI location for information on how to cite this program.    **
 *******************************************************************************

                              PM7 CALCULATION RESULTS

 *******************************************************************************
 *  CALCULATION DONE: (MAX THREADS = 40)             Fri Sep 19 21:31:07 2025  *
 *  PM7        - The PM7 Hamiltonian to be used
 *
 *
 *
 *                 CHARGE ON SYSTEM = +1
 *
 *
 *
 *  EPS=37.5   - USE ANDREAS KLAMT'S COSMO IMPLICIT SOLVATION MODEL
 *  1SCF       - DO 1 SCF AND THEN STOP 
 *  T=         - A TIME OF 172800.0 SECONDS REQUESTED
 *  DUMP=N     - RESTART FILE WRITTEN EVERY 7200.0 SECONDS REQUESTED
 *  RELSCF     - DEFAULT SCF CRITERION MULTIPLIED BY 0.0001
 *              (DEFAULT SCF CRITERION = 0.00010)
 *  GRADIENTS  - ALL GRADIENTS TO BE PRINTED
 *  DISP       - PRINT DISPERSION AND HYDROGEN BOND ENERGIES
 *******************************************************************************
PM7 1SCF GRADIENTS EPS=37.5 DISP RELSCF=0.0001 CHARGE=1
 Title: ASE calculation

   ATOM   CHEMICAL          X               Y               Z
  NUMBER   SYMBOL      (ANGSTROMS)     (ANGSTROMS)     (ANGSTROMS)

     1       C         -1.89601583  *  -0.65253990  *   0.71910825  *
     2       N         -1.17569451  *   0.20254394  *  -0.23063361  *
     3       C         -1.94418924  *   1.09959264  *  -1.10345422  *
     4       O         -3.12833482  *   1.05632059  *  -0.99780259  *
     5       C          0.17740657  *   0.18744761  *  -0.34638638  *
     6       O          0.83620359  *   0.83418560  *  -1.14446544  *
     7       N          0.96542969  *  -0.67138074  *   0.52832534  *
     8       C          2.31971209  *  -0.68749678  *   0.34459554  *
     9       N          2.92855730  *   0.15144469  *  -0.42706846  *
    10       H         -1.68655460  *  -1.72312204  *   0.55256129  *
    11       H         -2.99961317  *  -0.53156413  *   0.57917307  *
    12       H         -1.68836731  *  -0.36735104  *   1.76560284  *
    13       H         -1.32769529  *   1.72312204  *  -1.76560284  *
    14       H          0.53624574  *  -1.21867304  *   1.27775172  *
    15       H          2.94496272  *  -1.37725495  *   0.98771877  *
    16       H          3.12833482  *   0.50451777  *  -1.32784175  *



          CARTESIAN COORDINATES 

    NO.       ATOM           X           Y           Z

     1         C         -1.8960     -0.6525      0.7191
     2         N         -1.1757      0.2025     -0.2306
     3         C         -1.9442      1.0996     -1.1035
     4         O         -3.1283      1.0563     -0.9978
     5         C          0.1774      0.1874     -0.3464
     6         O          0.8362      0.8342     -1.1445
     7         N          0.9654     -0.6714      0.5283
     8         C          2.3197     -0.6875      0.3446
     9         N          2.9286      0.1514     -0.4271
    10         H         -1.6866     -1.7231      0.5526
    11         H         -2.9996     -0.5316      0.5792
    12         H         -1.6884     -0.3674      1.7656
    13         H         -1.3277      1.7231     -1.7656
    14         H          0.5362     -1.2187      1.2778
    15         H          2.9450     -1.3773      0.9877
    16         H          3.1283      0.5045     -1.3278

 General Reference for PM7:
 "Optimization of Parameters for Semiempirical Methods VI: More Modifications to the 
 NDDO Approximations and Re-optimization of Parameters", J. J. P. Stewart, J. Mol. Mod., 1:32, 19 (2013)
 https://link.springer.com/article/10.1007/s00894-012-1667-x

           Empirical Formula: C4 H7 N3 O2  =    16 atoms



      MOLECULAR POINT GROUP   :   C1  


          UHF CALCULATION, NO. OF ALPHA ELECTRONS =   25
                           NO. OF BETA  ELECTRONS =   24
  SCF CRITERION =    0.1000E-07

 -------------------------------------------------------------------------------
 PM7 1SCF GRADIENTS EPS=37.5 DISP RELSCF=0.0001 CHARGE=1
 Title: ASE calculation



     1SCF WAS SPECIFIED, SO BFGS WAS NOT USED                 
     SCF FIELD WAS ACHIEVED                                   


                              PM7 CALCULATION
                                                       MOPAC v23.2 Linux
                                                       Fri Sep 19 21:31:08 2025




          FINAL HEAT OF FORMATION =         76.97405 KCAL/MOL =     322.05941 KJ/MOL

          TOTAL ENERGY            =     -39873.27032 KCAL/MOL = ELECTRONIC ENERGY + CORE-CORE REPULSION + SOLVATION ENERGY
          ENERGY OF ATOMS         =      39951.92848 KCAL/MOL
                              SUM =         78.65816 KCAL/MOL
          DISPERSION ENERGY       =         -1.70101 KCAL/MOL
          MM CORR. FOR -CO-NH-    =          0.01690 KCAL/MOL
                              SUM =         76.97405 KCAL/MOL = FINAL HEAT OF FORMATION

          VAN DER WAALS AREA      =        157.43 SQUARE ANGSTROMS


          TOTAL ENERGY            =      -1729.06865 EV
          ELECTRONIC ENERGY       =      -2230.86512 EV 
          CORE-CORE REPULSION     =        501.79647 EV

          DIELECTRIC ENERGY       =         -2.98850 EV
          COSMO AREA              =        157.43 SQUARE ANGSTROMS
          COSMO VOLUME            =        149.48 CUBIC ANGSTROMS

          GRADIENT NORM           =         63.03639          =       15.75910 PER ATOM
          IONIZATION POTENTIAL    =         10.950352 EV
          ALPHA SOMO LUMO (EV)    =        -11.038 -1.296
          BETA  SOMO LUMO (EV)    =        -10.950 -2.360
          NO. OF ALPHA ELECTRONS  =         25
          NO. OF BETA  ELECTRONS  =         24
          MOLECULAR WEIGHT        =        129.1182         POINT GROUP:  C1  

          MOLECULAR DIMENSIONS (Angstroms)

            Atom       Atom       Distance
            H    15    O     4     6.83736
            H    16    H    12     4.90983
            H    10    N     9     1.88350


          SCF CALCULATIONS        =          2

          WALL-CLOCK TIME         =      0.742 SECONDS
          COMPUTATION TIME        =      0.412 SECONDS

          LARGEST ATOMIC GRADIENTS

          Atom     Label                     Cartesian Gradients           Cartesian Coordinates       |Gradient|
                                           X          Y          Z        X          Y          Z

             3       C                 -29.703     13.745    -12.255   -1.94419    1.09959   -1.10345     34.948
             5       C                 -22.385     16.713    -15.707    0.17741    0.18745   -0.34639     32.048
             2       N                  19.263    -11.833     10.673   -1.17569    0.20254   -0.23063     25.000
             7       N                  11.312    -12.470     12.553    0.96543   -0.67138    0.52833     21.001
             4       O                  18.559     -1.678      0.510   -3.12833    1.05632   -0.99780     18.642
             6       O                   5.592     -7.610      7.127    0.83620    0.83419   -1.14447     11.832
             1       C                   6.043     -2.284      2.178   -1.89602   -0.65254    0.71911      6.818
             9       N                   0.288     -2.780     -4.142    2.92856    0.15144   -0.42707      4.997
            16       H                  -2.987      3.540      0.842    3.12833    0.50452   -1.32784      4.708
             8       C                  -0.914     -1.558      3.845    2.31971   -0.68750    0.34460      4.249



       FINAL  POINT  AND  DERIVATIVES

   PARAMETER     ATOM    TYPE            VALUE        GRADIENT
      1          1  C    CARTESIAN X    -1.896016      6.043460  KCAL/ANGSTROM
      2          1  C    CARTESIAN Y    -0.652540     -2.283804  KCAL/ANGSTROM
      3          1  C    CARTESIAN Z     0.719108      2.177957  KCAL/ANGSTROM
      4          2  N    CARTESIAN X    -1.175695     19.263089  KCAL/ANGSTROM
      5          2  N    CARTESIAN Y     0.202544    -11.833388  KCAL/ANGSTROM
      6          2  N    CARTESIAN Z    -0.230634     10.673116  KCAL/ANGSTROM
      7          3  C    CARTESIAN X    -1.944189    -29.703209  KCAL/ANGSTROM
      8          3  C    CARTESIAN Y     1.099593     13.745334  KCAL/ANGSTROM
      9          3  C    CARTESIAN Z    -1.103454    -12.254871  KCAL/ANGSTROM
     10          4  O    CARTESIAN X    -3.128335     18.558893  KCAL/ANGSTROM
     11          4  O    CARTESIAN Y     1.056321     -1.678101  KCAL/ANGSTROM
     12          4  O    CARTESIAN Z    -0.997803      0.509967  KCAL/ANGSTROM
     13          5  C    CARTESIAN X     0.177407    -22.384829  KCAL/ANGSTROM
     14          5  C    CARTESIAN Y     0.187448     16.712544  KCAL/ANGSTROM
     15          5  C    CARTESIAN Z    -0.346386    -15.706734  KCAL/ANGSTROM
     16          6  O    CARTESIAN X     0.836204      5.592036  KCAL/ANGSTROM
     17          6  O    CARTESIAN Y     0.834186     -7.610422  KCAL/ANGSTROM
     18          6  O    CARTESIAN Z    -1.144465      7.127084  KCAL/ANGSTROM
     19          7  N    CARTESIAN X     0.965430     11.312025  KCAL/ANGSTROM
     20          7  N    CARTESIAN Y    -0.671381    -12.469629  KCAL/ANGSTROM
     21          7  N    CARTESIAN Z     0.528325     12.553089  KCAL/ANGSTROM
     22          8  C    CARTESIAN X     2.319712     -0.914232  KCAL/ANGSTROM
     23          8  C    CARTESIAN Y    -0.687497     -1.557994  KCAL/ANGSTROM
     24          8  C    CARTESIAN Z     0.344596      3.845479  KCAL/ANGSTROM
     25          9  N    CARTESIAN X     2.928557      0.287687  KCAL/ANGSTROM
     26          9  N    CARTESIAN Y     0.151445     -2.779697  KCAL/ANGSTROM
     27          9  N    CARTESIAN Z    -0.427068     -4.142309  KCAL/ANGSTROM
     28         10  H    CARTESIAN X    -1.686555     -2.047559  KCAL/ANGSTROM
     29         10  H    CARTESIAN Y    -1.723122      0.487846  KCAL/ANGSTROM
     30         10  H    CARTESIAN Z     0.552561     -1.125540  KCAL/ANGSTROM
     31         11  H    CARTESIAN X    -2.999613     -3.098624  KCAL/ANGSTROM
     32         11  H    CARTESIAN Y    -0.531564      0.865452  KCAL/ANGSTROM
     33         11  H    CARTESIAN Z     0.579173     -0.938940  KCAL/ANGSTROM
     34         12  H    CARTESIAN X    -1.688367     -2.204467  KCAL/ANGSTROM
     35         12  H    CARTESIAN Y    -0.367351      1.194910  KCAL/ANGSTROM
     36         12  H    CARTESIAN Z     1.765603     -0.330318  KCAL/ANGSTROM
     37         13  H    CARTESIAN X    -1.327695      1.788513  KCAL/ANGSTROM
     38         13  H    CARTESIAN Y     1.723122     -1.551647  KCAL/ANGSTROM
     39         13  H    CARTESIAN Z    -1.765603      1.694996  KCAL/ANGSTROM
     40         14  H    CARTESIAN X     0.536246      1.033093  KCAL/ANGSTROM
     41         14  H    CARTESIAN Y    -1.218673      2.609514  KCAL/ANGSTROM
     42         14  H    CARTESIAN Z     1.277752     -3.164787  KCAL/ANGSTROM
     43         15  H    CARTESIAN X     2.944963     -0.538442  KCAL/ANGSTROM
     44         15  H    CARTESIAN Y    -1.377255      2.608742  KCAL/ANGSTROM
     45         15  H    CARTESIAN Z     0.987719     -1.760130  KCAL/ANGSTROM
     46         16  H    CARTESIAN X     3.128335     -2.987435  KCAL/ANGSTROM
     47         16  H    CARTESIAN Y     0.504518      3.540338  KCAL/ANGSTROM
     48         16  H    CARTESIAN Z    -1.327842      0.841939  KCAL/ANGSTROM




   ATOM   CHEMICAL          X               Y               Z
  NUMBER   SYMBOL      (ANGSTROMS)     (ANGSTROMS)     (ANGSTROMS)

     1       C         -1.89601583  *  -0.65253990  *   0.71910825  *
     2       N         -1.17569451  *   0.20254394  *  -0.23063361  *
     3       C         -1.94418924  *   1.09959264  *  -1.10345422  *
     4       O         -3.12833482  *   1.05632059  *  -0.99780259  *
     5       C          0.17740657  *   0.18744761  *  -0.34638638  *
     6       O          0.83620359  *   0.83418560  *  -1.14446544  *
     7       N          0.96542969  *  -0.67138074  *   0.52832534  *
     8       C          2.31971209  *  -0.68749678  *   0.34459554  *
     9       N          2.92855730  *   0.15144469  *  -0.42706846  *
    10       H         -1.68655460  *  -1.72312204  *   0.55256129  *
    11       H         -2.99961317  *  -0.53156413  *   0.57917307  *
    12       H         -1.68836731  *  -0.36735104  *   1.76560284  *
    13       H         -1.32769529  *   1.72312204  *  -1.76560284  *
    14       H          0.53624574  *  -1.21867304  *   1.27775172  *
    15       H          2.94496272  *  -1.37725495  *   0.98771877  *
    16       H          3.12833482  *   0.50451777  *  -1.32784175  *

                             CARTESIAN COORDINATES

   1    C       -1.896015825    -0.652539896     0.719108252
   2    N       -1.175694514     0.202543940    -0.230633612
   3    C       -1.944189245     1.099592641    -1.103454224
   4    O       -3.128334815     1.056320586    -0.997802589
   5    C        0.177406571     0.187447615    -0.346386379
   6    O        0.836203593     0.834185604    -1.144465436
   7    N        0.965429687    -0.671380743     0.528325344
   8    C        2.319712087    -0.687496777     0.344595542
   9    N        2.928557299     0.151444687    -0.427068462
  10    H       -1.686554603    -1.723122041     0.552561289
  11    H       -2.999613168    -0.531564130     0.579173067
  12    H       -1.688367310    -0.367351036     1.765602839
  13    H       -1.327695289     1.723122041    -1.765602839
  14    H        0.536245744    -1.218673038     1.277751724
  15    H        2.944962720    -1.377254951     0.987718769
  16    H        3.128334815     0.504517770    -1.327841754


           Empirical Formula: C4 H7 N3 O2  =    16 atoms



      MOLECULAR POINT GROUP   :   C1  


          ALPHA EIGENVALUES  
 -39.40030 -38.00514 -36.26228 -32.25363 -31.64887 -25.66619 -25.40969 -23.44076
 -21.45258 -20.54757 -19.09601 -17.90630 -17.55008 -17.18481 -15.92568 -15.60090
 -15.37339 -14.84227 -14.59473 -14.10155 -13.58513 -12.44542 -12.06185 -11.67764
 -11.03849  -1.29596  -0.23292  -0.22111   0.75422   1.07933   1.25102   2.61099
   2.87149   3.42441   3.54646   3.71032   4.20770   4.77358   5.02155   5.05399
   5.33885   5.70203   5.84024


           BETA EIGENVALUES 
 -39.14541 -37.67187 -34.64449 -32.23672 -31.54153 -25.64393 -25.17981 -23.13916
 -21.34948 -20.36441 -18.80794 -17.79968 -17.43563 -16.93350 -15.78687 -15.51882
 -15.34278 -14.75892 -14.31898 -13.82461 -12.77950 -11.85428 -11.56971 -10.95035
  -2.36029  -1.04232  -0.24748  -0.04126   0.72567   1.13281   1.90709   2.63049
   3.04190   3.44042   3.64611   3.77221   4.23194   4.77533   5.02579   5.05369
   5.36813   5.83862   6.19995


              NET ATOMIC CHARGES AND DIPOLE CONTRIBUTIONS

  ATOM NO.   TYPE          CHARGE      No. of ELECS.   s-Pop       p-Pop       
    1          C          -0.259385        4.2594     1.06373     3.19566
    2          N          -0.512607        5.5126     1.58563     3.92698
    3          C           0.565643        3.4344     1.15526     2.27910
    4          O          -0.481839        6.4818     1.86753     4.61431
    5          C           0.732191        3.2678     1.04253     2.22528
    6          O          -0.579021        6.5790     1.88253     4.69650
    7          N          -0.495571        5.4956     1.56003     3.93554
    8          C           0.375136        3.6249     1.10416     2.52071
    9          N          -0.200114        5.2001     1.60970     3.59041
   10          H           0.174636        0.8254     0.82536
   11          H           0.200743        0.7993     0.79926
   12          H           0.175086        0.8249     0.82491
   13          H           0.210420        0.7896     0.78958
   14          H           0.386308        0.6137     0.61369
   15          H           0.293195        0.7068     0.70680
   16          H           0.415179        0.5848     0.58482
 DIPOLE           X         Y         Z       TOTAL
 POINT-CHG.     9.481    -5.134     3.995    11.498
 HYBRID        -0.238    -0.102    -0.177     0.313
 SUM            9.244    -5.236     3.818    11.289


          ATOMIC ORBITAL ELECTRON POPULATIONS

     Atom    s        px        py        pz   
    1  C   1.06373   1.12149   1.05300   1.02116
    2  N   1.58563   1.09981   1.42358   1.40359
    3  C   1.15526   0.81292   0.72811   0.73807
    4  O   1.86753   1.28358   1.66426   1.66647
    5  C   1.04253   0.76460   0.72659   0.73409
    6  O   1.88253   1.65354   1.55188   1.49107
    7  N   1.56003   1.09526   1.45527   1.38502
    8  C   1.10416   0.82188   0.80058   0.89825
    9  N   1.60970   1.06748   1.23511   1.28782
   10  H   0.82536
   11  H   0.79926
   12  H   0.82491
   13  H   0.78958
   14  H   0.61369
   15  H   0.70680
   16  H   0.58482


                    (SZ)    =    0.500000
                    (S**2)  =    0.793994


          ATOMIC ORBITAL SPIN POPULATIONS

    Atom   Total    s     px     py     pz   
         Atomic
    1  C  0.0002 -0.000  0.000 -0.000  0.000
    2  N  0.0031  0.001  0.005 -0.001 -0.002
    3  C  0.0012 -0.000  0.000  0.000  0.001
    4  O  0.0015  0.000  0.000  0.000  0.001
    5  C -0.0050  0.000 -0.003 -0.001 -0.001
    6  O  0.0348  0.001  0.016  0.011  0.006
    7  N -0.0014  0.003  0.052 -0.031 -0.025
    8  C -0.1626 -0.002 -0.027 -0.055 -0.079
    9  N  1.1148  0.049  0.696  0.266  0.104
   10  H -0.0001 -0.000
   11  H  0.0000  0.000
   12  H -0.0001 -0.000
   13  H  0.0002  0.000
   14  H  0.0023  0.002
   15  H  0.0394  0.039
   16  H -0.0283 -0.028

 **********************
 *                    *
 * JOB ENDED NORMALLY *
 *                    *
 **********************



 TOTAL JOB TIME:             1.20 SECONDS

 == MOPAC DONE ==
