 *******************************************************************************
 **                                                                           **
 **                              MOPAC v23.2                                  **
 **                                                                           **
 *******************************************************************************
 **          Digital Object Identifier (DOI): 10.5281/zenodo.6511958          **
 **    Visit the DOI location for information on how to cite this program.    **
 *******************************************************************************

                              PM7 CALCULATION RESULTS

 *******************************************************************************
 *  CALCULATION DONE: (MAX THREADS = 40)             Fri Sep 19 22:03:48 2025  *
 *  PM7        - The PM7 Hamiltonian to be used
 *
 *
 *
 *                 CHARGE ON SYSTEM = +1
 *
 *
 *
 *  EPS=37.5   - USE ANDREAS KLAMT'S COSMO IMPLICIT SOLVATION MODEL
 *  1SCF       - DO 1 SCF AND THEN STOP 
 *  T=         - A TIME OF 172800.0 SECONDS REQUESTED
 *  DUMP=N     - RESTART FILE WRITTEN EVERY 7200.0 SECONDS REQUESTED
 *  RELSCF     - DEFAULT SCF CRITERION MULTIPLIED BY 0.0001
 *              (DEFAULT SCF CRITERION = 0.00010)
 *  GRADIENTS  - ALL GRADIENTS TO BE PRINTED
 *  DISP       - PRINT DISPERSION AND HYDROGEN BOND ENERGIES
 *******************************************************************************
PM7 1SCF GRADIENTS EPS=37.5 DISP RELSCF=0.0001 CHARGE=1
 Title: ASE calculation

   ATOM   CHEMICAL          X               Y               Z
  NUMBER   SYMBOL      (ANGSTROMS)     (ANGSTROMS)     (ANGSTROMS)

     1       C          0.30498769  *   1.69998622  *   0.57247229  *
     2       C          0.35588821  *   0.26849609  *   0.25725935  *
     3       O          0.85594636  *  -0.06804290  *  -1.03891671  *
     4       C          1.73197579  *  -1.13416891  *  -0.53026910  *
     5       C          1.23608738  *  -0.91368689  *   0.89740499  *
     6       O         -0.06735909  *  -1.66038001  *   1.08987901  *
     7       C         -0.81426836  *  -0.71001726  *   0.58189432  *
     8       C         -2.24763149  *  -0.82319998  *   0.40090357  *
     9       C         -2.46387703  *  -1.24017055  *  -1.00613082  *
    10       H          1.30904007  *   2.17317666  *   0.50532356  *
    11       H         -0.07722895  *   1.92967035  *   1.58081282  *
    12       H         -0.31583395  *   2.26807545  *  -0.15127245  *
    13       H          2.78121792  *  -0.85128652  *  -0.72470495  *
    14       H          1.49393180  *  -2.08756797  *  -1.02283585  *
    15       H          1.83144002  *  -0.94606516  *   1.79874913  *
    16       H         -2.72524138  *  -1.55720250  *   1.11150549  *
    17       H         -2.78121792  *   0.14986130  *   0.60348596  *
    18       H         -2.50209499  *  -0.52099389  *  -1.79874913  *
    19       H         -2.64187879  *  -2.26807545  *  -1.25128633  *



          CARTESIAN COORDINATES 

    NO.       ATOM           X           Y           Z

     1         C          0.3050      1.7000      0.5725
     2         C          0.3559      0.2685      0.2573
     3         O          0.8559     -0.0680     -1.0389
     4         C          1.7320     -1.1342     -0.5303
     5         C          1.2361     -0.9137      0.8974
     6         O         -0.0674     -1.6604      1.0899
     7         C         -0.8143     -0.7100      0.5819
     8         C         -2.2476     -0.8232      0.4009
     9         C         -2.4639     -1.2402     -1.0061
    10         H          1.3090      2.1732      0.5053
    11         H         -0.0772      1.9297      1.5808
    12         H         -0.3158      2.2681     -0.1513
    13         H          2.7812     -0.8513     -0.7247
    14         H          1.4939     -2.0876     -1.0228
    15         H          1.8314     -0.9461      1.7987
    16         H         -2.7252     -1.5572      1.1115
    17         H         -2.7812      0.1499      0.6035
    18         H         -2.5021     -0.5210     -1.7987
    19         H         -2.6419     -2.2681     -1.2513

 General Reference for PM7:
 "Optimization of Parameters for Semiempirical Methods VI: More Modifications to the 
 NDDO Approximations and Re-optimization of Parameters", J. J. P. Stewart, J. Mol. Mod., 1:32, 19 (2013)
 https://link.springer.com/article/10.1007/s00894-012-1667-x

           Empirical Formula: C7 H10 O2  =    19 atoms



      MOLECULAR POINT GROUP   :   C1  


          UHF CALCULATION, NO. OF ALPHA ELECTRONS =   25
                           NO. OF BETA  ELECTRONS =   24
  SCF CRITERION =    0.1000E-07

 -------------------------------------------------------------------------------
 PM7 1SCF GRADIENTS EPS=37.5 DISP RELSCF=0.0001 CHARGE=1
 Title: ASE calculation



     1SCF WAS SPECIFIED, SO BFGS WAS NOT USED                 
     SCF FIELD WAS ACHIEVED                                   


                              PM7 CALCULATION
                                                       MOPAC v23.2 Linux
                                                       Fri Sep 19 22:03:49 2025




          FINAL HEAT OF FORMATION =        129.31931 KCAL/MOL =     541.07199 KJ/MOL

          TOTAL ENERGY            =     -36351.13042 KCAL/MOL = ELECTRONIC ENERGY + CORE-CORE REPULSION + SOLVATION ENERGY
          ENERGY OF ATOMS         =      36482.50324 KCAL/MOL
                              SUM =        131.37282 KCAL/MOL
          DISPERSION ENERGY       =         -2.05351 KCAL/MOL
                              SUM =        129.31931 KCAL/MOL = FINAL HEAT OF FORMATION

          VAN DER WAALS AREA      =        163.54 SQUARE ANGSTROMS


          TOTAL ENERGY            =      -1576.33421 EV
          ELECTRONIC ENERGY       =      -2467.87621 EV 
          CORE-CORE REPULSION     =        891.54200 EV

          DIELECTRIC ENERGY       =         -2.24049 EV
          COSMO AREA              =        163.54 SQUARE ANGSTROMS
          COSMO VOLUME            =        164.24 CUBIC ANGSTROMS

          GRADIENT NORM           =         12.64784          =       2.90161 PER ATOM
          IONIZATION POTENTIAL    =         10.358593 EV
          ALPHA SOMO LUMO (EV)    =        -10.359 -2.149
          BETA  SOMO LUMO (EV)    =        -11.599 -2.196
          NO. OF ALPHA ELECTRONS  =         25
          NO. OF BETA  ELECTRONS  =         24
          MOLECULAR WEIGHT        =        126.1548         POINT GROUP:  C1  

          MOLECULAR DIMENSIONS (Angstroms)

            Atom       Atom       Distance
            H    19    H    10     6.19840
            H    17    H    13     5.26267
            H    15    H    18     3.90644


          SCF CALCULATIONS        =          2

          WALL-CLOCK TIME         =      0.742 SECONDS
          COMPUTATION TIME        =      1.579 SECONDS

          LARGEST ATOMIC GRADIENTS

          Atom     Label                     Cartesian Gradients           Cartesian Coordinates       |Gradient|
                                           X          Y          Z        X          Y          Z

             8       C                  -2.284      1.766      6.596   -2.24763   -0.82320    0.40090      7.200
             1       C                  -2.217     -1.703      4.509    0.30499    1.69999    0.57247      5.305
             2       C                   1.871     -0.271     -4.336    0.35589    0.26850    0.25726      4.730
             5       C                   0.178     -0.558      3.022    1.23609   -0.91369    0.89740      3.078
             3       O                  -0.022     -0.525      2.586    0.85595   -0.06804   -1.03892      2.639
             7       C                   0.410      1.299     -2.184   -0.81427   -0.71002    0.58189      2.574
            12       H                   1.068      1.282     -1.484   -0.31583    2.26808   -0.15127      2.233
             6       O                   1.080     -1.518      0.719   -0.06736   -1.66038    1.08988      1.997
            17       H                  -0.351     -0.888     -1.708   -2.78122    0.14986    0.60349      1.957
            10       H                   0.781      1.307     -1.142    1.30904    2.17318    0.50532      1.904



       FINAL  POINT  AND  DERIVATIVES

   PARAMETER     ATOM    TYPE            VALUE        GRADIENT
      1          1  C    CARTESIAN X     0.304988     -2.216842  KCAL/ANGSTROM
      2          1  C    CARTESIAN Y     1.699986     -1.703193  KCAL/ANGSTROM
      3          1  C    CARTESIAN Z     0.572472      4.508795  KCAL/ANGSTROM
      4          2  C    CARTESIAN X     0.355888      1.871007  KCAL/ANGSTROM
      5          2  C    CARTESIAN Y     0.268496     -0.270647  KCAL/ANGSTROM
      6          2  C    CARTESIAN Z     0.257259     -4.336229  KCAL/ANGSTROM
      7          3  O    CARTESIAN X     0.855946     -0.021795  KCAL/ANGSTROM
      8          3  O    CARTESIAN Y    -0.068043     -0.525108  KCAL/ANGSTROM
      9          3  O    CARTESIAN Z    -1.038917      2.586190  KCAL/ANGSTROM
     10          4  C    CARTESIAN X     1.731976     -1.185396  KCAL/ANGSTROM
     11          4  C    CARTESIAN Y    -1.134169      0.761437  KCAL/ANGSTROM
     12          4  C    CARTESIAN Z    -0.530269     -0.310747  KCAL/ANGSTROM
     13          5  C    CARTESIAN X     1.236087      0.178276  KCAL/ANGSTROM
     14          5  C    CARTESIAN Y    -0.913687     -0.557950  KCAL/ANGSTROM
     15          5  C    CARTESIAN Z     0.897405      3.022135  KCAL/ANGSTROM
     16          6  O    CARTESIAN X    -0.067359      1.080463  KCAL/ANGSTROM
     17          6  O    CARTESIAN Y    -1.660380     -1.517967  KCAL/ANGSTROM
     18          6  O    CARTESIAN Z     1.089879      0.719019  KCAL/ANGSTROM
     19          7  C    CARTESIAN X    -0.814268      0.410317  KCAL/ANGSTROM
     20          7  C    CARTESIAN Y    -0.710017      1.299331  KCAL/ANGSTROM
     21          7  C    CARTESIAN Z     0.581894     -2.183931  KCAL/ANGSTROM
     22          8  C    CARTESIAN X    -2.247631     -2.283711  KCAL/ANGSTROM
     23          8  C    CARTESIAN Y    -0.823200      1.766027  KCAL/ANGSTROM
     24          8  C    CARTESIAN Z     0.400904      6.596295  KCAL/ANGSTROM
     25          9  C    CARTESIAN X    -2.463877      1.773385  KCAL/ANGSTROM
     26          9  C    CARTESIAN Y    -1.240171     -0.587637  KCAL/ANGSTROM
     27          9  C    CARTESIAN Z    -1.006131     -0.089701  KCAL/ANGSTROM
     28         10  H    CARTESIAN X     1.309040      0.781302  KCAL/ANGSTROM
     29         10  H    CARTESIAN Y     2.173177      1.307166  KCAL/ANGSTROM
     30         10  H    CARTESIAN Z     0.505324     -1.142448  KCAL/ANGSTROM
     31         11  H    CARTESIAN X    -0.077229      0.874958  KCAL/ANGSTROM
     32         11  H    CARTESIAN Y     1.929670      1.354152  KCAL/ANGSTROM
     33         11  H    CARTESIAN Z     1.580813     -0.543751  KCAL/ANGSTROM
     34         12  H    CARTESIAN X    -0.315834      1.068216  KCAL/ANGSTROM
     35         12  H    CARTESIAN Y     2.268075      1.281823  KCAL/ANGSTROM
     36         12  H    CARTESIAN Z    -0.151272     -1.484340  KCAL/ANGSTROM
     37         13  H    CARTESIAN X     2.781218      0.473517  KCAL/ANGSTROM
     38         13  H    CARTESIAN Y    -0.851287      0.223373  KCAL/ANGSTROM
     39         13  H    CARTESIAN Z    -0.724705     -0.929166  KCAL/ANGSTROM
     40         14  H    CARTESIAN X     1.493932      0.415363  KCAL/ANGSTROM
     41         14  H    CARTESIAN Y    -2.087568     -0.094315  KCAL/ANGSTROM
     42         14  H    CARTESIAN Z    -1.022836     -0.600157  KCAL/ANGSTROM
     43         15  H    CARTESIAN X     1.831440     -0.361049  KCAL/ANGSTROM
     44         15  H    CARTESIAN Y    -0.946065     -0.401773  KCAL/ANGSTROM
     45         15  H    CARTESIAN Z     1.798749     -0.807145  KCAL/ANGSTROM
     46         16  H    CARTESIAN X    -2.725241     -0.991915  KCAL/ANGSTROM
     47         16  H    CARTESIAN Y    -1.557202     -0.869998  KCAL/ANGSTROM
     48         16  H    CARTESIAN Z     1.111505     -1.087630  KCAL/ANGSTROM
     49         17  H    CARTESIAN X    -2.781218     -0.350687  KCAL/ANGSTROM
     50         17  H    CARTESIAN Y     0.149861     -0.887988  KCAL/ANGSTROM
     51         17  H    CARTESIAN Z     0.603486     -1.708175  KCAL/ANGSTROM
     52         18  H    CARTESIAN X    -2.502095     -0.830601  KCAL/ANGSTROM
     53         18  H    CARTESIAN Y    -0.520994      0.056728  KCAL/ANGSTROM
     54         18  H    CARTESIAN Z    -1.798749     -1.304889  KCAL/ANGSTROM
     55         19  H    CARTESIAN X    -2.641879     -0.684803  KCAL/ANGSTROM
     56         19  H    CARTESIAN Y    -2.268075     -0.633463  KCAL/ANGSTROM
     57         19  H    CARTESIAN Z    -1.251286     -0.904128  KCAL/ANGSTROM




   ATOM   CHEMICAL          X               Y               Z
  NUMBER   SYMBOL      (ANGSTROMS)     (ANGSTROMS)     (ANGSTROMS)

     1       C          0.30498769  *   1.69998622  *   0.57247229  *
     2       C          0.35588821  *   0.26849609  *   0.25725935  *
     3       O          0.85594636  *  -0.06804290  *  -1.03891671  *
     4       C          1.73197579  *  -1.13416891  *  -0.53026910  *
     5       C          1.23608738  *  -0.91368689  *   0.89740499  *
     6       O         -0.06735909  *  -1.66038001  *   1.08987901  *
     7       C         -0.81426836  *  -0.71001726  *   0.58189432  *
     8       C         -2.24763149  *  -0.82319998  *   0.40090357  *
     9       C         -2.46387703  *  -1.24017055  *  -1.00613082  *
    10       H          1.30904007  *   2.17317666  *   0.50532356  *
    11       H         -0.07722895  *   1.92967035  *   1.58081282  *
    12       H         -0.31583395  *   2.26807545  *  -0.15127245  *
    13       H          2.78121792  *  -0.85128652  *  -0.72470495  *
    14       H          1.49393180  *  -2.08756797  *  -1.02283585  *
    15       H          1.83144002  *  -0.94606516  *   1.79874913  *
    16       H         -2.72524138  *  -1.55720250  *   1.11150549  *
    17       H         -2.78121792  *   0.14986130  *   0.60348596  *
    18       H         -2.50209499  *  -0.52099389  *  -1.79874913  *
    19       H         -2.64187879  *  -2.26807545  *  -1.25128633  *

                             CARTESIAN COORDINATES

   1    C        0.304987686     1.699986217     0.572472285
   2    C        0.355888212     0.268496092     0.257259354
   3    O        0.855946356    -0.068042904    -1.038916707
   4    C        1.731975786    -1.134168907    -0.530269097
   5    C        1.236087380    -0.913686891     0.897404986
   6    O       -0.067359090    -1.660380011     1.089879010
   7    C       -0.814268359    -0.710017257     0.581894320
   8    C       -2.247631487    -0.823199985     0.400903570
   9    C       -2.463877026    -1.240170552    -1.006130823
  10    H        1.309040068     2.173176664     0.505323555
  11    H       -0.077228947     1.929670349     1.580812822
  12    H       -0.315833955     2.268075445    -0.151272454
  13    H        2.781217916    -0.851286518    -0.724704955
  14    H        1.493931801    -2.087567973    -1.022835845
  15    H        1.831440024    -0.946065161     1.798749133
  16    H       -2.725241378    -1.557202496     1.111505494
  17    H       -2.781217916     0.149861304     0.603485956
  18    H       -2.502094986    -0.520993886    -1.798749133
  19    H       -2.641878786    -2.268075445    -1.251286334


           Empirical Formula: C7 H10 O2  =    19 atoms



      MOLECULAR POINT GROUP   :   C1  


          ALPHA EIGENVALUES  
 -35.17910 -31.68135 -29.39241 -27.71212 -26.46816 -24.31613 -23.12301 -21.37052
 -19.31611 -19.20320 -18.11152 -17.95295 -16.84435 -16.23930 -15.64096 -15.27381
 -15.09908 -14.77941 -14.39997 -13.83826 -13.39295 -12.98384 -12.53467 -11.63190
 -10.35859  -2.14856  -0.57137   0.19454   0.72865   1.11271   1.84191   2.33834
   2.39393   2.55182   3.11815   3.23959   4.26526   4.57720   4.81839   4.92080
   5.01759   5.11717   5.18504   5.57969   5.68765   6.16523


           BETA EIGENVALUES 
 -35.17335 -31.67364 -29.27658 -27.69590 -26.45753 -24.23037 -22.98445 -21.20857
 -19.30014 -19.17715 -18.02643 -17.93590 -16.77862 -16.09961 -15.55367 -15.24800
 -15.06928 -14.68796 -14.39601 -13.79305 -13.32393 -12.92290 -12.52250 -11.59866
  -2.19554  -0.59473  -0.30081   0.19823   0.79559   1.14922   1.85970   2.37834
   2.44757   2.60601   3.11946   3.51384   4.28891   4.57739   4.81866   4.92093
   5.01769   5.11737   5.21935   5.74804   5.93854   6.16541


              NET ATOMIC CHARGES AND DIPOLE CONTRIBUTIONS

  ATOM NO.   TYPE          CHARGE      No. of ELECS.   s-Pop       p-Pop       
    1          C          -0.495777        4.4958     1.05003     3.44575
    2          C           0.199567        3.8004     1.12386     2.67657
    3          O          -0.379900        6.3799     1.90705     4.47285
    4          C          -0.084272        4.0843     1.11510     2.96918
    5          C           0.026703        3.9733     1.17304     2.80026
    6          O          -0.160654        6.1607     1.88893     4.27172
    7          C           0.453240        3.5468     1.23426     2.31251
    8          C          -0.373869        4.3739     1.05694     3.31693
    9          C          -0.250896        4.2509     1.12993     3.12097
   10          H           0.209820        0.7902     0.79018
   11          H           0.203250        0.7967     0.79675
   12          H           0.205992        0.7940     0.79401
   13          H           0.201750        0.7983     0.79825
   14          H           0.194846        0.8052     0.80515
   15          H           0.223444        0.7766     0.77656
   16          H           0.241391        0.7586     0.75861
   17          H           0.247761        0.7522     0.75224
   18          H           0.166823        0.8332     0.83318
   19          H           0.170780        0.8292     0.82922
 DIPOLE           X         Y         Z       TOTAL
 POINT-CHG.    -0.330     0.426     3.148     3.193
 HYBRID        -0.231    -0.534     0.046     0.584
 SUM           -0.561    -0.109     3.194     3.244


          ATOMIC ORBITAL ELECTRON POPULATIONS

     Atom    s        px        py        pz   
    1  C   1.05003   1.24136   0.99086   1.21353
    2  C   1.12386   0.86626   0.97852   0.83179
    3  O   1.90705   1.63566   1.56773   1.26946
    4  C   1.11510   1.05127   0.99130   0.92661
    5  C   1.17304   0.85876   0.86681   1.07469
    6  O   1.88893   1.30929   1.40489   1.55754
    7  C   1.23426   0.95396   0.81757   0.54098
    8  C   1.05694   0.96785   1.24838   1.10070
    9  C   1.12993   1.00421   1.14685   0.96990
   10  H   0.79018
   11  H   0.79675
   12  H   0.79401
   13  H   0.79825
   14  H   0.80515
   15  H   0.77656
   16  H   0.75861
   17  H   0.75224
   18  H   0.83318
   19  H   0.82922


                    (SZ)    =    0.500000
                    (S**2)  =    0.753506


          ATOMIC ORBITAL SPIN POPULATIONS

    Atom   Total    s     px     py     pz   
         Atomic
    1  C -0.0001 -0.000  0.000 -0.000  0.000
    2  C  0.0016  0.000  0.002  0.000 -0.000
    3  O  0.0013  0.000  0.001  0.000  0.000
    4  C  0.0001  0.000  0.000 -0.000  0.000
    5  C  0.0013  0.000  0.001 -0.000  0.000
    6  O  0.0023  0.000  0.001  0.002 -0.000
    7  C  0.0357  0.013  0.022 -0.000  0.001
    8  C -0.0456 -0.005 -0.015 -0.005 -0.021
    9  C  1.0395  0.026  0.917  0.046  0.050
   10  H  0.0000  0.000
   11  H  0.0000  0.000
   12  H  0.0000  0.000
   13  H  0.0002  0.000
   14  H -0.0000 -0.000
   15  H -0.0001 -0.000
   16  H  0.0072  0.007
   17  H  0.0146  0.015
   18  H -0.0291 -0.029
   19  H -0.0291 -0.029

 **********************
 *                    *
 * JOB ENDED NORMALLY *
 *                    *
 **********************



 TOTAL JOB TIME:             1.05 SECONDS

 == MOPAC DONE ==
