 *******************************************************************************
 **                                                                           **
 **                              MOPAC v23.2                                  **
 **                                                                           **
 *******************************************************************************
 **          Digital Object Identifier (DOI): 10.5281/zenodo.6511958          **
 **    Visit the DOI location for information on how to cite this program.    **
 *******************************************************************************

                              PM7 CALCULATION RESULTS

 *******************************************************************************
 *  CALCULATION DONE: (MAX THREADS = 40)             Fri Sep 19 21:33:09 2025  *
 *  PM7        - The PM7 Hamiltonian to be used
 *
 *
 *
 *                 CHARGE ON SYSTEM = +1
 *
 *
 *
 *  1SCF       - DO 1 SCF AND THEN STOP 
 *  T=         - A TIME OF 172800.0 SECONDS REQUESTED
 *  DUMP=N     - RESTART FILE WRITTEN EVERY 7200.0 SECONDS REQUESTED
 *  RELSCF     - DEFAULT SCF CRITERION MULTIPLIED BY 0.0001
 *              (DEFAULT SCF CRITERION = 0.00010)
 *  GRADIENTS  - ALL GRADIENTS TO BE PRINTED
 *  DISP       - PRINT DISPERSION AND HYDROGEN BOND ENERGIES
 *******************************************************************************
PM7 1SCF GRADIENTS DISP RELSCF=0.0001 CHARGE=1
 Title: ASE calculation

   ATOM   CHEMICAL          X               Y               Z
  NUMBER   SYMBOL      (ANGSTROMS)     (ANGSTROMS)     (ANGSTROMS)

     1       C         -2.37936772  *  -1.29355320  *   0.11850233  *
     2       C         -1.00440164  *  -0.74708886  *   0.08932278  *
     3       C         -0.77683965  *   0.65723532  *   0.35086388  *
     4       C          0.53921831  *   1.14223514  *   0.32910550  *
     5       O          0.87559263  *   2.41679305  *   0.55941957  *
     6       C          1.61427144  *   0.28710905  *   0.05671518  *
     7       C          1.29622648  *  -1.08671950  *  -0.20852358  *
     8       N          2.22697999  *  -2.00549234  *  -0.50566337  *
     9       N         -0.00817551  *  -1.57427543  *  -0.18012728  *
    10       H         -2.41177987  *  -2.38859635  *  -0.05942338  *
    11       H         -3.02579593  *  -0.83554012  *  -0.65470801  *
    12       H         -2.87625336  *  -1.12309525  *   1.09221974  *
    13       H         -1.62704423  *   1.30677897  *   0.56074621  *
    14       H          0.08632123  *   3.00862921  *   0.74602583  *
    15       H          2.63855511  *   0.66820373  *   0.05107196  *
    16       H          1.95887347  *  -2.97327158  *  -0.69530335  *
    17       H          3.21396532  *  -1.78584166  *  -0.55605300  *



          CARTESIAN COORDINATES 

    NO.       ATOM           X           Y           Z

     1         C         -2.3794     -1.2936      0.1185
     2         C         -1.0044     -0.7471      0.0893
     3         C         -0.7768      0.6572      0.3509
     4         C          0.5392      1.1422      0.3291
     5         O          0.8756      2.4168      0.5594
     6         C          1.6143      0.2871      0.0567
     7         C          1.2962     -1.0867     -0.2085
     8         N          2.2270     -2.0055     -0.5057
     9         N         -0.0082     -1.5743     -0.1801
    10         H         -2.4118     -2.3886     -0.0594
    11         H         -3.0258     -0.8355     -0.6547
    12         H         -2.8763     -1.1231      1.0922
    13         H         -1.6270      1.3068      0.5607
    14         H          0.0863      3.0086      0.7460
    15         H          2.6386      0.6682      0.0511
    16         H          1.9589     -2.9733     -0.6953
    17         H          3.2140     -1.7858     -0.5561

 General Reference for PM7:
 "Optimization of Parameters for Semiempirical Methods VI: More Modifications to the 
 NDDO Approximations and Re-optimization of Parameters", J. J. P. Stewart, J. Mol. Mod., 1:32, 19 (2013)
 https://link.springer.com/article/10.1007/s00894-012-1667-x

           Empirical Formula: C6 H8 N2 O  =    17 atoms



      MOLECULAR POINT GROUP   :   Cs  


          UHF CALCULATION, NO. OF ALPHA ELECTRONS =   24
                           NO. OF BETA  ELECTRONS =   23
  SCF CRITERION =    0.1000E-07

 -------------------------------------------------------------------------------
 PM7 1SCF GRADIENTS DISP RELSCF=0.0001 CHARGE=1
 Title: ASE calculation



     1SCF WAS SPECIFIED, SO BFGS WAS NOT USED                 
     SCF FIELD WAS ACHIEVED                                   


                              PM7 CALCULATION
                                                       MOPAC v23.2 Linux
                                                       Fri Sep 19 21:33:10 2025




          FINAL HEAT OF FORMATION =        159.31188 KCAL/MOL =     666.56090 KJ/MOL

          TOTAL ENERGY            =     -34704.40890 KCAL/MOL = ELECTRONIC ENERGY + CORE-CORE REPULSION
          ENERGY OF ATOMS         =      34865.63902 KCAL/MOL
                              SUM =        161.23011 KCAL/MOL
          DISPERSION ENERGY       =         -1.91823 KCAL/MOL
                              SUM =        159.31188 KCAL/MOL = FINAL HEAT OF FORMATION



          TOTAL ENERGY            =      -1504.92561 EV
          ELECTRONIC ENERGY       =      -6883.93791 EV 
          CORE-CORE REPULSION     =       5379.01230 EV
          COSMO AREA              =        159.31 SQUARE ANGSTROMS
          COSMO VOLUME            =        151.51 CUBIC ANGSTROMS

          GRADIENT NORM           =          0.75754          =       0.18373 PER ATOM
          IONIZATION POTENTIAL    =         14.440618 EV
          ALPHA SOMO LUMO (EV)    =        -14.865 -5.378
          BETA  SOMO LUMO (EV)    =        -14.441 -7.471
          NO. OF ALPHA ELECTRONS  =         24
          NO. OF BETA  ELECTRONS  =         23
          MOLECULAR WEIGHT        =        124.1420         POINT GROUP:  Cs  

          MOLECULAR DIMENSIONS (Angstroms)

            Atom       Atom       Distance
            H    16    H    14     6.43172
            H    15    H    11     5.90218
            H    17    H    12     1.75749


          SCF CALCULATIONS        =          1

          WALL-CLOCK TIME         =      0.727 SECONDS
          COMPUTATION TIME        =      0.755 SECONDS

          LARGEST ATOMIC GRADIENTS

          Atom     Label                     Cartesian Gradients           Cartesian Coordinates       |Gradient|
                                           X          Y          Z        X          Y          Z

            16       H                   0.039      0.249     -0.136    1.95887   -2.97327   -0.69530      0.287
            15       H                   0.021      0.122      0.224    2.63856    0.66820    0.05107      0.256
             9       N                  -0.229     -0.012      0.095   -0.00818   -1.57428   -0.18013      0.249
             3       C                   0.138      0.170     -0.097   -0.77684    0.65724    0.35086      0.240
             7       C                  -0.041     -0.203     -0.043    1.29623   -1.08672   -0.20852      0.212
            10       H                   0.038     -0.172      0.103   -2.41178   -2.38860   -0.05942      0.205
            14       H                  -0.162     -0.075     -0.098    0.08632    3.00863    0.74603      0.204
             4       C                   0.171      0.021     -0.076    0.53922    1.14224    0.32911      0.188
             6       C                   0.107     -0.142      0.009    1.61427    0.28711    0.05672      0.178
            11       H                  -0.156      0.039      0.015   -3.02580   -0.83554   -0.65471      0.162



       FINAL  POINT  AND  DERIVATIVES

   PARAMETER     ATOM    TYPE            VALUE        GRADIENT
      1          1  C    CARTESIAN X    -2.379368     -0.023180  KCAL/ANGSTROM
      2          1  C    CARTESIAN Y    -1.293553     -0.025310  KCAL/ANGSTROM
      3          1  C    CARTESIAN Z     0.118502     -0.037508  KCAL/ANGSTROM
      4          2  C    CARTESIAN X    -1.004402     -0.102935  KCAL/ANGSTROM
      5          2  C    CARTESIAN Y    -0.747089      0.057695  KCAL/ANGSTROM
      6          2  C    CARTESIAN Z     0.089323      0.100231  KCAL/ANGSTROM
      7          3  C    CARTESIAN X    -0.776840      0.138218  KCAL/ANGSTROM
      8          3  C    CARTESIAN Y     0.657235      0.170304  KCAL/ANGSTROM
      9          3  C    CARTESIAN Z     0.350864     -0.096790  KCAL/ANGSTROM
     10          4  C    CARTESIAN X     0.539218      0.171217  KCAL/ANGSTROM
     11          4  C    CARTESIAN Y     1.142235      0.021424  KCAL/ANGSTROM
     12          4  C    CARTESIAN Z     0.329106     -0.075756  KCAL/ANGSTROM
     13          5  O    CARTESIAN X     0.875593      0.017087  KCAL/ANGSTROM
     14          5  O    CARTESIAN Y     2.416793     -0.047862  KCAL/ANGSTROM
     15          5  O    CARTESIAN Z     0.559420      0.004032  KCAL/ANGSTROM
     16          6  C    CARTESIAN X     1.614271      0.106540  KCAL/ANGSTROM
     17          6  C    CARTESIAN Y     0.287109     -0.141982  KCAL/ANGSTROM
     18          6  C    CARTESIAN Z     0.056715      0.008963  KCAL/ANGSTROM
     19          7  C    CARTESIAN X     1.296226     -0.041400  KCAL/ANGSTROM
     20          7  C    CARTESIAN Y    -1.086719     -0.203237  KCAL/ANGSTROM
     21          7  C    CARTESIAN Z    -0.208524     -0.042679  KCAL/ANGSTROM
     22          8  N    CARTESIAN X     2.226980      0.148811  KCAL/ANGSTROM
     23          8  N    CARTESIAN Y    -2.005492      0.052375  KCAL/ANGSTROM
     24          8  N    CARTESIAN Z    -0.505663     -0.034528  KCAL/ANGSTROM
     25          9  N    CARTESIAN X    -0.008176     -0.229257  KCAL/ANGSTROM
     26          9  N    CARTESIAN Y    -1.574275     -0.012285  KCAL/ANGSTROM
     27          9  N    CARTESIAN Z    -0.180127      0.095268  KCAL/ANGSTROM
     28         10  H    CARTESIAN X    -2.411780      0.037632  KCAL/ANGSTROM
     29         10  H    CARTESIAN Y    -2.388596     -0.172435  KCAL/ANGSTROM
     30         10  H    CARTESIAN Z    -0.059423      0.103370  KCAL/ANGSTROM
     31         11  H    CARTESIAN X    -3.025796     -0.156316  KCAL/ANGSTROM
     32         11  H    CARTESIAN Y    -0.835540      0.039079  KCAL/ANGSTROM
     33         11  H    CARTESIAN Z    -0.654708      0.014775  KCAL/ANGSTROM
     34         12  H    CARTESIAN X    -2.876253     -0.038191  KCAL/ANGSTROM
     35         12  H    CARTESIAN Y    -1.123095     -0.039342  KCAL/ANGSTROM
     36         12  H    CARTESIAN Z     1.092220     -0.053381  KCAL/ANGSTROM
     37         13  H    CARTESIAN X    -1.627044      0.131445  KCAL/ANGSTROM
     38         13  H    CARTESIAN Y     1.306779      0.043058  KCAL/ANGSTROM
     39         13  H    CARTESIAN Z     0.560746      0.007939  KCAL/ANGSTROM
     40         14  H    CARTESIAN X     0.086321     -0.161605  KCAL/ANGSTROM
     41         14  H    CARTESIAN Y     3.008629     -0.075176  KCAL/ANGSTROM
     42         14  H    CARTESIAN Z     0.746026     -0.098348  KCAL/ANGSTROM
     43         15  H    CARTESIAN X     2.638555      0.020840  KCAL/ANGSTROM
     44         15  H    CARTESIAN Y     0.668204      0.121951  KCAL/ANGSTROM
     45         15  H    CARTESIAN Z     0.051072      0.224367  KCAL/ANGSTROM
     46         16  H    CARTESIAN X     1.958873      0.038984  KCAL/ANGSTROM
     47         16  H    CARTESIAN Y    -2.973272      0.249406  KCAL/ANGSTROM
     48         16  H    CARTESIAN Z    -0.695303     -0.136082  KCAL/ANGSTROM
     49         17  H    CARTESIAN X     3.213965     -0.057892  KCAL/ANGSTROM
     50         17  H    CARTESIAN Y    -1.785842     -0.037667  KCAL/ANGSTROM
     51         17  H    CARTESIAN Z    -0.556053      0.016124  KCAL/ANGSTROM




   ATOM   CHEMICAL          X               Y               Z
  NUMBER   SYMBOL      (ANGSTROMS)     (ANGSTROMS)     (ANGSTROMS)

     1       C         -2.37936772  *  -1.29355320  *   0.11850233  *
     2       C         -1.00440164  *  -0.74708886  *   0.08932278  *
     3       C         -0.77683965  *   0.65723532  *   0.35086388  *
     4       C          0.53921831  *   1.14223514  *   0.32910550  *
     5       O          0.87559263  *   2.41679305  *   0.55941957  *
     6       C          1.61427144  *   0.28710905  *   0.05671518  *
     7       C          1.29622648  *  -1.08671950  *  -0.20852358  *
     8       N          2.22697999  *  -2.00549234  *  -0.50566337  *
     9       N         -0.00817551  *  -1.57427543  *  -0.18012728  *
    10       H         -2.41177987  *  -2.38859635  *  -0.05942338  *
    11       H         -3.02579593  *  -0.83554012  *  -0.65470801  *
    12       H         -2.87625336  *  -1.12309525  *   1.09221974  *
    13       H         -1.62704423  *   1.30677897  *   0.56074621  *
    14       H          0.08632123  *   3.00862921  *   0.74602583  *
    15       H          2.63855511  *   0.66820373  *   0.05107196  *
    16       H          1.95887347  *  -2.97327158  *  -0.69530335  *
    17       H          3.21396532  *  -1.78584166  *  -0.55605300  *

                             CARTESIAN COORDINATES

   1    C       -2.379367717    -1.293553196     0.118502333
   2    C       -1.004401638    -0.747088860     0.089322781
   3    C       -0.776839655     0.657235321     0.350863880
   4    C        0.539218308     1.142235142     0.329105504
   5    O        0.875592627     2.416793054     0.559419573
   6    C        1.614271442     0.287109049     0.056715183
   7    C        1.296226480    -1.086719497    -0.208523584
   8    N        2.226979995    -2.005492337    -0.505663367
   9    N       -0.008175505    -1.574275432    -0.180127277
  10    H       -2.411779874    -2.388596350    -0.059423375
  11    H       -3.025795927    -0.835540120    -0.654708006
  12    H       -2.876253364    -1.123095248     1.092219740
  13    H       -1.627044228     1.306778973     0.560746205
  14    H        0.086321225     3.008629210     0.746025831
  15    H        2.638555114     0.668203729     0.051071959
  16    H        1.958873473    -2.973271585    -0.695303348
  17    H        3.213965318    -1.785841656    -0.556053004


           Empirical Formula: C6 H8 N2 O  =    17 atoms



      MOLECULAR POINT GROUP   :   Cs  


          ALPHA EIGENVALUES  
 -43.34528 -40.59653 -35.36029 -32.84539 -32.03821 -29.10422 -27.55925 -26.06964
 -23.56728 -23.43613 -22.03561 -21.69212 -20.69625 -20.26178 -19.12354 -18.89596
 -18.78196 -18.49764 -17.52386 -17.23122 -16.56319 -15.60779 -15.06758 -14.86500
  -5.37770  -4.44704  -3.27034  -2.91080  -2.40076  -2.07783  -1.53229  -1.11035
  -0.98350  -0.46913  -0.16505   0.02584   0.50236   0.82395   0.98322   1.16645
   1.28363   1.53068   1.69993   2.77051


           BETA EIGENVALUES 
 -42.58524 -40.19608 -35.54224 -32.79241 -31.91692 -28.97926 -27.43929 -26.01983
 -23.41780 -23.36701 -21.90230 -21.54441 -20.18226 -20.17233 -19.06611 -18.90489
 -18.62598 -18.14209 -17.48515 -17.21351 -15.48197 -15.42935 -14.44062  -7.47066
  -4.54749  -4.34642  -2.96251  -2.54448  -2.47688  -2.04793  -1.49788  -1.02600
  -0.91199  -0.41630  -0.10519   0.20302   0.59002   0.87441   1.12259   1.23059
   1.32634   1.52072   1.70225   2.76738


              NET ATOMIC CHARGES AND DIPOLE CONTRIBUTIONS

  ATOM NO.   TYPE          CHARGE      No. of ELECS.   s-Pop       p-Pop       
    1          C          -0.471974        4.4720     1.05423     3.41775
    2          C           0.348519        3.6515     1.09078     2.56070
    3          C          -0.254661        4.2547     1.12047     3.13420
    4          C           0.278644        3.7214     1.07313     2.64823
    5          O          -0.378068        6.3781     1.84126     4.53681
    6          C          -0.240798        4.2408     1.09981     3.14099
    7          C           0.354069        3.6459     1.06519     2.58074
    8          N          -0.267622        5.2676     1.50613     3.76149
    9          N          -0.448307        5.4483     1.75351     3.69479
   10          H           0.209154        0.7908     0.79085
   11          H           0.203195        0.7968     0.79680
   12          H           0.201855        0.7981     0.79814
   13          H           0.208881        0.7911     0.79112
   14          H           0.355588        0.6444     0.64441
   15          H           0.223244        0.7768     0.77676
   16          H           0.345796        0.6542     0.65420
   17          H           0.332487        0.6675     0.66751
 DIPOLE           X         Y         Z       TOTAL
 POINT-CHG.     1.518    -2.034    -0.633     2.616
 HYBRID         0.516     0.627     0.070     0.815
 SUM            2.034    -1.407    -0.563     2.537


          ATOMIC ORBITAL ELECTRON POPULATIONS

     Atom    s        px        py        pz   
    1  C   1.05423   0.99745   1.21223   1.20807
    2  C   1.09078   0.93449   0.87217   0.75405
    3  C   1.12047   1.06374   1.05417   1.01629
    4  C   1.07313   0.93717   0.82814   0.88292
    5  O   1.84126   1.45801   1.25331   1.82548
    6  C   1.09981   1.12112   0.96437   1.05551
    7  C   1.06519   0.85902   0.87650   0.84523
    8  N   1.50613   1.17972   1.20700   1.37477
    9  N   1.75351   1.03952   1.39567   1.25961
   10  H   0.79085
   11  H   0.79680
   12  H   0.79814
   13  H   0.79112
   14  H   0.64441
   15  H   0.77676
   16  H   0.65420
   17  H   0.66751


                    (SZ)    =    0.500000
                    (S**2)  =    0.938604


          ATOMIC ORBITAL SPIN POPULATIONS

    Atom   Total    s     px     py     pz   
         Atomic
    1  C  0.0056  0.001  0.004  0.001  0.000
    2  C -0.1466 -0.008 -0.009 -0.020 -0.109
    3  C  0.5833  0.016  0.025  0.040  0.502
    4  C -0.2692 -0.012 -0.024 -0.016 -0.217
    5  O -0.0675 -0.003 -0.000 -0.001 -0.063
    6  C  0.4891  0.013  0.020  0.036  0.421
    7  C -0.1687 -0.012 -0.018 -0.025 -0.113
    8  N  0.4811  0.021  0.025  0.041  0.394
    9  N  0.1687  0.002  0.013  0.013  0.141
   10  H -0.0006 -0.001
   11  H -0.0035 -0.003
   12  H -0.0032 -0.003
   13  H -0.0165 -0.016
   14  H  0.0023  0.002
   15  H -0.0139 -0.014
   16  H -0.0204 -0.020
   17  H -0.0203 -0.020

 **********************
 *                    *
 * JOB ENDED NORMALLY *
 *                    *
 **********************



 TOTAL JOB TIME:             1.03 SECONDS

 == MOPAC DONE ==
