 *******************************************************************************
 **                                                                           **
 **                              MOPAC v23.2                                  **
 **                                                                           **
 *******************************************************************************
 **          Digital Object Identifier (DOI): 10.5281/zenodo.6511958          **
 **    Visit the DOI location for information on how to cite this program.    **
 *******************************************************************************

                              PM7 CALCULATION RESULTS

 *******************************************************************************
 *  CALCULATION DONE: (MAX THREADS = 40)             Fri Sep 19 22:04:08 2025  *
 *  PM7        - The PM7 Hamiltonian to be used
 *
 *
 *
 *                 CHARGE ON SYSTEM = +1
 *
 *
 *
 *  1SCF       - DO 1 SCF AND THEN STOP 
 *  T=         - A TIME OF 172800.0 SECONDS REQUESTED
 *  DUMP=N     - RESTART FILE WRITTEN EVERY 7200.0 SECONDS REQUESTED
 *  RELSCF     - DEFAULT SCF CRITERION MULTIPLIED BY 0.0001
 *              (DEFAULT SCF CRITERION = 0.00010)
 *  GRADIENTS  - ALL GRADIENTS TO BE PRINTED
 *  DISP       - PRINT DISPERSION AND HYDROGEN BOND ENERGIES
 *******************************************************************************
PM7 1SCF GRADIENTS DISP RELSCF=0.0001 CHARGE=1
 Title: ASE calculation

   ATOM   CHEMICAL          X               Y               Z
  NUMBER   SYMBOL      (ANGSTROMS)     (ANGSTROMS)     (ANGSTROMS)

     1       O         -1.09942388  *   1.75002723  *   1.69225532  *
     2       C         -0.92361487  *   0.93556147  *   0.86749148  *
     3       C         -0.55772837  *   0.78121118  *  -0.64274998  *
     4       C         -1.72439967  *  -0.28066260  *  -0.67582673  *
     5       C         -0.96587159  *  -0.61201062  *   0.66205800  *
     6       C          0.44361767  *  -0.42235508  *  -0.18888762  *
     7       C          0.71696042  *  -1.46222899  *  -1.17136698  *
     8       C          1.64036777  *  -0.07497184  *   0.55106947  *
     9       O          1.53868322  *   0.89972924  *   1.38462750  *
    10       H         -0.31007421  *   1.51029205  *  -1.37973492  *
    11       H         -2.75133939  *   0.09301862  *  -0.59417776  *
    12       H         -1.71025458  *  -1.02919355  *  -1.47091732  *
    13       H         -1.13420776  *  -1.41383419  *   1.34212325  *
    14       H          0.78973406  *  -1.23842800  *  -2.21834046  *
    15       H          0.80288985  *  -2.49292761  *  -0.88833272  *
    16       H          2.60590463  *  -0.59844010  *   0.42098910  *
    17       H          2.37875052  *   1.15882495  *   1.92029437  *



          CARTESIAN COORDINATES 

    NO.       ATOM           X           Y           Z

     1         O         -1.0994      1.7500      1.6923
     2         C         -0.9236      0.9356      0.8675
     3         C         -0.5577      0.7812     -0.6427
     4         C         -1.7244     -0.2807     -0.6758
     5         C         -0.9659     -0.6120      0.6621
     6         C          0.4436     -0.4224     -0.1889
     7         C          0.7170     -1.4622     -1.1714
     8         C          1.6404     -0.0750      0.5511
     9         O          1.5387      0.8997      1.3846
    10         H         -0.3101      1.5103     -1.3797
    11         H         -2.7513      0.0930     -0.5942
    12         H         -1.7103     -1.0292     -1.4709
    13         H         -1.1342     -1.4138      1.3421
    14         H          0.7897     -1.2384     -2.2183
    15         H          0.8029     -2.4929     -0.8883
    16         H          2.6059     -0.5984      0.4210
    17         H          2.3788      1.1588      1.9203

 General Reference for PM7:
 "Optimization of Parameters for Semiempirical Methods VI: More Modifications to the 
 NDDO Approximations and Re-optimization of Parameters", J. J. P. Stewart, J. Mol. Mod., 1:32, 19 (2013)
 https://link.springer.com/article/10.1007/s00894-012-1667-x

           Empirical Formula: C7 H8 O2  =    17 atoms



      MOLECULAR POINT GROUP   :   C1  


          UHF CALCULATION, NO. OF ALPHA ELECTRONS =   24
                           NO. OF BETA  ELECTRONS =   23
  SCF CRITERION =    0.1000E-07

 -------------------------------------------------------------------------------
 PM7 1SCF GRADIENTS DISP RELSCF=0.0001 CHARGE=1
 Title: ASE calculation



     1SCF WAS SPECIFIED, SO BFGS WAS NOT USED                 
     SCF FIELD WAS ACHIEVED                                   


                              PM7 CALCULATION
                                                       MOPAC v23.2 Linux
                                                       Fri Sep 19 22:04:08 2025




          FINAL HEAT OF FORMATION =        232.49968 KCAL/MOL =     972.77867 KJ/MOL

          TOTAL ENERGY            =     -35633.73710 KCAL/MOL = ELECTRONIC ENERGY + CORE-CORE REPULSION
          ENERGY OF ATOMS         =      35867.73354 KCAL/MOL
                              SUM =        233.99644 KCAL/MOL
          DISPERSION ENERGY       =         -1.49676 KCAL/MOL
                              SUM =        232.49968 KCAL/MOL = FINAL HEAT OF FORMATION



          TOTAL ENERGY            =      -1545.22509 EV
          ELECTRONIC ENERGY       =      -7199.19969 EV 
          CORE-CORE REPULSION     =       5653.97460 EV
          COSMO AREA              =        152.82 SQUARE ANGSTROMS
          COSMO VOLUME            =        151.08 CUBIC ANGSTROMS

          GRADIENT NORM           =          0.89017          =       0.21590 PER ATOM
          IONIZATION POTENTIAL    =         14.359361 EV
          ALPHA SOMO LUMO (EV)    =        -14.359 -6.853
          BETA  SOMO LUMO (EV)    =        -14.393 -6.822
          NO. OF ALPHA ELECTRONS  =         24
          NO. OF BETA  ELECTRONS  =         23
          MOLECULAR WEIGHT        =        124.1390         POINT GROUP:  C1  

          MOLECULAR DIMENSIONS (Angstroms)

            Atom       Atom       Distance
            H    17    H    11     5.81174
            O     1    H    15     5.31361
            H    10    H    13     4.01501


          SCF CALCULATIONS        =          1

          WALL-CLOCK TIME         =      0.516 SECONDS
          COMPUTATION TIME        =      1.129 SECONDS

          LARGEST ATOMIC GRADIENTS

          Atom     Label                     Cartesian Gradients           Cartesian Coordinates       |Gradient|
                                           X          Y          Z        X          Y          Z

             9       O                  -0.031      0.311      0.169    1.53868    0.89973    1.38463      0.355
             8       C                   0.120     -0.005     -0.286    1.64037   -0.07497    0.55107      0.310
            16       H                   0.189      0.059     -0.220    2.60590   -0.59844    0.42099      0.296
             5       C                  -0.078     -0.151     -0.199   -0.96587   -0.61201    0.66206      0.262
             3       C                   0.222     -0.047      0.050   -0.55773    0.78121   -0.64275      0.233
             7       C                  -0.119     -0.044      0.176    0.71696   -1.46223   -1.17137      0.217
            11       H                  -0.038     -0.203     -0.025   -2.75134    0.09302   -0.59418      0.208
            13       H                  -0.115      0.127      0.084   -1.13421   -1.41383    1.34212      0.191
            12       H                  -0.122      0.136      0.055   -1.71025   -1.02919   -1.47092      0.191
             2       C                  -0.117     -0.087      0.104   -0.92361    0.93556    0.86749      0.178



       FINAL  POINT  AND  DERIVATIVES

   PARAMETER     ATOM    TYPE            VALUE        GRADIENT
      1          1  O    CARTESIAN X    -1.099424      0.010310  KCAL/ANGSTROM
      2          1  O    CARTESIAN Y     1.750027     -0.126719  KCAL/ANGSTROM
      3          1  O    CARTESIAN Z     1.692255      0.017443  KCAL/ANGSTROM
      4          2  C    CARTESIAN X    -0.923615     -0.116533  KCAL/ANGSTROM
      5          2  C    CARTESIAN Y     0.935561     -0.086611  KCAL/ANGSTROM
      6          2  C    CARTESIAN Z     0.867491      0.103741  KCAL/ANGSTROM
      7          3  C    CARTESIAN X    -0.557728      0.222382  KCAL/ANGSTROM
      8          3  C    CARTESIAN Y     0.781211     -0.046864  KCAL/ANGSTROM
      9          3  C    CARTESIAN Z    -0.642750      0.049605  KCAL/ANGSTROM
     10          4  C    CARTESIAN X    -1.724400      0.066343  KCAL/ANGSTROM
     11          4  C    CARTESIAN Y    -0.280663      0.087704  KCAL/ANGSTROM
     12          4  C    CARTESIAN Z    -0.675827     -0.113925  KCAL/ANGSTROM
     13          5  C    CARTESIAN X    -0.965872     -0.078271  KCAL/ANGSTROM
     14          5  C    CARTESIAN Y    -0.612011     -0.150772  KCAL/ANGSTROM
     15          5  C    CARTESIAN Z     0.662058     -0.198973  KCAL/ANGSTROM
     16          6  C    CARTESIAN X     0.443618     -0.082118  KCAL/ANGSTROM
     17          6  C    CARTESIAN Y    -0.422355      0.133744  KCAL/ANGSTROM
     18          6  C    CARTESIAN Z    -0.188888     -0.047021  KCAL/ANGSTROM
     19          7  C    CARTESIAN X     0.716960     -0.119327  KCAL/ANGSTROM
     20          7  C    CARTESIAN Y    -1.462229     -0.043600  KCAL/ANGSTROM
     21          7  C    CARTESIAN Z    -1.171367      0.175679  KCAL/ANGSTROM
     22          8  C    CARTESIAN X     1.640368      0.119907  KCAL/ANGSTROM
     23          8  C    CARTESIAN Y    -0.074972     -0.004746  KCAL/ANGSTROM
     24          8  C    CARTESIAN Z     0.551069     -0.285515  KCAL/ANGSTROM
     25          9  O    CARTESIAN X     1.538683     -0.030737  KCAL/ANGSTROM
     26          9  O    CARTESIAN Y     0.899729      0.310905  KCAL/ANGSTROM
     27          9  O    CARTESIAN Z     1.384627      0.169121  KCAL/ANGSTROM
     28         10  H    CARTESIAN X    -0.310074      0.121327  KCAL/ANGSTROM
     29         10  H    CARTESIAN Y     1.510292     -0.078075  KCAL/ANGSTROM
     30         10  H    CARTESIAN Z    -1.379735      0.071425  KCAL/ANGSTROM
     31         11  H    CARTESIAN X    -2.751339     -0.037848  KCAL/ANGSTROM
     32         11  H    CARTESIAN Y     0.093019     -0.203484  KCAL/ANGSTROM
     33         11  H    CARTESIAN Z    -0.594178     -0.025160  KCAL/ANGSTROM
     34         12  H    CARTESIAN X    -1.710255     -0.121841  KCAL/ANGSTROM
     35         12  H    CARTESIAN Y    -1.029194      0.136280  KCAL/ANGSTROM
     36         12  H    CARTESIAN Z    -1.470917      0.054853  KCAL/ANGSTROM
     37         13  H    CARTESIAN X    -1.134208     -0.115149  KCAL/ANGSTROM
     38         13  H    CARTESIAN Y    -1.413834      0.126956  KCAL/ANGSTROM
     39         13  H    CARTESIAN Z     1.342123      0.084193  KCAL/ANGSTROM
     40         14  H    CARTESIAN X     0.789734      0.141966  KCAL/ANGSTROM
     41         14  H    CARTESIAN Y    -1.238428     -0.072470  KCAL/ANGSTROM
     42         14  H    CARTESIAN Z    -2.218340      0.069534  KCAL/ANGSTROM
     43         15  H    CARTESIAN X     0.802890     -0.175004  KCAL/ANGSTROM
     44         15  H    CARTESIAN Y    -2.492928     -0.001536  KCAL/ANGSTROM
     45         15  H    CARTESIAN Z    -0.888333      0.007140  KCAL/ANGSTROM
     46         16  H    CARTESIAN X     2.605905      0.189314  KCAL/ANGSTROM
     47         16  H    CARTESIAN Y    -0.598440      0.059103  KCAL/ANGSTROM
     48         16  H    CARTESIAN Z     0.420989     -0.220362  KCAL/ANGSTROM
     49         17  H    CARTESIAN X     2.378751      0.005275  KCAL/ANGSTROM
     50         17  H    CARTESIAN Y     1.158825     -0.039823  KCAL/ANGSTROM
     51         17  H    CARTESIAN Z     1.920294      0.088215  KCAL/ANGSTROM




   ATOM   CHEMICAL          X               Y               Z
  NUMBER   SYMBOL      (ANGSTROMS)     (ANGSTROMS)     (ANGSTROMS)

     1       O         -1.09942388  *   1.75002723  *   1.69225532  *
     2       C         -0.92361487  *   0.93556147  *   0.86749148  *
     3       C         -0.55772837  *   0.78121118  *  -0.64274998  *
     4       C         -1.72439967  *  -0.28066260  *  -0.67582673  *
     5       C         -0.96587159  *  -0.61201062  *   0.66205800  *
     6       C          0.44361767  *  -0.42235508  *  -0.18888762  *
     7       C          0.71696042  *  -1.46222899  *  -1.17136698  *
     8       C          1.64036777  *  -0.07497184  *   0.55106947  *
     9       O          1.53868322  *   0.89972924  *   1.38462750  *
    10       H         -0.31007421  *   1.51029205  *  -1.37973492  *
    11       H         -2.75133939  *   0.09301862  *  -0.59417776  *
    12       H         -1.71025458  *  -1.02919355  *  -1.47091732  *
    13       H         -1.13420776  *  -1.41383419  *   1.34212325  *
    14       H          0.78973406  *  -1.23842800  *  -2.21834046  *
    15       H          0.80288985  *  -2.49292761  *  -0.88833272  *
    16       H          2.60590463  *  -0.59844010  *   0.42098910  *
    17       H          2.37875052  *   1.15882495  *   1.92029437  *

                             CARTESIAN COORDINATES

   1    O       -1.099423882     1.750027230     1.692255319
   2    C       -0.923614874     0.935561469     0.867491481
   3    C       -0.557728367     0.781211177    -0.642749978
   4    C       -1.724399665    -0.280662603    -0.675826733
   5    C       -0.965871585    -0.612010615     0.662057999
   6    C        0.443617671    -0.422355083    -0.188887616
   7    C        0.716960422    -1.462228990    -1.171366978
   8    C        1.640367773    -0.074971837     0.551069473
   9    O        1.538683215     0.899729236     1.384627499
  10    H       -0.310074210     1.510292053    -1.379734925
  11    H       -2.751339389     0.093018622    -0.594177764
  12    H       -1.710254575    -1.029193549    -1.470917322
  13    H       -1.134207757    -1.413834186     1.342123255
  14    H        0.789734057    -1.238428001    -2.218340465
  15    H        0.802889852    -2.492927607    -0.888332720
  16    H        2.605904632    -0.598440102     0.420989097
  17    H        2.378750515     1.158824954     1.920294371


           Empirical Formula: C7 H8 O2  =    17 atoms



      MOLECULAR POINT GROUP   :   C1  


          ALPHA EIGENVALUES  
 -38.72869 -37.52627 -36.08469 -32.31161 -29.02824 -26.71476 -26.63186 -25.23809
 -24.37787 -22.85831 -21.66144 -21.22497 -20.42372 -19.93016 -19.79770 -19.61622
 -19.11550 -18.19536 -17.10870 -16.95072 -16.58546 -16.29450 -14.45032 -14.35936
  -6.85289  -4.50462  -3.63206  -2.94782  -2.62900  -2.24335  -2.10217  -1.87149
  -1.77953  -1.42067  -0.87625  -0.60961  -0.48877   0.84981   1.37931   1.41227
   1.50711   1.54778   1.81391   2.09063


           BETA EIGENVALUES 
 -38.71897 -37.50699 -36.07369 -32.21697 -28.78873 -26.70826 -26.62086 -25.21978
 -24.19884 -22.81397 -21.63228 -21.21356 -20.36291 -19.83888 -19.69803 -19.60384
 -18.99244 -18.11342 -17.06603 -16.91147 -16.54953 -16.23828 -14.39277  -6.82160
  -4.89372  -4.21864  -3.50772  -2.91368  -2.51802  -2.14396  -2.08442  -1.86512
  -1.75945  -1.41784  -0.84854  -0.53429  -0.28063   0.85534   1.38235   1.41572
   1.51025   1.71689   2.06406   2.09759


              NET ATOMIC CHARGES AND DIPOLE CONTRIBUTIONS

  ATOM NO.   TYPE          CHARGE      No. of ELECS.   s-Pop       p-Pop       
    1          O          -0.252378        6.2524     1.87030     4.38207
    2          C           0.393332        3.6067     1.14918     2.45749
    3          C          -0.129553        4.1296     1.13564     2.99391
    4          C          -0.270250        4.2703     1.08524     3.18501
    5          C          -0.112257        4.1123     1.14429     2.96797
    6          C          -0.211666        4.2117     1.08254     3.12912
    7          C          -0.272314        4.2723     1.12831     3.14401
    8          C           0.441140        3.5589     1.20419     2.35467
    9          O          -0.296688        6.2967     1.82457     4.47212
   10          H           0.191438        0.8086     0.80856
   11          H           0.190881        0.8091     0.80912
   12          H           0.188197        0.8118     0.81180
   13          H           0.190033        0.8100     0.80997
   14          H           0.178920        0.8211     0.82108
   15          H           0.173573        0.8264     0.82643
   16          H           0.191631        0.8084     0.80837
   17          H           0.405962        0.5940     0.59404
 DIPOLE           X         Y         Z       TOTAL
 POINT-CHG.     5.923    -2.382    -0.522     6.405
 HYBRID         0.702     0.279     0.484     0.897
 SUM            6.625    -2.103    -0.037     6.951


          ATOMIC ORBITAL ELECTRON POPULATIONS

     Atom    s        px        py        pz   
    1  O   1.87030   1.36824   1.52428   1.48955
    2  C   1.14918   0.71579   0.87731   0.86439
    3  C   1.13564   0.93271   0.97442   1.08678
    4  C   1.08524   1.07530   1.07230   1.03742
    5  C   1.14429   0.85179   1.09605   1.02012
    6  C   1.08254   0.96371   1.09760   1.06781
    7  C   1.12831   0.99490   1.06367   1.08544
    8  C   1.20419   1.03476   0.67732   0.64258
    9  O   1.82457   1.53689   1.45983   1.47540
   10  H   0.80856
   11  H   0.80912
   12  H   0.81180
   13  H   0.80997
   14  H   0.82108
   15  H   0.82643
   16  H   0.80837
   17  H   0.59404


                    (SZ)    =    0.500000
                    (S**2)  =    0.753516


          ATOMIC ORBITAL SPIN POPULATIONS

    Atom   Total    s     px     py     pz   
         Atomic
    1  O  0.0026  0.000  0.002  0.000  0.000
    2  C -0.0018 -0.000 -0.001 -0.001 -0.000
    3  C  0.0083  0.001  0.004  0.003  0.000
    4  C  0.0005  0.001 -0.001  0.001 -0.000
    5  C  0.0349  0.004  0.022  0.002  0.007
    6  C -0.0591 -0.008 -0.020 -0.016 -0.015
    7  C  1.0404  0.026  0.922  0.049  0.044
    8  C  0.0317  0.016  0.010 -0.000  0.005
    9  O -0.0011  0.000 -0.001 -0.001  0.000
   10  H -0.0001 -0.000
   11  H  0.0002  0.000
   12  H -0.0007 -0.001
   13  H -0.0005 -0.001
   14  H -0.0289 -0.029
   15  H -0.0288 -0.029
   16  H  0.0003  0.000
   17  H  0.0021  0.002

 **********************
 *                    *
 * JOB ENDED NORMALLY *
 *                    *
 **********************



 TOTAL JOB TIME:             0.81 SECONDS

 == MOPAC DONE ==
