 *******************************************************************************
 **                                                                           **
 **                              MOPAC v23.2                                  **
 **                                                                           **
 *******************************************************************************
 **          Digital Object Identifier (DOI): 10.5281/zenodo.6511958          **
 **    Visit the DOI location for information on how to cite this program.    **
 *******************************************************************************

                              PM7 CALCULATION RESULTS

 *******************************************************************************
 *  CALCULATION DONE: (MAX THREADS = 40)             Fri Sep 19 21:40:20 2025  *
 *  PM7        - The PM7 Hamiltonian to be used
 *  1SCF       - DO 1 SCF AND THEN STOP 
 *  T=         - A TIME OF 172800.0 SECONDS REQUESTED
 *  DUMP=N     - RESTART FILE WRITTEN EVERY 7200.0 SECONDS REQUESTED
 *  RELSCF     - DEFAULT SCF CRITERION MULTIPLIED BY 0.0001
 *              (DEFAULT SCF CRITERION = 0.00010)
 *  GRADIENTS  - ALL GRADIENTS TO BE PRINTED
 *  DISP       - PRINT DISPERSION AND HYDROGEN BOND ENERGIES
 *******************************************************************************
PM7 1SCF GRADIENTS DISP RELSCF=0.0001
 Title: ASE calculation

   ATOM   CHEMICAL          X               Y               Z
  NUMBER   SYMBOL      (ANGSTROMS)     (ANGSTROMS)     (ANGSTROMS)

     1       C          1.65560646  *   0.49916201  *  -1.19812105  *
     2       C          2.25709620  *   0.16656457  *  -0.04935580  *
     3       C          1.26282627  *  -0.14348938  *   1.03664236  *
     4       C         -0.10344548  *   0.05231384  *   0.37030104  *
     5       C          0.15572787  *   0.46795183  *  -1.07631840  *
     6       C         -1.23702046  *  -0.86644488  *   0.78685264  *
     7       C         -2.51448731  *  -0.63898794  *  -0.04218769  *
     8       C         -2.51041025  *   0.86909730  *   0.39196529  *
     9       C         -1.23303805  *   0.61452579  *   1.21331010  *
    10       H          2.11502108  *   0.76649733  *  -2.13103605  *
    11       H          3.30994770  *   0.10601845  *   0.15049999  *
    12       H          1.38710183  *  -1.17447003  *   1.41389783  *
    13       H          1.39196819  *   0.52798099  *   1.90448769  *
    14       H         -0.29136994  *  -0.24874564  *  -1.78886837  *
    15       H         -0.28727453  *   1.45569695  *  -1.29855654  *
    16       H         -1.09582369  *  -1.75623258  *   1.36310371  *
    17       H         -2.41021000  *  -0.81203584  *  -1.11445223  *
    18       H         -3.37865395  *  -1.20076917  *   0.31936317  *
    19       H         -3.37237007  *   1.15699224  *   0.99800872  *
    20       H         -2.40361313  *   1.58515898  *  -0.42440217  *
    21       H         -1.08825188  *   1.06081281  *   2.17435482  *



          CARTESIAN COORDINATES 

    NO.       ATOM           X           Y           Z

     1         C          1.6556      0.4992     -1.1981
     2         C          2.2571      0.1666     -0.0494
     3         C          1.2628     -0.1435      1.0366
     4         C         -0.1034      0.0523      0.3703
     5         C          0.1557      0.4680     -1.0763
     6         C         -1.2370     -0.8664      0.7869
     7         C         -2.5145     -0.6390     -0.0422
     8         C         -2.5104      0.8691      0.3920
     9         C         -1.2330      0.6145      1.2133
    10         H          2.1150      0.7665     -2.1310
    11         H          3.3099      0.1060      0.1505
    12         H          1.3871     -1.1745      1.4139
    13         H          1.3920      0.5280      1.9045
    14         H         -0.2914     -0.2487     -1.7889
    15         H         -0.2873      1.4557     -1.2986
    16         H         -1.0958     -1.7562      1.3631
    17         H         -2.4102     -0.8120     -1.1145
    18         H         -3.3787     -1.2008      0.3194
    19         H         -3.3724      1.1570      0.9980
    20         H         -2.4036      1.5852     -0.4244
    21         H         -1.0883      1.0608      2.1744

 General Reference for PM7:
 "Optimization of Parameters for Semiempirical Methods VI: More Modifications to the 
 NDDO Approximations and Re-optimization of Parameters", J. J. P. Stewart, J. Mol. Mod., 1:32, 19 (2013)
 https://link.springer.com/article/10.1007/s00894-012-1667-x

           Empirical Formula: C9 H12  =    21 atoms



      MOLECULAR POINT GROUP   :   Cs  


      RHF CALCULATION, NO. OF DOUBLY OCCUPIED LEVELS = 24

  SCF CRITERION =    0.1000E-07

 -------------------------------------------------------------------------------
 PM7 1SCF GRADIENTS DISP RELSCF=0.0001
 Title: ASE calculation



     1SCF WAS SPECIFIED, SO BFGS WAS NOT USED                 
     SCF FIELD WAS ACHIEVED                                   


                              PM7 CALCULATION
                                                       MOPAC v23.2 Linux
                                                       Fri Sep 19 21:40:21 2025




          FINAL HEAT OF FORMATION =         52.39062 KCAL/MOL =     219.20236 KJ/MOL

          TOTAL ENERGY            =     -29183.23672 KCAL/MOL = ELECTRONIC ENERGY + CORE-CORE REPULSION
          ENERGY OF ATOMS         =      29237.64417 KCAL/MOL
                              SUM =         54.40745 KCAL/MOL
          DISPERSION ENERGY       =         -2.01683 KCAL/MOL
                              SUM =         52.39062 KCAL/MOL = FINAL HEAT OF FORMATION



          TOTAL ENERGY            =      -1265.50492 EV
          ELECTRONIC ENERGY       =      -6878.28603 EV 
          CORE-CORE REPULSION     =       5612.78111 EV
          COSMO AREA              =        161.51 SQUARE ANGSTROMS
          COSMO VOLUME            =        163.75 CUBIC ANGSTROMS

          GRADIENT NORM           =          0.86055          =       0.18779 PER ATOM
          IONIZATION POTENTIAL    =          9.493548 EV
          HOMO LUMO ENERGIES (EV) =         -9.494  1.187
          NO. OF FILLED LEVELS    =         24
          MOLECULAR WEIGHT        =        120.1938         POINT GROUP:  Cs  

          MOLECULAR DIMENSIONS (Angstroms)

            Atom       Atom       Distance
            H    19    H    11     6.81734
            H    10    H    16     4.32311
            H    21    H    17     3.82916


          SCF CALCULATIONS        =          1

          WALL-CLOCK TIME         =      0.695 SECONDS
          COMPUTATION TIME        =      0.532 SECONDS

          LARGEST ATOMIC GRADIENTS

          Atom     Label                     Cartesian Gradients           Cartesian Coordinates       |Gradient|
                                           X          Y          Z        X          Y          Z

             5       C                   0.274      0.059     -0.209    0.15573    0.46795   -1.07632      0.349
            21       H                   0.005      0.029      0.278   -1.08825    1.06081    2.17435      0.280
            16       H                   0.005     -0.171      0.221   -1.09582   -1.75623    1.36310      0.280
             1       C                   0.243      0.020     -0.076    1.65561    0.49916   -1.19812      0.255
             4       C                  -0.122      0.063     -0.211   -0.10345    0.05231    0.37030      0.252
             3       C                  -0.239      0.018     -0.058    1.26283   -0.14349    1.03664      0.246
            11       H                  -0.189      0.014     -0.059    3.30995    0.10602    0.15050      0.199
            17       H                   0.146      0.068      0.091   -2.41021   -0.81204   -1.11445      0.185
            20       H                   0.147     -0.106      0.040   -2.40361    1.58516   -0.42440      0.185
             2       C                  -0.084     -0.040      0.131    2.25710    0.16656   -0.04936      0.160



       FINAL  POINT  AND  DERIVATIVES

   PARAMETER     ATOM    TYPE            VALUE        GRADIENT
      1          1  C    CARTESIAN X     1.655606      0.242788  KCAL/ANGSTROM
      2          1  C    CARTESIAN Y     0.499162      0.019605  KCAL/ANGSTROM
      3          1  C    CARTESIAN Z    -1.198121     -0.076465  KCAL/ANGSTROM
      4          2  C    CARTESIAN X     2.257096     -0.084230  KCAL/ANGSTROM
      5          2  C    CARTESIAN Y     0.166565     -0.039803  KCAL/ANGSTROM
      6          2  C    CARTESIAN Z    -0.049356      0.130571  KCAL/ANGSTROM
      7          3  C    CARTESIAN X     1.262826     -0.238519  KCAL/ANGSTROM
      8          3  C    CARTESIAN Y    -0.143489      0.017936  KCAL/ANGSTROM
      9          3  C    CARTESIAN Z     1.036642     -0.058331  KCAL/ANGSTROM
     10          4  C    CARTESIAN X    -0.103445     -0.122089  KCAL/ANGSTROM
     11          4  C    CARTESIAN Y     0.052314      0.062934  KCAL/ANGSTROM
     12          4  C    CARTESIAN Z     0.370301     -0.211264  KCAL/ANGSTROM
     13          5  C    CARTESIAN X     0.155728      0.273517  KCAL/ANGSTROM
     14          5  C    CARTESIAN Y     0.467952      0.058939  KCAL/ANGSTROM
     15          5  C    CARTESIAN Z    -1.076318     -0.208612  KCAL/ANGSTROM
     16          6  C    CARTESIAN X    -1.237020      0.036286  KCAL/ANGSTROM
     17          6  C    CARTESIAN Y    -0.866445     -0.114726  KCAL/ANGSTROM
     18          6  C    CARTESIAN Z     0.786853     -0.098636  KCAL/ANGSTROM
     19          7  C    CARTESIAN X    -2.514487     -0.119385  KCAL/ANGSTROM
     20          7  C    CARTESIAN Y    -0.638988      0.051602  KCAL/ANGSTROM
     21          7  C    CARTESIAN Z    -0.042188      0.031758  KCAL/ANGSTROM
     22          8  C    CARTESIAN X    -2.510410     -0.119490  KCAL/ANGSTROM
     23          8  C    CARTESIAN Y     0.869097     -0.058194  KCAL/ANGSTROM
     24          8  C    CARTESIAN Z     0.391965     -0.000435  KCAL/ANGSTROM
     25          9  C    CARTESIAN X    -1.233038      0.036461  KCAL/ANGSTROM
     26          9  C    CARTESIAN Y     0.614526      0.151031  KCAL/ANGSTROM
     27          9  C    CARTESIAN Z     1.213310     -0.022042  KCAL/ANGSTROM
     28         10  H    CARTESIAN X     2.115021      0.012929  KCAL/ANGSTROM
     29         10  H    CARTESIAN Y     0.766497      0.027575  KCAL/ANGSTROM
     30         10  H    CARTESIAN Z    -2.131036     -0.107551  KCAL/ANGSTROM
     31         11  H    CARTESIAN X     3.309948     -0.189334  KCAL/ANGSTROM
     32         11  H    CARTESIAN Y     0.106018      0.013524  KCAL/ANGSTROM
     33         11  H    CARTESIAN Z     0.150500     -0.058730  KCAL/ANGSTROM
     34         12  H    CARTESIAN X     1.387102      0.006554  KCAL/ANGSTROM
     35         12  H    CARTESIAN Y    -1.174470      0.072744  KCAL/ANGSTROM
     36         12  H    CARTESIAN Z     1.413898     -0.044058  KCAL/ANGSTROM
     37         13  H    CARTESIAN X     1.391968      0.008616  KCAL/ANGSTROM
     38         13  H    CARTESIAN Y     0.527981     -0.036282  KCAL/ANGSTROM
     39         13  H    CARTESIAN Z     1.904488     -0.077150  KCAL/ANGSTROM
     40         14  H    CARTESIAN X    -0.291370      0.022865  KCAL/ANGSTROM
     41         14  H    CARTESIAN Y    -0.248746     -0.016156  KCAL/ANGSTROM
     42         14  H    CARTESIAN Z    -1.788868      0.100130  KCAL/ANGSTROM
     43         15  H    CARTESIAN X    -0.287275      0.024675  KCAL/ANGSTROM
     44         15  H    CARTESIAN Y     1.455697     -0.040447  KCAL/ANGSTROM
     45         15  H    CARTESIAN Z    -1.298557      0.091869  KCAL/ANGSTROM
     46         16  H    CARTESIAN X    -1.095824      0.004808  KCAL/ANGSTROM
     47         16  H    CARTESIAN Y    -1.756233     -0.171096  KCAL/ANGSTROM
     48         16  H    CARTESIAN Z     1.363104      0.221032  KCAL/ANGSTROM
     49         17  H    CARTESIAN X    -2.410210      0.146166  KCAL/ANGSTROM
     50         17  H    CARTESIAN Y    -0.812036      0.068335  KCAL/ANGSTROM
     51         17  H    CARTESIAN Z    -1.114452      0.091305  KCAL/ANGSTROM
     52         18  H    CARTESIAN X    -3.378654     -0.047253  KCAL/ANGSTROM
     53         18  H    CARTESIAN Y    -1.200769     -0.021314  KCAL/ANGSTROM
     54         18  H    CARTESIAN Z     0.319363     -0.017663  KCAL/ANGSTROM
     55         19  H    CARTESIAN X    -3.372370     -0.046813  KCAL/ANGSTROM
     56         19  H    CARTESIAN Y     1.156992      0.030482  KCAL/ANGSTROM
     57         19  H    CARTESIAN Z     0.998009     -0.004382  KCAL/ANGSTROM
     58         20  H    CARTESIAN X    -2.403613      0.146500  KCAL/ANGSTROM
     59         20  H    CARTESIAN Y     1.585159     -0.105671  KCAL/ANGSTROM
     60         20  H    CARTESIAN Z    -0.424402      0.040398  KCAL/ANGSTROM
     61         21  H    CARTESIAN X    -1.088252      0.004948  KCAL/ANGSTROM
     62         21  H    CARTESIAN Y     1.060813      0.028979  KCAL/ANGSTROM
     63         21  H    CARTESIAN Z     2.174355      0.278255  KCAL/ANGSTROM




   ATOM   CHEMICAL          X               Y               Z
  NUMBER   SYMBOL      (ANGSTROMS)     (ANGSTROMS)     (ANGSTROMS)

     1       C          1.65560646  *   0.49916201  *  -1.19812105  *
     2       C          2.25709620  *   0.16656457  *  -0.04935580  *
     3       C          1.26282627  *  -0.14348938  *   1.03664236  *
     4       C         -0.10344548  *   0.05231384  *   0.37030104  *
     5       C          0.15572787  *   0.46795183  *  -1.07631840  *
     6       C         -1.23702046  *  -0.86644488  *   0.78685264  *
     7       C         -2.51448731  *  -0.63898794  *  -0.04218769  *
     8       C         -2.51041025  *   0.86909730  *   0.39196529  *
     9       C         -1.23303805  *   0.61452579  *   1.21331010  *
    10       H          2.11502108  *   0.76649733  *  -2.13103605  *
    11       H          3.30994770  *   0.10601845  *   0.15049999  *
    12       H          1.38710183  *  -1.17447003  *   1.41389783  *
    13       H          1.39196819  *   0.52798099  *   1.90448769  *
    14       H         -0.29136994  *  -0.24874564  *  -1.78886837  *
    15       H         -0.28727453  *   1.45569695  *  -1.29855654  *
    16       H         -1.09582369  *  -1.75623258  *   1.36310371  *
    17       H         -2.41021000  *  -0.81203584  *  -1.11445223  *
    18       H         -3.37865395  *  -1.20076917  *   0.31936317  *
    19       H         -3.37237007  *   1.15699224  *   0.99800872  *
    20       H         -2.40361313  *   1.58515898  *  -0.42440217  *
    21       H         -1.08825188  *   1.06081281  *   2.17435482  *

                             CARTESIAN COORDINATES

   1    C        1.655606464     0.499162013    -1.198121054
   2    C        2.257096200     0.166564568    -0.049355804
   3    C        1.262826275    -0.143489376     1.036642360
   4    C       -0.103445484     0.052313836     0.370301036
   5    C        0.155727871     0.467951828    -1.076318399
   6    C       -1.237020464    -0.866444878     0.786852641
   7    C       -2.514487308    -0.638987945    -0.042187693
   8    C       -2.510410255     0.869097304     0.391965285
   9    C       -1.233038048     0.614525792     1.213310104
  10    H        2.115021075     0.766497335    -2.131036047
  11    H        3.309947696     0.106018446     0.150499992
  12    H        1.387101835    -1.174470033     1.413897833
  13    H        1.391968190     0.527980990     1.904487692
  14    H       -0.291369942    -0.248745641    -1.788868368
  15    H       -0.287274534     1.455696953    -1.298556535
  16    H       -1.095823695    -1.756232577     1.363103705
  17    H       -2.410209998    -0.812035845    -1.114452234
  18    H       -3.378653946    -1.200769175     0.319363169
  19    H       -3.372370070     1.156992242     0.998008722
  20    H       -2.403613128     1.585158984    -0.424402171
  21    H       -1.088251878     1.060812811     2.174354823


           Empirical Formula: C9 H12  =    21 atoms



      MOLECULAR POINT GROUP   :   Cs  


                  EIGENVALUES  
 -32.29651 -29.44286 -25.47014 -24.36885 -22.55158 -22.16730 -18.85686 -18.24953
 -18.10600 -17.11728 -16.15144 -15.36869 -14.89218 -13.76214 -13.65100 -13.11156
 -12.63665 -12.62530 -12.14117 -11.76616 -11.67390 -10.67459 -10.25901  -9.49355
   1.18709   2.30740   3.34445   3.49104   3.62496   3.81919   4.26186   4.54013
   4.60528   5.02458   5.40744   5.55876   5.71420   5.77797   6.09362   6.17680
   6.19486   6.28203   6.35397   6.36816   6.40573   6.47958   6.54700   6.66801


              NET ATOMIC CHARGES AND DIPOLE CONTRIBUTIONS

  ATOM NO.   TYPE          CHARGE      No. of ELECS.   s-Pop       p-Pop       
    1          C          -0.158303        4.1583     1.09383     3.06447
    2          C          -0.157605        4.1576     1.09267     3.06493
    3          C          -0.279690        4.2797     1.06028     3.21941
    4          C           0.017150        3.9828     1.05244     2.93041
    5          C          -0.270951        4.2710     1.05836     3.21259
    6          C          -0.210026        4.2100     1.06722     3.14280
    7          C          -0.261637        4.2616     1.06681     3.19482
    8          C          -0.261612        4.2616     1.06683     3.19479
    9          C          -0.209960        4.2100     1.06724     3.14272
   10          H           0.146921        0.8531     0.85308
   11          H           0.147438        0.8526     0.85256
   12          H           0.152812        0.8472     0.84719
   13          H           0.152814        0.8472     0.84719
   14          H           0.153324        0.8467     0.84668
   15          H           0.153320        0.8467     0.84668
   16          H           0.158142        0.8419     0.84186
   17          H           0.140858        0.8591     0.85914
   18          H           0.143998        0.8560     0.85600
   19          H           0.144000        0.8560     0.85600
   20          H           0.140860        0.8591     0.85914
   21          H           0.158146        0.8419     0.84185
 DIPOLE           X         Y         Z       TOTAL
 POINT-CHG.    -0.204     0.043    -0.148     0.256
 HYBRID        -0.145    -0.051     0.177     0.235
 SUM           -0.349    -0.008     0.029     0.350


          ATOMIC ORBITAL ELECTRON POPULATIONS

     Atom    s        px        py        pz   
    1  C   1.09383   0.99593   1.01882   1.04972
    2  C   1.09267   1.05578   1.01748   0.99167
    3  C   1.06028   0.99388   1.15377   1.07176
    4  C   1.05244   0.91371   1.04565   0.97105
    5  C   1.05836   1.02908   1.15003   1.03348
    6  C   1.06722   1.01781   1.00376   1.12124
    7  C   1.06681   1.05571   1.02544   1.11368
    8  C   1.06683   1.05561   1.03195   1.10723
    9  C   1.06724   1.01843   1.02872   1.09558
   10  H   0.85308
   11  H   0.85256
   12  H   0.84719
   13  H   0.84719
   14  H   0.84668
   15  H   0.84668
   16  H   0.84186
   17  H   0.85914
   18  H   0.85600
   19  H   0.85600
   20  H   0.85914
   21  H   0.84185

 **********************
 *                    *
 * JOB ENDED NORMALLY *
 *                    *
 **********************



 TOTAL JOB TIME:             1.06 SECONDS

 == MOPAC DONE ==
