 *******************************************************************************
 **                                                                           **
 **                              MOPAC v23.2                                  **
 **                                                                           **
 *******************************************************************************
 **          Digital Object Identifier (DOI): 10.5281/zenodo.6511958          **
 **    Visit the DOI location for information on how to cite this program.    **
 *******************************************************************************

                              PM7 CALCULATION RESULTS

 *******************************************************************************
 *  CALCULATION DONE: (MAX THREADS = 40)             Fri Sep 19 21:38:35 2025  *
 *  PM7        - The PM7 Hamiltonian to be used
 *  1SCF       - DO 1 SCF AND THEN STOP 
 *  T=         - A TIME OF 172800.0 SECONDS REQUESTED
 *  DUMP=N     - RESTART FILE WRITTEN EVERY 7200.0 SECONDS REQUESTED
 *  RELSCF     - DEFAULT SCF CRITERION MULTIPLIED BY 0.0001
 *              (DEFAULT SCF CRITERION = 0.00010)
 *  GRADIENTS  - ALL GRADIENTS TO BE PRINTED
 *  DISP       - PRINT DISPERSION AND HYDROGEN BOND ENERGIES
 *******************************************************************************
PM7 1SCF GRADIENTS DISP RELSCF=0.0001
 Title: ASE calculation

   ATOM   CHEMICAL          X               Y               Z
  NUMBER   SYMBOL      (ANGSTROMS)     (ANGSTROMS)     (ANGSTROMS)

     1       C          2.13431311  *  -1.26813773  *   0.33518087  *
     2       C          1.12177890  *  -1.09940575  *  -0.79637538  *
     3       C         -0.20031610  *  -0.44549448  *  -0.36139422  *
     4       C          0.03272373  *   0.92159247  *   0.29854100  *
     5       O         -1.21628414  *   1.59121219  *   0.18453157  *
     6       C         -0.95929427  *  -1.35037193  *   0.58395576  *
     7       C         -2.44719086  *  -1.41300314  *   0.54514631  *
     8       O         -1.64397781  *  -2.44426462  *  -0.03660150  *
     9       H          1.72597154  *  -1.86749985  *   1.15676785  *
    10       H          2.45300917  *  -0.30572728  *   0.74713867  *
    11       H          3.03530438  *  -1.78471568  *  -0.01927763  *
    12       H          0.89106311  *  -2.09230340  *  -1.23886368  *
    13       H          1.57323471  *  -0.50795420  *  -1.61615111  *
    14       H         -0.82422827  *  -0.27645465  *  -1.28219141  *
    15       H          0.31253156  *   0.83856835  *   1.36171212  *
    16       H          0.79191284  *   1.51407891  *  -0.24287900  *
    17       H         -1.22225474  *   2.39686496  *   0.73299624  *
    18       H         -0.42895261  *  -1.62397189  *   1.50072754  *
    19       H         -3.01691003  *  -1.70924836  *   1.42129975  *
    20       H         -3.01329254  *  -0.81213053  *  -0.16297465  *



          CARTESIAN COORDINATES 

    NO.       ATOM           X           Y           Z

     1         C          2.1343     -1.2681      0.3352
     2         C          1.1218     -1.0994     -0.7964
     3         C         -0.2003     -0.4455     -0.3614
     4         C          0.0327      0.9216      0.2985
     5         O         -1.2163      1.5912      0.1845
     6         C         -0.9593     -1.3504      0.5840
     7         C         -2.4472     -1.4130      0.5451
     8         O         -1.6440     -2.4443     -0.0366
     9         H          1.7260     -1.8675      1.1568
    10         H          2.4530     -0.3057      0.7471
    11         H          3.0353     -1.7847     -0.0193
    12         H          0.8911     -2.0923     -1.2389
    13         H          1.5732     -0.5080     -1.6162
    14         H         -0.8242     -0.2765     -1.2822
    15         H          0.3125      0.8386      1.3617
    16         H          0.7919      1.5141     -0.2429
    17         H         -1.2223      2.3969      0.7330
    18         H         -0.4290     -1.6240      1.5007
    19         H         -3.0169     -1.7092      1.4213
    20         H         -3.0133     -0.8121     -0.1630

 General Reference for PM7:
 "Optimization of Parameters for Semiempirical Methods VI: More Modifications to the 
 NDDO Approximations and Re-optimization of Parameters", J. J. P. Stewart, J. Mol. Mod., 1:32, 19 (2013)
 https://link.springer.com/article/10.1007/s00894-012-1667-x

           Empirical Formula: C6 H12 O2  =    20 atoms



      MOLECULAR POINT GROUP   :   C1  


      RHF CALCULATION, NO. OF DOUBLY OCCUPIED LEVELS = 24

  SCF CRITERION =    0.1000E-07

 -------------------------------------------------------------------------------
 PM7 1SCF GRADIENTS DISP RELSCF=0.0001
 Title: ASE calculation



     1SCF WAS SPECIFIED, SO BFGS WAS NOT USED                 
     SCF FIELD WAS ACHIEVED                                   


                              PM7 CALCULATION
                                                       MOPAC v23.2 Linux
                                                       Fri Sep 19 21:38:36 2025




          FINAL HEAT OF FORMATION =        -72.45024 KCAL/MOL =    -303.13182 KJ/MOL

          TOTAL ENERGY            =     -34329.07987 KCAL/MOL = ELECTRONIC ENERGY + CORE-CORE REPULSION
          ENERGY OF ATOMS         =      34258.49226 KCAL/MOL
                              SUM =        -70.58761 KCAL/MOL
          DISPERSION ENERGY       =         -1.86264 KCAL/MOL
                              SUM =        -72.45024 KCAL/MOL = FINAL HEAT OF FORMATION



          TOTAL ENERGY            =      -1488.64980 EV
          ELECTRONIC ENERGY       =      -6971.71114 EV 
          CORE-CORE REPULSION     =       5483.06134 EV
          COSMO AREA              =        159.32 SQUARE ANGSTROMS
          COSMO VOLUME            =        158.68 CUBIC ANGSTROMS

          GRADIENT NORM           =          1.25649          =       0.28096 PER ATOM
          IONIZATION POTENTIAL    =         10.244806 EV
          HOMO LUMO ENERGIES (EV) =        -10.245  2.402
          NO. OF FILLED LEVELS    =         24
          MOLECULAR WEIGHT        =        116.1596         POINT GROUP:  C1  

          MOLECULAR DIMENSIONS (Angstroms)

            Atom       Atom       Distance
            H    19    H    11     6.22176
            H    17    O     8     4.91697
            H     9    H    14     3.18880


          SCF CALCULATIONS        =          1

          WALL-CLOCK TIME         =      0.867 SECONDS
          COMPUTATION TIME        =      0.382 SECONDS

          LARGEST ATOMIC GRADIENTS

          Atom     Label                     Cartesian Gradients           Cartesian Coordinates       |Gradient|
                                           X          Y          Z        X          Y          Z

             3       C                   0.136      0.343     -0.222   -0.20032   -0.44549   -0.36139      0.430
             7       C                  -0.273     -0.319     -0.045   -2.44719   -1.41300    0.54515      0.423
            20       H                  -0.209     -0.309     -0.149   -3.01329   -0.81213   -0.16297      0.402
            19       H                  -0.031      0.017      0.342   -3.01691   -1.70925    1.42130      0.344
             5       O                  -0.230     -0.001     -0.239   -1.21628    1.59121    0.18453      0.332
             4       C                   0.061      0.309      0.044    0.03272    0.92159    0.29854      0.318
            15       H                   0.012      0.267      0.161    0.31253    0.83857    1.36171      0.312
            11       H                   0.201     -0.139      0.185    3.03530   -1.78472   -0.01928      0.307
            17       H                   0.108     -0.077      0.265   -1.22225    2.39686    0.73300      0.297
             6       C                   0.074      0.239     -0.156   -0.95929   -1.35037    0.58396      0.295



       FINAL  POINT  AND  DERIVATIVES

   PARAMETER     ATOM    TYPE            VALUE        GRADIENT
      1          1  C    CARTESIAN X     2.134313      0.143349  KCAL/ANGSTROM
      2          1  C    CARTESIAN Y    -1.268138     -0.121801  KCAL/ANGSTROM
      3          1  C    CARTESIAN Z     0.335181     -0.039285  KCAL/ANGSTROM
      4          2  C    CARTESIAN X     1.121779      0.116297  KCAL/ANGSTROM
      5          2  C    CARTESIAN Y    -1.099406     -0.076404  KCAL/ANGSTROM
      6          2  C    CARTESIAN Z    -0.796375      0.002712  KCAL/ANGSTROM
      7          3  C    CARTESIAN X    -0.200316      0.136447  KCAL/ANGSTROM
      8          3  C    CARTESIAN Y    -0.445494      0.342515  KCAL/ANGSTROM
      9          3  C    CARTESIAN Z    -0.361394     -0.221721  KCAL/ANGSTROM
     10          4  C    CARTESIAN X     0.032724      0.060622  KCAL/ANGSTROM
     11          4  C    CARTESIAN Y     0.921592      0.309263  KCAL/ANGSTROM
     12          4  C    CARTESIAN Z     0.298541      0.044182  KCAL/ANGSTROM
     13          5  O    CARTESIAN X    -1.216284     -0.230211  KCAL/ANGSTROM
     14          5  O    CARTESIAN Y     1.591212     -0.000757  KCAL/ANGSTROM
     15          5  O    CARTESIAN Z     0.184532     -0.238785  KCAL/ANGSTROM
     16          6  C    CARTESIAN X    -0.959294      0.074370  KCAL/ANGSTROM
     17          6  C    CARTESIAN Y    -1.350372      0.238537  KCAL/ANGSTROM
     18          6  C    CARTESIAN Z     0.583956     -0.156205  KCAL/ANGSTROM
     19          7  C    CARTESIAN X    -2.447191     -0.272955  KCAL/ANGSTROM
     20          7  C    CARTESIAN Y    -1.413003     -0.319339  KCAL/ANGSTROM
     21          7  C    CARTESIAN Z     0.545146     -0.045390  KCAL/ANGSTROM
     22          8  O    CARTESIAN X    -1.643978     -0.099473  KCAL/ANGSTROM
     23          8  O    CARTESIAN Y    -2.444265     -0.098917  KCAL/ANGSTROM
     24          8  O    CARTESIAN Z    -0.036601      0.042473  KCAL/ANGSTROM
     25          9  H    CARTESIAN X     1.725972     -0.091338  KCAL/ANGSTROM
     26          9  H    CARTESIAN Y    -1.867500     -0.029286  KCAL/ANGSTROM
     27          9  H    CARTESIAN Z     1.156768     -0.134291  KCAL/ANGSTROM
     28         10  H    CARTESIAN X     2.453009      0.112081  KCAL/ANGSTROM
     29         10  H    CARTESIAN Y    -0.305727     -0.072184  KCAL/ANGSTROM
     30         10  H    CARTESIAN Z     0.747139     -0.104816  KCAL/ANGSTROM
     31         11  H    CARTESIAN X     3.035304      0.201167  KCAL/ANGSTROM
     32         11  H    CARTESIAN Y    -1.784716     -0.138775  KCAL/ANGSTROM
     33         11  H    CARTESIAN Z    -0.019278      0.185458  KCAL/ANGSTROM
     34         12  H    CARTESIAN X     0.891063     -0.090148  KCAL/ANGSTROM
     35         12  H    CARTESIAN Y    -2.092303      0.062571  KCAL/ANGSTROM
     36         12  H    CARTESIAN Z    -1.238864     -0.161451  KCAL/ANGSTROM
     37         13  H    CARTESIAN X     1.573235      0.015532  KCAL/ANGSTROM
     38         13  H    CARTESIAN Y    -0.507954     -0.207749  KCAL/ANGSTROM
     39         13  H    CARTESIAN Z    -1.616151      0.133811  KCAL/ANGSTROM
     40         14  H    CARTESIAN X    -0.824228     -0.066338  KCAL/ANGSTROM
     41         14  H    CARTESIAN Y    -0.276455      0.006235  KCAL/ANGSTROM
     42         14  H    CARTESIAN Z    -1.282191     -0.191445  KCAL/ANGSTROM
     43         15  H    CARTESIAN X     0.312532      0.012378  KCAL/ANGSTROM
     44         15  H    CARTESIAN Y     0.838568      0.267473  KCAL/ANGSTROM
     45         15  H    CARTESIAN Z     1.361712      0.160559  KCAL/ANGSTROM
     46         16  H    CARTESIAN X     0.791913      0.140180  KCAL/ANGSTROM
     47         16  H    CARTESIAN Y     1.514079      0.158364  KCAL/ANGSTROM
     48         16  H    CARTESIAN Z    -0.242879      0.128285  KCAL/ANGSTROM
     49         17  H    CARTESIAN X    -1.222255      0.107537  KCAL/ANGSTROM
     50         17  H    CARTESIAN Y     2.396865     -0.076967  KCAL/ANGSTROM
     51         17  H    CARTESIAN Z     0.732996      0.265448  KCAL/ANGSTROM
     52         18  H    CARTESIAN X    -0.428953     -0.029445  KCAL/ANGSTROM
     53         18  H    CARTESIAN Y    -1.623972      0.049247  KCAL/ANGSTROM
     54         18  H    CARTESIAN Z     1.500728      0.137240  KCAL/ANGSTROM
     55         19  H    CARTESIAN X    -3.016910     -0.030977  KCAL/ANGSTROM
     56         19  H    CARTESIAN Y    -1.709248      0.017242  KCAL/ANGSTROM
     57         19  H    CARTESIAN Z     1.421300      0.342151  KCAL/ANGSTROM
     58         20  H    CARTESIAN X    -3.013293     -0.209074  KCAL/ANGSTROM
     59         20  H    CARTESIAN Y    -0.812131     -0.309268  KCAL/ANGSTROM
     60         20  H    CARTESIAN Z    -0.162975     -0.148932  KCAL/ANGSTROM




   ATOM   CHEMICAL          X               Y               Z
  NUMBER   SYMBOL      (ANGSTROMS)     (ANGSTROMS)     (ANGSTROMS)

     1       C          2.13431311  *  -1.26813773  *   0.33518087  *
     2       C          1.12177890  *  -1.09940575  *  -0.79637538  *
     3       C         -0.20031610  *  -0.44549448  *  -0.36139422  *
     4       C          0.03272373  *   0.92159247  *   0.29854100  *
     5       O         -1.21628414  *   1.59121219  *   0.18453157  *
     6       C         -0.95929427  *  -1.35037193  *   0.58395576  *
     7       C         -2.44719086  *  -1.41300314  *   0.54514631  *
     8       O         -1.64397781  *  -2.44426462  *  -0.03660150  *
     9       H          1.72597154  *  -1.86749985  *   1.15676785  *
    10       H          2.45300917  *  -0.30572728  *   0.74713867  *
    11       H          3.03530438  *  -1.78471568  *  -0.01927763  *
    12       H          0.89106311  *  -2.09230340  *  -1.23886368  *
    13       H          1.57323471  *  -0.50795420  *  -1.61615111  *
    14       H         -0.82422827  *  -0.27645465  *  -1.28219141  *
    15       H          0.31253156  *   0.83856835  *   1.36171212  *
    16       H          0.79191284  *   1.51407891  *  -0.24287900  *
    17       H         -1.22225474  *   2.39686496  *   0.73299624  *
    18       H         -0.42895261  *  -1.62397189  *   1.50072754  *
    19       H         -3.01691003  *  -1.70924836  *   1.42129975  *
    20       H         -3.01329254  *  -0.81213053  *  -0.16297465  *

                             CARTESIAN COORDINATES

   1    C        2.134313108    -1.268137726     0.335180865
   2    C        1.121778899    -1.099405753    -0.796375384
   3    C       -0.200316104    -0.445494485    -0.361394224
   4    C        0.032723728     0.921592471     0.298541000
   5    O       -1.216284139     1.591212186     0.184531568
   6    C       -0.959294269    -1.350371929     0.583955760
   7    C       -2.447190861    -1.413003139     0.545146309
   8    O       -1.643977806    -2.444264618    -0.036601498
   9    H        1.725971542    -1.867499852     1.156767854
  10    H        2.453009169    -0.305727283     0.747138674
  11    H        3.035304381    -1.784715677    -0.019277631
  12    H        0.891063115    -2.092303404    -1.238863677
  13    H        1.573234710    -0.507954198    -1.616151113
  14    H       -0.824228268    -0.276454652    -1.282191406
  15    H        0.312531564     0.838568352     1.361712115
  16    H        0.791912839     1.514078914    -0.242879004
  17    H       -1.222254736     2.396864964     0.732996240
  18    H       -0.428952608    -1.623971886     1.500727541
  19    H       -3.016910032    -1.709248355     1.421299745
  20    H       -3.013292542    -0.812130534    -0.162974648


           Empirical Formula: C6 H12 O2  =    20 atoms



      MOLECULAR POINT GROUP   :   C1  


                  EIGENVALUES  
 -31.72230 -29.76353 -28.49431 -25.33387 -23.46663 -22.54079 -21.37285 -19.19710
 -17.51956 -16.73899 -16.40453 -15.44557 -14.74418 -14.63514 -14.17007 -13.58293
 -13.27505 -12.82256 -12.38951 -11.77944 -11.57415 -11.17428 -10.75866 -10.24481
   2.40213   2.64311   2.74514   3.69311   3.96949   4.08552   4.38547   4.60887
   5.34744   5.37817   5.47338   5.61468   5.68075   5.77538   5.87405   5.92569
   6.04204   6.20048   6.48062   6.85300


              NET ATOMIC CHARGES AND DIPOLE CONTRIBUTIONS

  ATOM NO.   TYPE          CHARGE      No. of ELECS.   s-Pop       p-Pop       
    1          C          -0.438685        4.4387     1.05137     3.38731
    2          C          -0.260618        4.2606     1.05754     3.20307
    3          C          -0.153043        4.1530     1.06674     3.08630
    4          C          -0.003400        4.0034     1.08776     2.91564
    5          O          -0.555759        6.5558     1.85020     4.70556
    6          C           0.014454        3.9855     1.08587     2.89968
    7          C          -0.140608        4.1406     1.08903     3.05158
    8          O          -0.350401        6.3504     1.92159     4.42881
    9          H           0.145527        0.8545     0.85447
   10          H           0.138209        0.8618     0.86179
   11          H           0.146071        0.8539     0.85393
   12          H           0.154485        0.8455     0.84552
   13          H           0.138516        0.8615     0.86148
   14          H           0.172623        0.8274     0.82738
   15          H           0.112824        0.8872     0.88718
   16          H           0.119303        0.8807     0.88070
   17          H           0.310549        0.6895     0.68945
   18          H           0.146233        0.8538     0.85377
   19          H           0.145505        0.8545     0.85450
   20          H           0.158215        0.8418     0.84179
 DIPOLE           X         Y         Z       TOTAL
 POINT-CHG.     1.934     2.152     1.642     3.327
 HYBRID        -0.169    -0.159    -0.042     0.236
 SUM            1.765     1.993     1.600     3.106


          ATOMIC ORBITAL ELECTRON POPULATIONS

     Atom    s        px        py        pz   
    1  C   1.05137   1.11293   1.16845   1.10593
    2  C   1.05754   0.99775   1.14670   1.05863
    3  C   1.06674   1.03217   0.97261   1.08152
    4  C   1.08776   0.85588   0.96332   1.09644
    5  O   1.85020   1.43119   1.51048   1.76388
    6  C   1.08587   0.95945   0.91716   1.02306
    7  C   1.08903   0.98056   0.97479   1.09623
    8  O   1.92159   1.33981   1.31962   1.76939
    9  H   0.85447
   10  H   0.86179
   11  H   0.85393
   12  H   0.84552
   13  H   0.86148
   14  H   0.82738
   15  H   0.88718
   16  H   0.88070
   17  H   0.68945
   18  H   0.85377
   19  H   0.85450
   20  H   0.84179

 **********************
 *                    *
 * JOB ENDED NORMALLY *
 *                    *
 **********************



 TOTAL JOB TIME:             1.35 SECONDS

 == MOPAC DONE ==
