 *******************************************************************************
 **                                                                           **
 **                              MOPAC v23.2                                  **
 **                                                                           **
 *******************************************************************************
 **          Digital Object Identifier (DOI): 10.5281/zenodo.6511958          **
 **    Visit the DOI location for information on how to cite this program.    **
 *******************************************************************************

                              PM7 CALCULATION RESULTS

 *******************************************************************************
 *  CALCULATION DONE: (MAX THREADS = 40)             Fri Sep 19 21:48:01 2025  *
 *  PM7        - The PM7 Hamiltonian to be used
 *  1SCF       - DO 1 SCF AND THEN STOP 
 *  T=         - A TIME OF 172800.0 SECONDS REQUESTED
 *  DUMP=N     - RESTART FILE WRITTEN EVERY 7200.0 SECONDS REQUESTED
 *  RELSCF     - DEFAULT SCF CRITERION MULTIPLIED BY 0.0001
 *              (DEFAULT SCF CRITERION = 0.00010)
 *  GRADIENTS  - ALL GRADIENTS TO BE PRINTED
 *  DISP       - PRINT DISPERSION AND HYDROGEN BOND ENERGIES
 *******************************************************************************
PM7 1SCF GRADIENTS DISP RELSCF=0.0001
 Title: ASE calculation

   ATOM   CHEMICAL          X               Y               Z
  NUMBER   SYMBOL      (ANGSTROMS)     (ANGSTROMS)     (ANGSTROMS)

     1       C          1.92994347  *   0.33839230  *  -1.06660391  *
     2       N          2.84018491  *   0.72571481  *  -0.05654397  *
     3       N          2.27746846  *   0.81333774  *   1.10741331  *
     4       N          0.98613955  *   0.49739643  *   0.93233146  *
     5       C          0.71677575  *   0.19100344  *  -0.43254904  *
     6       C         -0.71282033  *  -0.06662055  *  -0.11367447  *
     7       C         -1.95116193  *   0.06126822  *  -0.89544631  *
     8       O         -1.41984784  *  -1.21822432  *  -0.49459193  *
     9       C         -0.40529377  *   0.25621199  *   1.40735001  *
    10       H          2.25139355  *   0.21561800  *  -2.08045942  *
    11       H         -2.89264562  *   0.34232296  *  -0.42714101  *
    12       H         -1.91983186  *   0.25957384  *  -1.96705495  *
    13       H         -0.49706270  *  -0.60278698  *   2.09091078  *
    14       H         -0.89260447  *   1.15007726  *   1.82010275  *



          CARTESIAN COORDINATES 

    NO.       ATOM           X           Y           Z

     1         C          1.9299      0.3384     -1.0666
     2         N          2.8402      0.7257     -0.0565
     3         N          2.2775      0.8133      1.1074
     4         N          0.9861      0.4974      0.9323
     5         C          0.7168      0.1910     -0.4325
     6         C         -0.7128     -0.0666     -0.1137
     7         C         -1.9512      0.0613     -0.8954
     8         O         -1.4198     -1.2182     -0.4946
     9         C         -0.4053      0.2562      1.4074
    10         H          2.2514      0.2156     -2.0805
    11         H         -2.8926      0.3423     -0.4271
    12         H         -1.9198      0.2596     -1.9671
    13         H         -0.4971     -0.6028      2.0909
    14         H         -0.8926      1.1501      1.8201

 General Reference for PM7:
 "Optimization of Parameters for Semiempirical Methods VI: More Modifications to the 
 NDDO Approximations and Re-optimization of Parameters", J. J. P. Stewart, J. Mol. Mod., 1:32, 19 (2013)
 https://link.springer.com/article/10.1007/s00894-012-1667-x

           Empirical Formula: C5 H5 N3 O  =    14 atoms



      MOLECULAR POINT GROUP   :   C1  


      RHF CALCULATION, NO. OF DOUBLY OCCUPIED LEVELS = 23

  SCF CRITERION =    0.1000E-07

 -------------------------------------------------------------------------------
 PM7 1SCF GRADIENTS DISP RELSCF=0.0001
 Title: ASE calculation



     1SCF WAS SPECIFIED, SO BFGS WAS NOT USED                 
     SCF FIELD WAS ACHIEVED                                   


                              PM7 CALCULATION
                                                       MOPAC v23.2 Linux
                                                       Fri Sep 19 21:48:02 2025




          FINAL HEAT OF FORMATION =        109.39941 KCAL/MOL =     457.72714 KJ/MOL

          TOTAL ENERGY            =     -35296.60975 KCAL/MOL = ELECTRONIC ENERGY + CORE-CORE REPULSION
          ENERGY OF ATOMS         =      35407.34440 KCAL/MOL
                              SUM =        110.73465 KCAL/MOL
          DISPERSION ENERGY       =         -1.33524 KCAL/MOL
                              SUM =        109.39941 KCAL/MOL = FINAL HEAT OF FORMATION



          TOTAL ENERGY            =      -1530.60586 EV
          ELECTRONIC ENERGY       =      -6729.03979 EV 
          CORE-CORE REPULSION     =       5198.43392 EV
          COSMO AREA              =        147.35 SQUARE ANGSTROMS
          COSMO VOLUME            =        138.78 CUBIC ANGSTROMS

          GRADIENT NORM           =          0.81740          =       0.21846 PER ATOM
          IONIZATION POTENTIAL    =         10.554345 EV
          HOMO LUMO ENERGIES (EV) =        -10.554 -0.251
          NO. OF FILLED LEVELS    =         23
          MOLECULAR WEIGHT        =        123.1140         POINT GROUP:  C1  

          MOLECULAR DIMENSIONS (Angstroms)

            Atom       Atom       Distance
            H    11    N     2     5.75758
            H    10    H    13     4.38867
            H    14    O     8     2.63040


          SCF CALCULATIONS        =          1

          WALL-CLOCK TIME         =      1.055 SECONDS
          COMPUTATION TIME        =      0.435 SECONDS

          LARGEST ATOMIC GRADIENTS

          Atom     Label                     Cartesian Gradients           Cartesian Coordinates       |Gradient|
                                           X          Y          Z        X          Y          Z

             2       N                  -0.240      0.114      0.327    2.84018    0.72571   -0.05654      0.421
             5       C                   0.039      0.127     -0.266    0.71678    0.19100   -0.43255      0.297
            10       H                  -0.117     -0.214     -0.051    2.25139    0.21562   -2.08046      0.249
             3       N                  -0.048      0.196     -0.139    2.27747    0.81334    1.10741      0.245
             8       O                  -0.127      0.202     -0.018   -1.41985   -1.21822   -0.49459      0.240
            11       H                   0.082      0.057     -0.181   -2.89265    0.34232   -0.42714      0.207
            14       H                   0.119     -0.118      0.114   -0.89260    1.15008    1.82010      0.202
             7       C                   0.189      0.037      0.046   -1.95116    0.06127   -0.89545      0.198
             6       C                   0.043     -0.126     -0.121   -0.71282   -0.06662   -0.11367      0.180
             4       N                   0.113     -0.076      0.061    0.98614    0.49740    0.93233      0.149



       FINAL  POINT  AND  DERIVATIVES

   PARAMETER     ATOM    TYPE            VALUE        GRADIENT
      1          1  C    CARTESIAN X     1.929943     -0.077212  KCAL/ANGSTROM
      2          1  C    CARTESIAN Y     0.338392     -0.036510  KCAL/ANGSTROM
      3          1  C    CARTESIAN Z    -1.066604      0.006157  KCAL/ANGSTROM
      4          2  N    CARTESIAN X     2.840185     -0.240341  KCAL/ANGSTROM
      5          2  N    CARTESIAN Y     0.725715      0.114210  KCAL/ANGSTROM
      6          2  N    CARTESIAN Z    -0.056544      0.326537  KCAL/ANGSTROM
      7          3  N    CARTESIAN X     2.277468     -0.048113  KCAL/ANGSTROM
      8          3  N    CARTESIAN Y     0.813338      0.196298  KCAL/ANGSTROM
      9          3  N    CARTESIAN Z     1.107413     -0.138903  KCAL/ANGSTROM
     10          4  N    CARTESIAN X     0.986140      0.112863  KCAL/ANGSTROM
     11          4  N    CARTESIAN Y     0.497396     -0.076455  KCAL/ANGSTROM
     12          4  N    CARTESIAN Z     0.932331      0.060622  KCAL/ANGSTROM
     13          5  C    CARTESIAN X     0.716776      0.038681  KCAL/ANGSTROM
     14          5  C    CARTESIAN Y     0.191003      0.126707  KCAL/ANGSTROM
     15          5  C    CARTESIAN Z    -0.432549     -0.266065  KCAL/ANGSTROM
     16          6  C    CARTESIAN X    -0.712820      0.042898  KCAL/ANGSTROM
     17          6  C    CARTESIAN Y    -0.066621     -0.125951  KCAL/ANGSTROM
     18          6  C    CARTESIAN Z    -0.113674     -0.121351  KCAL/ANGSTROM
     19          7  C    CARTESIAN X    -1.951162      0.189381  KCAL/ANGSTROM
     20          7  C    CARTESIAN Y     0.061268      0.037333  KCAL/ANGSTROM
     21          7  C    CARTESIAN Z    -0.895446      0.046223  KCAL/ANGSTROM
     22          8  O    CARTESIAN X    -1.419848     -0.127435  KCAL/ANGSTROM
     23          8  O    CARTESIAN Y    -1.218224      0.202126  KCAL/ANGSTROM
     24          8  O    CARTESIAN Z    -0.494592     -0.018103  KCAL/ANGSTROM
     25          9  C    CARTESIAN X    -0.405294      0.029800  KCAL/ANGSTROM
     26          9  C    CARTESIAN Y     0.256212     -0.041905  KCAL/ANGSTROM
     27          9  C    CARTESIAN Z     1.407350      0.080091  KCAL/ANGSTROM
     28         10  H    CARTESIAN X     2.251394     -0.117351  KCAL/ANGSTROM
     29         10  H    CARTESIAN Y     0.215618     -0.214095  KCAL/ANGSTROM
     30         10  H    CARTESIAN Z    -2.080459     -0.051072  KCAL/ANGSTROM
     31         11  H    CARTESIAN X    -2.892646      0.082341  KCAL/ANGSTROM
     32         11  H    CARTESIAN Y     0.342323      0.056783  KCAL/ANGSTROM
     33         11  H    CARTESIAN Z    -0.427141     -0.181400  KCAL/ANGSTROM
     34         12  H    CARTESIAN X    -1.919832     -0.072908  KCAL/ANGSTROM
     35         12  H    CARTESIAN Y     0.259574     -0.076045  KCAL/ANGSTROM
     36         12  H    CARTESIAN Z    -1.967055      0.063444  KCAL/ANGSTROM
     37         13  H    CARTESIAN X    -0.497063      0.068799  KCAL/ANGSTROM
     38         13  H    CARTESIAN Y    -0.602787     -0.044375  KCAL/ANGSTROM
     39         13  H    CARTESIAN Z     2.090911      0.079961  KCAL/ANGSTROM
     40         14  H    CARTESIAN X    -0.892604      0.118595  KCAL/ANGSTROM
     41         14  H    CARTESIAN Y     1.150077     -0.118124  KCAL/ANGSTROM
     42         14  H    CARTESIAN Z     1.820103      0.113856  KCAL/ANGSTROM




   ATOM   CHEMICAL          X               Y               Z
  NUMBER   SYMBOL      (ANGSTROMS)     (ANGSTROMS)     (ANGSTROMS)

     1       C          1.92994347  *   0.33839230  *  -1.06660391  *
     2       N          2.84018491  *   0.72571481  *  -0.05654397  *
     3       N          2.27746846  *   0.81333774  *   1.10741331  *
     4       N          0.98613955  *   0.49739643  *   0.93233146  *
     5       C          0.71677575  *   0.19100344  *  -0.43254904  *
     6       C         -0.71282033  *  -0.06662055  *  -0.11367447  *
     7       C         -1.95116193  *   0.06126822  *  -0.89544631  *
     8       O         -1.41984784  *  -1.21822432  *  -0.49459193  *
     9       C         -0.40529377  *   0.25621199  *   1.40735001  *
    10       H          2.25139355  *   0.21561800  *  -2.08045942  *
    11       H         -2.89264562  *   0.34232296  *  -0.42714101  *
    12       H         -1.91983186  *   0.25957384  *  -1.96705495  *
    13       H         -0.49706270  *  -0.60278698  *   2.09091078  *
    14       H         -0.89260447  *   1.15007726  *   1.82010275  *

                             CARTESIAN COORDINATES

   1    C        1.929943472     0.338392304    -1.066603912
   2    N        2.840184906     0.725714808    -0.056543973
   3    N        2.277468461     0.813337738     1.107413311
   4    N        0.986139549     0.497396431     0.932331462
   5    C        0.716775753     0.191003439    -0.432549036
   6    C       -0.712820327    -0.066620553    -0.113674473
   7    C       -1.951161930     0.061268223    -0.895446306
   8    O       -1.419847839    -1.218224320    -0.494591930
   9    C       -0.405293772     0.256211986     1.407350015
  10    H        2.251393552     0.215617995    -2.080459416
  11    H       -2.892645618     0.342322957    -0.427141008
  12    H       -1.919831855     0.259573844    -1.967054945
  13    H       -0.497062698    -0.602786976     2.090910785
  14    H       -0.892604471     1.150077263     1.820102748


           Empirical Formula: C5 H5 N3 O  =    14 atoms



      MOLECULAR POINT GROUP   :   C1  


                  EIGENVALUES  
 -42.00894 -35.36352 -32.76705 -29.32175 -26.25061 -24.70283 -23.25561 -21.75892
 -19.67514 -18.40972 -17.66146 -17.25112 -16.44365 -15.28960 -14.91363 -14.67042
 -13.78212 -13.20085 -12.34871 -11.94896 -11.31289 -10.84293 -10.55435  -0.25051
   0.06902   0.64310   1.22488   1.63779   1.79309   2.04427   2.68238   3.10250
   3.36619   4.03930   4.33723   4.46001   4.61447   4.69497   4.92608   5.46877
   5.81361


              NET ATOMIC CHARGES AND DIPOLE CONTRIBUTIONS

  ATOM NO.   TYPE          CHARGE      No. of ELECS.   s-Pop       p-Pop       
    1          C          -0.070917        4.0709     1.09603     2.97489
    2          N          -0.223540        5.2235     1.77778     3.44576
    3          N           0.050536        4.9495     1.79938     3.15008
    4          N          -0.249046        5.2490     1.59309     3.65596
    5          C          -0.057387        4.0574     1.10422     2.95316
    6          C           0.131373        3.8686     1.06771     2.80092
    7          C          -0.133725        4.1337     1.09159     3.04213
    8          O          -0.280933        6.2809     1.92287     4.35806
    9          C          -0.043863        4.0439     1.10350     2.94037
   10          H           0.199419        0.8006     0.80058
   11          H           0.164761        0.8352     0.83524
   12          H           0.170245        0.8298     0.82976
   13          H           0.176096        0.8239     0.82390
   14          H           0.166981        0.8330     0.83302
 DIPOLE           X         Y         Z       TOTAL
 POINT-CHG.    -4.565     1.266    -0.140     4.740
 HYBRID        -0.654    -0.789    -0.221     1.049
 SUM           -5.220     0.477    -0.361     5.254


          ATOMIC ORBITAL ELECTRON POPULATIONS

     Atom    s        px        py        pz   
    1  C   1.09603   0.89940   1.04550   1.02998
    2  N   1.77778   1.27449   1.19832   0.97295
    3  N   1.79938   0.84959   1.13273   1.16776
    4  N   1.59309   1.07633   1.43964   1.13998
    5  C   1.10422   0.97290   1.10532   0.87494
    6  C   1.06771   0.91101   0.94257   0.94734
    7  C   1.09159   1.03175   0.89507   1.11531
    8  O   1.92287   1.49089   1.09453   1.77264
    9  C   1.10350   0.76608   1.14374   1.03055
   10  H   0.80058
   11  H   0.83524
   12  H   0.82976
   13  H   0.82390
   14  H   0.83302

 **********************
 *                    *
 * JOB ENDED NORMALLY *
 *                    *
 **********************



 TOTAL JOB TIME:             1.62 SECONDS

 == MOPAC DONE ==
