 *******************************************************************************
 **                                                                           **
 **                              MOPAC v23.2                                  **
 **                                                                           **
 *******************************************************************************
 **          Digital Object Identifier (DOI): 10.5281/zenodo.6511958          **
 **    Visit the DOI location for information on how to cite this program.    **
 *******************************************************************************

                              PM7 CALCULATION RESULTS

 *******************************************************************************
 *  CALCULATION DONE: (MAX THREADS = 40)             Fri Sep 19 21:30:13 2025  *
 *  PM7        - The PM7 Hamiltonian to be used
 *  1SCF       - DO 1 SCF AND THEN STOP 
 *  T=         - A TIME OF 172800.0 SECONDS REQUESTED
 *  DUMP=N     - RESTART FILE WRITTEN EVERY 7200.0 SECONDS REQUESTED
 *  RELSCF     - DEFAULT SCF CRITERION MULTIPLIED BY 0.0001
 *              (DEFAULT SCF CRITERION = 0.00010)
 *  GRADIENTS  - ALL GRADIENTS TO BE PRINTED
 *  DISP       - PRINT DISPERSION AND HYDROGEN BOND ENERGIES
 *******************************************************************************
PM7 1SCF GRADIENTS DISP RELSCF=0.0001
 Title: ASE calculation

   ATOM   CHEMICAL          X               Y               Z
  NUMBER   SYMBOL      (ANGSTROMS)     (ANGSTROMS)     (ANGSTROMS)

     1       C         -2.93781548  *  -0.68959113  *   0.18561377  *
     2       C         -1.47877415  *  -1.08862363  *   0.43515793  *
     3       N         -0.67247459  *  -0.60805910  *  -0.69065645  *
     4       C         -0.01321746  *   0.71051837  *  -0.65852503  *
     5       C         -0.11983025  *   1.67209489  *   0.49317723  *
     6       C          0.80367223  *  -0.57512184  *  -0.57405858  *
     7       C          1.51207468  *  -0.95786323  *   0.68053507  *
     8       C          2.86508127  *  -1.57984716  *   0.61521971  *
     9       O          1.69962187  *  -2.36629868  *   0.86845905  *
    10       H         -3.05652038  *   0.39857264  *   0.15113137  *
    11       H         -3.28693667  *  -1.08177691  *  -0.77984700  *
    12       H         -3.59181347  *  -1.08278688  *   0.96941630  *
    13       H         -1.37913424  *  -2.20112721  *   0.44793780  *
    14       H         -1.14543840  *  -0.73113157  *   1.43078928  *
    15       H         -0.05174947  *   1.22284754  *  -1.63733577  *
    16       H         -0.05087402  *   1.19222510  *   1.47589306  *
    17       H         -1.08290284  *   2.20278559  *   0.46636382  *
    18       H          0.67605418  *   2.42850775  *   0.44515544  *
    19       H          1.30438017  *  -0.94354198  *  -1.48674618  *
    20       H          1.20907205  *  -0.43217401  *   1.59254188  *
    21       H          3.35242270  *  -1.77166685  *  -0.33702290  *
    22       H          3.55672793  *  -1.49651998  *   1.44978727  *



          CARTESIAN COORDINATES 

    NO.       ATOM           X           Y           Z

     1         C         -2.9378     -0.6896      0.1856
     2         C         -1.4788     -1.0886      0.4352
     3         N         -0.6725     -0.6081     -0.6907
     4         C         -0.0132      0.7105     -0.6585
     5         C         -0.1198      1.6721      0.4932
     6         C          0.8037     -0.5751     -0.5741
     7         C          1.5121     -0.9579      0.6805
     8         C          2.8651     -1.5798      0.6152
     9         O          1.6996     -2.3663      0.8685
    10         H         -3.0565      0.3986      0.1511
    11         H         -3.2869     -1.0818     -0.7798
    12         H         -3.5918     -1.0828      0.9694
    13         H         -1.3791     -2.2011      0.4479
    14         H         -1.1454     -0.7311      1.4308
    15         H         -0.0517      1.2228     -1.6373
    16         H         -0.0509      1.1922      1.4759
    17         H         -1.0829      2.2028      0.4664
    18         H          0.6761      2.4285      0.4452
    19         H          1.3044     -0.9435     -1.4867
    20         H          1.2091     -0.4322      1.5925
    21         H          3.3524     -1.7717     -0.3370
    22         H          3.5567     -1.4965      1.4498

 General Reference for PM7:
 "Optimization of Parameters for Semiempirical Methods VI: More Modifications to the 
 NDDO Approximations and Re-optimization of Parameters", J. J. P. Stewart, J. Mol. Mod., 1:32, 19 (2013)
 https://link.springer.com/article/10.1007/s00894-012-1667-x

           Empirical Formula: C7 H13 N O  =    22 atoms



      MOLECULAR POINT GROUP   :   C1  


      RHF CALCULATION, NO. OF DOUBLY OCCUPIED LEVELS = 26

  SCF CRITERION =    0.1000E-07

 -------------------------------------------------------------------------------
 PM7 1SCF GRADIENTS DISP RELSCF=0.0001
 Title: ASE calculation



     1SCF WAS SPECIFIED, SO BFGS WAS NOT USED                 
     SCF FIELD WAS ACHIEVED                                   


                              PM7 CALCULATION
                                                       MOPAC v23.2 Linux
                                                       Fri Sep 19 21:30:14 2025




          FINAL HEAT OF FORMATION =          9.61727 KCAL/MOL =      40.23865 KJ/MOL

          TOTAL ENERGY            =     -34926.77426 KCAL/MOL = ELECTRONIC ENERGY + CORE-CORE REPULSION
          ENERGY OF ATOMS         =      34938.70333 KCAL/MOL
                              SUM =         11.92906 KCAL/MOL
          DISPERSION ENERGY       =         -2.31180 KCAL/MOL
                              SUM =          9.61727 KCAL/MOL = FINAL HEAT OF FORMATION



          TOTAL ENERGY            =      -1514.56828 EV
          ELECTRONIC ENERGY       =      -7784.45293 EV 
          CORE-CORE REPULSION     =       6269.88465 EV
          COSMO AREA              =        175.43 SQUARE ANGSTROMS
          COSMO VOLUME            =        176.58 CUBIC ANGSTROMS

          GRADIENT NORM           =          1.01819          =       0.21708 PER ATOM
          IONIZATION POTENTIAL    =          9.461054 EV
          HOMO LUMO ENERGIES (EV) =         -9.461  1.720
          NO. OF FILLED LEVELS    =         26
          MOLECULAR WEIGHT        =        127.1858         POINT GROUP:  C1  

          MOLECULAR DIMENSIONS (Angstroms)

            Atom       Atom       Distance
            H    22    H    11     7.20965
            H    18    H    13     4.77730
            H    19    H    12     3.76881


          SCF CALCULATIONS        =          1

          WALL-CLOCK TIME         =      0.930 SECONDS
          COMPUTATION TIME        =      0.761 SECONDS

          LARGEST ATOMIC GRADIENTS

          Atom     Label                     Cartesian Gradients           Cartesian Coordinates       |Gradient|
                                           X          Y          Z        X          Y          Z

             6       C                   0.097      0.349      0.053    0.80367   -0.57512   -0.57406      0.366
            16       H                   0.268      0.060     -0.149   -0.05087    1.19223    1.47589      0.313
             4       C                  -0.309     -0.019      0.036   -0.01322    0.71052   -0.65853      0.311
            21       H                  -0.067     -0.052      0.289    3.35242   -1.77167   -0.33702      0.301
            17       H                   0.103     -0.231      0.134   -1.08290    2.20279    0.46636      0.286
            14       H                   0.091     -0.243      0.088   -1.14544   -0.73113    1.43079      0.274
            13       H                   0.159      0.143     -0.143   -1.37913   -2.20113    0.44794      0.257
             2       C                  -0.214      0.089     -0.006   -1.47877   -1.08862    0.43516      0.232
             7       C                   0.134      0.158     -0.080    1.51207   -0.95786    0.68054      0.222
            11       H                  -0.005     -0.214     -0.007   -3.28694   -1.08178   -0.77985      0.214



       FINAL  POINT  AND  DERIVATIVES

   PARAMETER     ATOM    TYPE            VALUE        GRADIENT
      1          1  C    CARTESIAN X    -2.937815     -0.179630  KCAL/ANGSTROM
      2          1  C    CARTESIAN Y    -0.689591      0.041559  KCAL/ANGSTROM
      3          1  C    CARTESIAN Z     0.185614     -0.102844  KCAL/ANGSTROM
      4          2  C    CARTESIAN X    -1.478774     -0.213938  KCAL/ANGSTROM
      5          2  C    CARTESIAN Y    -1.088624      0.088686  KCAL/ANGSTROM
      6          2  C    CARTESIAN Z     0.435158     -0.006143  KCAL/ANGSTROM
      7          3  N    CARTESIAN X    -0.672475     -0.084349  KCAL/ANGSTROM
      8          3  N    CARTESIAN Y    -0.608059     -0.004808  KCAL/ANGSTROM
      9          3  N    CARTESIAN Z    -0.690656      0.028383  KCAL/ANGSTROM
     10          4  C    CARTESIAN X    -0.013217     -0.308757  KCAL/ANGSTROM
     11          4  C    CARTESIAN Y     0.710518     -0.019379  KCAL/ANGSTROM
     12          4  C    CARTESIAN Z    -0.658525      0.035769  KCAL/ANGSTROM
     13          5  C    CARTESIAN X    -0.119830      0.076533  KCAL/ANGSTROM
     14          5  C    CARTESIAN Y     1.672095      0.035946  KCAL/ANGSTROM
     15          5  C    CARTESIAN Z     0.493177     -0.014668  KCAL/ANGSTROM
     16          6  C    CARTESIAN X     0.803672      0.097276  KCAL/ANGSTROM
     17          6  C    CARTESIAN Y    -0.575122      0.348573  KCAL/ANGSTROM
     18          6  C    CARTESIAN Z    -0.574059      0.052995  KCAL/ANGSTROM
     19          7  C    CARTESIAN X     1.512075      0.134006  KCAL/ANGSTROM
     20          7  C    CARTESIAN Y    -0.957863      0.157522  KCAL/ANGSTROM
     21          7  C    CARTESIAN Z     0.680535     -0.079696  KCAL/ANGSTROM
     22          8  C    CARTESIAN X     2.865081     -0.061281  KCAL/ANGSTROM
     23          8  C    CARTESIAN Y    -1.579847     -0.014141  KCAL/ANGSTROM
     24          8  C    CARTESIAN Z     0.615220      0.068217  KCAL/ANGSTROM
     25          9  O    CARTESIAN X     1.699622      0.059116  KCAL/ANGSTROM
     26          9  O    CARTESIAN Y    -2.366299     -0.031508  KCAL/ANGSTROM
     27          9  O    CARTESIAN Z     0.868459     -0.127582  KCAL/ANGSTROM
     28         10  H    CARTESIAN X    -3.056520     -0.133158  KCAL/ANGSTROM
     29         10  H    CARTESIAN Y     0.398573     -0.045704  KCAL/ANGSTROM
     30         10  H    CARTESIAN Z     0.151131     -0.039591  KCAL/ANGSTROM
     31         11  H    CARTESIAN X    -3.286937     -0.004611  KCAL/ANGSTROM
     32         11  H    CARTESIAN Y    -1.081777     -0.213828  KCAL/ANGSTROM
     33         11  H    CARTESIAN Z    -0.779847     -0.006594  KCAL/ANGSTROM
     34         12  H    CARTESIAN X    -3.591813      0.133401  KCAL/ANGSTROM
     35         12  H    CARTESIAN Y    -1.082787      0.127236  KCAL/ANGSTROM
     36         12  H    CARTESIAN Z     0.969416      0.005178  KCAL/ANGSTROM
     37         13  H    CARTESIAN X    -1.379134      0.159454  KCAL/ANGSTROM
     38         13  H    CARTESIAN Y    -2.201127      0.142554  KCAL/ANGSTROM
     39         13  H    CARTESIAN Z     0.447938     -0.142823  KCAL/ANGSTROM
     40         14  H    CARTESIAN X    -1.145438      0.090806  KCAL/ANGSTROM
     41         14  H    CARTESIAN Y    -0.731132     -0.243368  KCAL/ANGSTROM
     42         14  H    CARTESIAN Z     1.430789      0.088148  KCAL/ANGSTROM
     43         15  H    CARTESIAN X    -0.051749      0.040659  KCAL/ANGSTROM
     44         15  H    CARTESIAN Y     1.222848     -0.154320  KCAL/ANGSTROM
     45         15  H    CARTESIAN Z    -1.637336     -0.030399  KCAL/ANGSTROM
     46         16  H    CARTESIAN X    -0.050874      0.268212  KCAL/ANGSTROM
     47         16  H    CARTESIAN Y     1.192225      0.059813  KCAL/ANGSTROM
     48         16  H    CARTESIAN Z     1.475893     -0.148933  KCAL/ANGSTROM
     49         17  H    CARTESIAN X    -1.082903      0.102661  KCAL/ANGSTROM
     50         17  H    CARTESIAN Y     2.202786     -0.231206  KCAL/ANGSTROM
     51         17  H    CARTESIAN Z     0.466364      0.133939  KCAL/ANGSTROM
     52         18  H    CARTESIAN X     0.676054      0.026300  KCAL/ANGSTROM
     53         18  H    CARTESIAN Y     2.428508      0.067952  KCAL/ANGSTROM
     54         18  H    CARTESIAN Z     0.445155      0.042817  KCAL/ANGSTROM
     55         19  H    CARTESIAN X     1.304380     -0.128450  KCAL/ANGSTROM
     56         19  H    CARTESIAN Y    -0.943542     -0.043907  KCAL/ANGSTROM
     57         19  H    CARTESIAN Z    -1.486746     -0.011685  KCAL/ANGSTROM
     58         20  H    CARTESIAN X     1.209072      0.150449  KCAL/ANGSTROM
     59         20  H    CARTESIAN Y    -0.432174      0.010212  KCAL/ANGSTROM
     60         20  H    CARTESIAN Z     1.592542     -0.016381  KCAL/ANGSTROM
     61         21  H    CARTESIAN X     3.352423     -0.066913  KCAL/ANGSTROM
     62         21  H    CARTESIAN Y    -1.771667     -0.051989  KCAL/ANGSTROM
     63         21  H    CARTESIAN Z    -0.337023      0.289043  KCAL/ANGSTROM
     64         22  H    CARTESIAN X     3.556728     -0.157786  KCAL/ANGSTROM
     65         22  H    CARTESIAN Y    -1.496520     -0.025897  KCAL/ANGSTROM
     66         22  H    CARTESIAN Z     1.449787     -0.017155  KCAL/ANGSTROM




   ATOM   CHEMICAL          X               Y               Z
  NUMBER   SYMBOL      (ANGSTROMS)     (ANGSTROMS)     (ANGSTROMS)

     1       C         -2.93781548  *  -0.68959113  *   0.18561377  *
     2       C         -1.47877415  *  -1.08862363  *   0.43515793  *
     3       N         -0.67247459  *  -0.60805910  *  -0.69065645  *
     4       C         -0.01321746  *   0.71051837  *  -0.65852503  *
     5       C         -0.11983025  *   1.67209489  *   0.49317723  *
     6       C          0.80367223  *  -0.57512184  *  -0.57405858  *
     7       C          1.51207468  *  -0.95786323  *   0.68053507  *
     8       C          2.86508127  *  -1.57984716  *   0.61521971  *
     9       O          1.69962187  *  -2.36629868  *   0.86845905  *
    10       H         -3.05652038  *   0.39857264  *   0.15113137  *
    11       H         -3.28693667  *  -1.08177691  *  -0.77984700  *
    12       H         -3.59181347  *  -1.08278688  *   0.96941630  *
    13       H         -1.37913424  *  -2.20112721  *   0.44793780  *
    14       H         -1.14543840  *  -0.73113157  *   1.43078928  *
    15       H         -0.05174947  *   1.22284754  *  -1.63733577  *
    16       H         -0.05087402  *   1.19222510  *   1.47589306  *
    17       H         -1.08290284  *   2.20278559  *   0.46636382  *
    18       H          0.67605418  *   2.42850775  *   0.44515544  *
    19       H          1.30438017  *  -0.94354198  *  -1.48674618  *
    20       H          1.20907205  *  -0.43217401  *   1.59254188  *
    21       H          3.35242270  *  -1.77166685  *  -0.33702290  *
    22       H          3.55672793  *  -1.49651998  *   1.44978727  *

                             CARTESIAN COORDINATES

   1    C       -2.937815481    -0.689591133     0.185613765
   2    C       -1.478774147    -1.088623633     0.435157926
   3    N       -0.672474593    -0.608059105    -0.690656448
   4    C       -0.013217460     0.710518366    -0.658525029
   5    C       -0.119830254     1.672094893     0.493177229
   6    C        0.803672232    -0.575121844    -0.574058577
   7    C        1.512074677    -0.957863231     0.680535073
   8    C        2.865081273    -1.579847160     0.615219714
   9    O        1.699621866    -2.366298676     0.868459051
  10    H       -3.056520380     0.398572640     0.151131367
  11    H       -3.286936667    -1.081776910    -0.779846998
  12    H       -3.591813471    -1.082786878     0.969416301
  13    H       -1.379134237    -2.201127205     0.447937799
  14    H       -1.145438403    -0.731131566     1.430789276
  15    H       -0.051749466     1.222847539    -1.637335772
  16    H       -0.050874023     1.192225097     1.475893063
  17    H       -1.082902841     2.202785592     0.466363817
  18    H        0.676054181     2.428507748     0.445155441
  19    H        1.304380166    -0.943541982    -1.486746184
  20    H        1.209072049    -0.432174008     1.592541884
  21    H        3.352422696    -1.771666853    -0.337022898
  22    H        3.556727934    -1.496519978     1.449787274


           Empirical Formula: C7 H13 N O  =    22 atoms



      MOLECULAR POINT GROUP   :   C1  


                  EIGENVALUES  
 -36.25143 -31.90896 -27.45619 -26.28441 -24.78747 -22.91354 -22.49687 -19.80073
 -19.34990 -17.67009 -16.79752 -16.17952 -15.24350 -15.08990 -14.45620 -14.28038
 -14.04093 -13.40150 -13.21992 -12.58247 -12.44302 -12.19653 -11.57181 -11.15696
 -10.52190  -9.46105   1.72038   2.21800   2.60690   2.96102   3.61021   3.68643
   4.09647   4.13058   4.36904   4.95157   5.08440   5.28788   5.38056   5.49058
   5.58701   5.61506   5.74588   5.92201   5.94147   6.06776   6.23996   6.57171
   7.07077


              NET ATOMIC CHARGES AND DIPOLE CONTRIBUTIONS

  ATOM NO.   TYPE          CHARGE      No. of ELECS.   s-Pop       p-Pop       
    1          C          -0.437778        4.4378     1.05396     3.38382
    2          C          -0.097781        4.0978     1.06293     3.03485
    3          N          -0.371682        5.3717     1.74291     3.62877
    4          C          -0.036191        4.0362     1.06483     2.97136
    5          C          -0.460062        4.4601     1.05110     3.40896
    6          C          -0.121683        4.1217     1.06709     3.05460
    7          C          -0.011307        4.0113     1.08029     2.93102
    8          C          -0.144195        4.1442     1.08875     3.05545
    9          O          -0.318537        6.3185     1.92314     4.39540
   10          H           0.145270        0.8547     0.85473
   11          H           0.162260        0.8377     0.83774
   12          H           0.143777        0.8562     0.85622
   13          H           0.155624        0.8444     0.84438
   14          H           0.115533        0.8845     0.88447
   15          H           0.167093        0.8329     0.83291
   16          H           0.150120        0.8499     0.84988
   17          H           0.161639        0.8384     0.83836
   18          H           0.158883        0.8411     0.84112
   19          H           0.178983        0.8210     0.82102
   20          H           0.153627        0.8464     0.84637
   21          H           0.154509        0.8455     0.84549
   22          H           0.151901        0.8481     0.84810
 DIPOLE           X         Y         Z       TOTAL
 POINT-CHG.     1.055     2.835     0.659     3.096
 HYBRID        -0.112    -0.386     0.872     0.960
 SUM            0.943     2.449     1.531     3.038


          ATOMIC ORBITAL ELECTRON POPULATIONS

     Atom    s        px        py        pz   
    1  C   1.05396   1.03582   1.16914   1.17885
    2  C   1.06293   0.95541   1.11201   0.96743
    3  N   1.74291   1.06586   1.14861   1.41430
    4  C   1.06483   1.02310   0.87922   1.06905
    5  C   1.05110   1.18576   1.12525   1.09796
    6  C   1.06709   0.91847   1.07304   1.06309
    7  C   1.08029   1.00990   0.87007   1.05105
    8  C   1.08875   0.91509   0.99568   1.14468
    9  O   1.92314   1.29440   1.16155   1.93945
   10  H   0.85473
   11  H   0.83774
   12  H   0.85622
   13  H   0.84438
   14  H   0.88447
   15  H   0.83291
   16  H   0.84988
   17  H   0.83836
   18  H   0.84112
   19  H   0.82102
   20  H   0.84637
   21  H   0.84549
   22  H   0.84810

 **********************
 *                    *
 * JOB ENDED NORMALLY *
 *                    *
 **********************



 TOTAL JOB TIME:             1.45 SECONDS

 == MOPAC DONE ==
