 *******************************************************************************
 **                                                                           **
 **                              MOPAC v23.2                                  **
 **                                                                           **
 *******************************************************************************
 **          Digital Object Identifier (DOI): 10.5281/zenodo.6511958          **
 **    Visit the DOI location for information on how to cite this program.    **
 *******************************************************************************

                              PM7 CALCULATION RESULTS

 *******************************************************************************
 *  CALCULATION DONE: (MAX THREADS = 40)             Fri Sep 19 21:44:15 2025  *
 *  PM7        - The PM7 Hamiltonian to be used
 *  EPS=37.5   - USE ANDREAS KLAMT'S COSMO IMPLICIT SOLVATION MODEL
 *  1SCF       - DO 1 SCF AND THEN STOP 
 *  T=         - A TIME OF 172800.0 SECONDS REQUESTED
 *  DUMP=N     - RESTART FILE WRITTEN EVERY 7200.0 SECONDS REQUESTED
 *  RELSCF     - DEFAULT SCF CRITERION MULTIPLIED BY 0.0001
 *              (DEFAULT SCF CRITERION = 0.00010)
 *  GRADIENTS  - ALL GRADIENTS TO BE PRINTED
 *  DISP       - PRINT DISPERSION AND HYDROGEN BOND ENERGIES
 *******************************************************************************
PM7 1SCF GRADIENTS EPS=37.5 DISP RELSCF=0.0001
 Title: ASE calculation

   ATOM   CHEMICAL          X               Y               Z
  NUMBER   SYMBOL      (ANGSTROMS)     (ANGSTROMS)     (ANGSTROMS)

     1       C          2.31557963  *  -0.03502628  *  -0.90151593  *
     2       C          1.43552970  *   1.07994167  *  -0.41556737  *
     3       O          1.45071510  *   2.16763848  *  -0.93322220  *
     4       C          0.56528704  *   0.77295330  *   0.75996143  *
     5       C         -0.86541677  *   1.27021064  *   0.85186450  *
     6       C         -1.55818083  *   1.31042627  *  -0.52192325  *
     7       C         -1.26043695  *  -0.22658974  *  -0.70296631  *
     8       C         -2.49096178  *  -1.10392016  *  -0.77143950  *
     9       C         -0.57095866  *  -0.22770063  *   0.68589534  *
    10       H          1.75352259  *  -0.70304880  *  -1.57046641  *
    11       H          3.16965710  *   0.35425835  *  -1.47643127  *
    12       H          2.70638965  *  -0.64994926  *  -0.08259324  *
    13       H          1.15351798  *   0.79570002  *   1.69076485  *
    14       H         -1.23664553  *   1.82899404  *   1.68631292  *
    15       H         -1.07984800  *   1.96101279  *  -1.26050227  *
    16       H         -2.61949663  *   1.55978352  *  -0.47625799  *
    17       H         -0.57423236  *  -0.43795631  *  -1.53851353  *
    18       H         -3.16965710  *  -0.92963618  *   0.07291482  *
    19       H         -2.22293977  *  -2.16763848  *  -0.75985517  *
    20       H         -3.06077858  *  -0.91835905  *  -1.69076485  *
    21       H         -0.68586468  *  -1.04466517  *   1.36620002  *



          CARTESIAN COORDINATES 

    NO.       ATOM           X           Y           Z

     1         C          2.3156     -0.0350     -0.9015
     2         C          1.4355      1.0799     -0.4156
     3         O          1.4507      2.1676     -0.9332
     4         C          0.5653      0.7730      0.7600
     5         C         -0.8654      1.2702      0.8519
     6         C         -1.5582      1.3104     -0.5219
     7         C         -1.2604     -0.2266     -0.7030
     8         C         -2.4910     -1.1039     -0.7714
     9         C         -0.5710     -0.2277      0.6859
    10         H          1.7535     -0.7030     -1.5705
    11         H          3.1697      0.3543     -1.4764
    12         H          2.7064     -0.6499     -0.0826
    13         H          1.1535      0.7957      1.6908
    14         H         -1.2366      1.8290      1.6863
    15         H         -1.0798      1.9610     -1.2605
    16         H         -2.6195      1.5598     -0.4763
    17         H         -0.5742     -0.4380     -1.5385
    18         H         -3.1697     -0.9296      0.0729
    19         H         -2.2229     -2.1676     -0.7599
    20         H         -3.0608     -0.9184     -1.6908
    21         H         -0.6859     -1.0447      1.3662

 General Reference for PM7:
 "Optimization of Parameters for Semiempirical Methods VI: More Modifications to the 
 NDDO Approximations and Re-optimization of Parameters", J. J. P. Stewart, J. Mol. Mod., 1:32, 19 (2013)
 https://link.springer.com/article/10.1007/s00894-012-1667-x

           Empirical Formula: C8 H12 O  =    21 atoms



      MOLECULAR POINT GROUP   :   C1  


      RHF CALCULATION, NO. OF DOUBLY OCCUPIED LEVELS = 25

  SCF CRITERION =    0.1000E-07

 -------------------------------------------------------------------------------
 PM7 1SCF GRADIENTS EPS=37.5 DISP RELSCF=0.0001
 Title: ASE calculation



     1SCF WAS SPECIFIED, SO BFGS WAS NOT USED                 
     SCF FIELD WAS ACHIEVED                                   


                              PM7 CALCULATION
                                                       MOPAC v23.2 Linux
                                                       Fri Sep 19 21:44:15 2025




          FINAL HEAT OF FORMATION =        -17.28066 KCAL/MOL =     -72.30227 KJ/MOL

          TOTAL ENERGY            =     -33182.73455 KCAL/MOL = ELECTRONIC ENERGY + CORE-CORE REPULSION + SOLVATION ENERGY
          ENERGY OF ATOMS         =      33167.45855 KCAL/MOL
                              SUM =        -15.27600 KCAL/MOL
          DISPERSION ENERGY       =         -2.00466 KCAL/MOL
                              SUM =        -17.28066 KCAL/MOL = FINAL HEAT OF FORMATION

          VAN DER WAALS AREA      =        167.64 SQUARE ANGSTROMS


          TOTAL ENERGY            =      -1438.93956 EV
          ELECTRONIC ENERGY       =      -2278.91319 EV 
          CORE-CORE REPULSION     =        839.97363 EV

          DIELECTRIC ENERGY       =         -0.37644 EV
          COSMO AREA              =        167.64 SQUARE ANGSTROMS
          COSMO VOLUME            =        169.59 CUBIC ANGSTROMS

          GRADIENT NORM           =         28.54719          =       6.22951 PER ATOM
          IONIZATION POTENTIAL    =         10.348383 EV
          HOMO LUMO ENERGIES (EV) =        -10.348  0.518
          NO. OF FILLED LEVELS    =         25
          MOLECULAR WEIGHT        =        124.1822         POINT GROUP:  C1  

          MOLECULAR DIMENSIONS (Angstroms)

            Atom       Atom       Distance
            H    18    H    11     6.65100
            H    14    H    19     4.65038
            H    21    H    15     3.81843


          SCF CALCULATIONS        =          2

          WALL-CLOCK TIME         =      0.812 SECONDS
          COMPUTATION TIME        =      0.719 SECONDS

          LARGEST ATOMIC GRADIENTS

          Atom     Label                     Cartesian Gradients           Cartesian Coordinates       |Gradient|
                                           X          Y          Z        X          Y          Z

             2       C                  -1.129     20.167     -7.851    1.43553    1.07994   -0.41557     21.671
             3       O                  -0.362    -12.060      5.379    1.45072    2.16764   -0.93322     13.211
             1       C                   3.773     -9.516     -0.336    2.31558   -0.03503   -0.90152     10.242
             4       C                   0.903     -3.229      4.555    0.56529    0.77295    0.75996      5.656
            13       H                  -1.803      0.764     -1.959    1.15352    0.79570    1.69076      2.770
            11       H                  -1.080      1.557      0.305    3.16966    0.35426   -1.47643      1.919
             9       C                  -0.146     -1.631      0.895   -0.57096   -0.22770    0.68590      1.866
            10       H                   0.165      1.705      0.703    1.75352   -0.70305   -1.57047      1.852
             8       C                  -1.147     -1.257     -0.020   -2.49096   -1.10392   -0.77144      1.701
             6       C                  -1.546     -0.661      0.155   -1.55818    1.31043   -0.52192      1.688



       FINAL  POINT  AND  DERIVATIVES

   PARAMETER     ATOM    TYPE            VALUE        GRADIENT
      1          1  C    CARTESIAN X     2.315580      3.773094  KCAL/ANGSTROM
      2          1  C    CARTESIAN Y    -0.035026     -9.515542  KCAL/ANGSTROM
      3          1  C    CARTESIAN Z    -0.901516     -0.335893  KCAL/ANGSTROM
      4          2  C    CARTESIAN X     1.435530     -1.129492  KCAL/ANGSTROM
      5          2  C    CARTESIAN Y     1.079942     20.167289  KCAL/ANGSTROM
      6          2  C    CARTESIAN Z    -0.415567     -7.850874  KCAL/ANGSTROM
      7          3  O    CARTESIAN X     1.450715     -0.361806  KCAL/ANGSTROM
      8          3  O    CARTESIAN Y     2.167638    -12.060487  KCAL/ANGSTROM
      9          3  O    CARTESIAN Z    -0.933222      5.378893  KCAL/ANGSTROM
     10          4  C    CARTESIAN X     0.565287      0.902742  KCAL/ANGSTROM
     11          4  C    CARTESIAN Y     0.772953     -3.229429  KCAL/ANGSTROM
     12          4  C    CARTESIAN Z     0.759961      4.554897  KCAL/ANGSTROM
     13          5  C    CARTESIAN X    -0.865417     -0.099403  KCAL/ANGSTROM
     14          5  C    CARTESIAN Y     1.270211      0.164136  KCAL/ANGSTROM
     15          5  C    CARTESIAN Z     0.851865      0.641011  KCAL/ANGSTROM
     16          6  C    CARTESIAN X    -1.558181     -1.545725  KCAL/ANGSTROM
     17          6  C    CARTESIAN Y     1.310426     -0.661383  KCAL/ANGSTROM
     18          6  C    CARTESIAN Z    -0.521923      0.155396  KCAL/ANGSTROM
     19          7  C    CARTESIAN X    -1.260437      0.623410  KCAL/ANGSTROM
     20          7  C    CARTESIAN Y    -0.226590     -0.060891  KCAL/ANGSTROM
     21          7  C    CARTESIAN Z    -0.702966      0.112018  KCAL/ANGSTROM
     22          8  C    CARTESIAN X    -2.490962     -1.146673  KCAL/ANGSTROM
     23          8  C    CARTESIAN Y    -1.103920     -1.256709  KCAL/ANGSTROM
     24          8  C    CARTESIAN Z    -0.771440     -0.020361  KCAL/ANGSTROM
     25          9  C    CARTESIAN X    -0.570959     -0.145696  KCAL/ANGSTROM
     26          9  C    CARTESIAN Y    -0.227701     -1.630865  KCAL/ANGSTROM
     27          9  C    CARTESIAN Z     0.685895      0.894560  KCAL/ANGSTROM
     28         10  H    CARTESIAN X     1.753523      0.164711  KCAL/ANGSTROM
     29         10  H    CARTESIAN Y    -0.703049      1.704980  KCAL/ANGSTROM
     30         10  H    CARTESIAN Z    -1.570466      0.702895  KCAL/ANGSTROM
     31         11  H    CARTESIAN X     3.169657     -1.079865  KCAL/ANGSTROM
     32         11  H    CARTESIAN Y     0.354258      1.556765  KCAL/ANGSTROM
     33         11  H    CARTESIAN Z    -1.476431      0.304539  KCAL/ANGSTROM
     34         12  H    CARTESIAN X     2.706390     -0.608977  KCAL/ANGSTROM
     35         12  H    CARTESIAN Y    -0.649949      1.108740  KCAL/ANGSTROM
     36         12  H    CARTESIAN Z    -0.082593     -1.055879  KCAL/ANGSTROM
     37         13  H    CARTESIAN X     1.153518     -1.803046  KCAL/ANGSTROM
     38         13  H    CARTESIAN Y     0.795700      0.764218  KCAL/ANGSTROM
     39         13  H    CARTESIAN Z     1.690765     -1.959084  KCAL/ANGSTROM
     40         14  H    CARTESIAN X    -1.236646      0.482219  KCAL/ANGSTROM
     41         14  H    CARTESIAN Y     1.828994      0.174953  KCAL/ANGSTROM
     42         14  H    CARTESIAN Z     1.686313     -1.027930  KCAL/ANGSTROM
     43         15  H    CARTESIAN X    -1.079848      1.044298  KCAL/ANGSTROM
     44         15  H    CARTESIAN Y     1.961013      0.545013  KCAL/ANGSTROM
     45         15  H    CARTESIAN Z    -1.260502     -0.039399  KCAL/ANGSTROM
     46         16  H    CARTESIAN X    -2.619497      0.905328  KCAL/ANGSTROM
     47         16  H    CARTESIAN Y     1.559784      0.280210  KCAL/ANGSTROM
     48         16  H    CARTESIAN Z    -0.476258     -0.000233  KCAL/ANGSTROM
     49         17  H    CARTESIAN X    -0.574232     -0.199782  KCAL/ANGSTROM
     50         17  H    CARTESIAN Y    -0.437956      0.456821  KCAL/ANGSTROM
     51         17  H    CARTESIAN Z    -1.538514      0.564617  KCAL/ANGSTROM
     52         18  H    CARTESIAN X    -3.169657      0.121892  KCAL/ANGSTROM
     53         18  H    CARTESIAN Y    -0.929636      0.037502  KCAL/ANGSTROM
     54         18  H    CARTESIAN Z     0.072915     -0.216159  KCAL/ANGSTROM
     55         19  H    CARTESIAN X    -2.222940      0.120832  KCAL/ANGSTROM
     56         19  H    CARTESIAN Y    -2.167638      0.546713  KCAL/ANGSTROM
     57         19  H    CARTESIAN Z    -0.759855     -0.166725  KCAL/ANGSTROM
     58         20  H    CARTESIAN X    -3.060779      0.329262  KCAL/ANGSTROM
     59         20  H    CARTESIAN Y    -0.918359      0.061283  KCAL/ANGSTROM
     60         20  H    CARTESIAN Z    -1.690765      0.228379  KCAL/ANGSTROM
     61         21  H    CARTESIAN X    -0.685865     -0.347322  KCAL/ANGSTROM
     62         21  H    CARTESIAN Y    -1.044665      0.846679  KCAL/ANGSTROM
     63         21  H    CARTESIAN Z     1.366200     -0.864670  KCAL/ANGSTROM




   ATOM   CHEMICAL          X               Y               Z
  NUMBER   SYMBOL      (ANGSTROMS)     (ANGSTROMS)     (ANGSTROMS)

     1       C          2.31557963  *  -0.03502628  *  -0.90151593  *
     2       C          1.43552970  *   1.07994167  *  -0.41556737  *
     3       O          1.45071510  *   2.16763848  *  -0.93322220  *
     4       C          0.56528704  *   0.77295330  *   0.75996143  *
     5       C         -0.86541677  *   1.27021064  *   0.85186450  *
     6       C         -1.55818083  *   1.31042627  *  -0.52192325  *
     7       C         -1.26043695  *  -0.22658974  *  -0.70296631  *
     8       C         -2.49096178  *  -1.10392016  *  -0.77143950  *
     9       C         -0.57095866  *  -0.22770063  *   0.68589534  *
    10       H          1.75352259  *  -0.70304880  *  -1.57046641  *
    11       H          3.16965710  *   0.35425835  *  -1.47643127  *
    12       H          2.70638965  *  -0.64994926  *  -0.08259324  *
    13       H          1.15351798  *   0.79570002  *   1.69076485  *
    14       H         -1.23664553  *   1.82899404  *   1.68631292  *
    15       H         -1.07984800  *   1.96101279  *  -1.26050227  *
    16       H         -2.61949663  *   1.55978352  *  -0.47625799  *
    17       H         -0.57423236  *  -0.43795631  *  -1.53851353  *
    18       H         -3.16965710  *  -0.92963618  *   0.07291482  *
    19       H         -2.22293977  *  -2.16763848  *  -0.75985517  *
    20       H         -3.06077858  *  -0.91835905  *  -1.69076485  *
    21       H         -0.68586468  *  -1.04466517  *   1.36620002  *

                             CARTESIAN COORDINATES

   1    C        2.315579628    -0.035026282    -0.901515931
   2    C        1.435529698     1.079941672    -0.415567369
   3    O        1.450715096     2.167638481    -0.933222196
   4    C        0.565287041     0.772953304     0.759961427
   5    C       -0.865416767     1.270210642     0.851864503
   6    C       -1.558180834     1.310426267    -0.521923253
   7    C       -1.260436949    -0.226589742    -0.702966312
   8    C       -2.490961782    -1.103920162    -0.771439501
   9    C       -0.570958665    -0.227700634     0.685895341
  10    H        1.753522595    -0.703048804    -1.570466413
  11    H        3.169657098     0.354258347    -1.476431266
  12    H        2.706389649    -0.649949260    -0.082593243
  13    H        1.153517984     0.795700023     1.690764846
  14    H       -1.236645533     1.828994045     1.686312916
  15    H       -1.079848003     1.961012792    -1.260502272
  16    H       -2.619496633     1.559783519    -0.476257995
  17    H       -0.574232360    -0.437956306    -1.538513529
  18    H       -3.169657098    -0.929636176     0.072914823
  19    H       -2.222939775    -2.167638481    -0.759855169
  20    H       -3.060778584    -0.918359049    -1.690764846
  21    H       -0.685864684    -1.044665175     1.366200021


           Empirical Formula: C8 H12 O  =    21 atoms



      MOLECULAR POINT GROUP   :   C1  


                  EIGENVALUES  
 -32.65438 -31.06537 -27.21484 -26.37280 -23.99296 -22.11079 -21.32880 -18.47298
 -18.29714 -17.21404 -16.43484 -16.04140 -15.30320 -14.99075 -14.26750 -13.59641
 -13.47573 -13.35872 -13.01375 -12.85241 -12.16747 -11.55311 -11.29363 -10.95705
 -10.34838   0.51833   1.81068   2.95228   3.24284   3.35138   3.47385   3.67024
   4.20970   4.43846   4.72351   5.05229   5.31564   5.51936   5.65300   5.70862
   5.79875   5.81466   6.00658   6.04571   6.17920   6.46772   6.64395   6.98204


              NET ATOMIC CHARGES AND DIPOLE CONTRIBUTIONS

  ATOM NO.   TYPE          CHARGE      No. of ELECS.   s-Pop       p-Pop       
    1          C          -0.562699        4.5627     1.06695     3.49575
    2          C           0.585198        3.4148     1.11616     2.29865
    3          O          -0.577662        6.5777     1.87049     4.70717
    4          C          -0.317683        4.3177     1.06652     3.25117
    5          C          -0.154581        4.1546     1.06584     3.08874
    6          C          -0.295856        4.2959     1.07441     3.22144
    7          C          -0.082674        4.0827     1.06857     3.01410
    8          C          -0.458808        4.4588     1.05227     3.40654
    9          C          -0.173886        4.1739     1.07264     3.10124
   10          H           0.195386        0.8046     0.80461
   11          H           0.189938        0.8101     0.81006
   12          H           0.190523        0.8095     0.80948
   13          H           0.202738        0.7973     0.79726
   14          H           0.169024        0.8310     0.83098
   15          H           0.155237        0.8448     0.84476
   16          H           0.157811        0.8422     0.84219
   17          H           0.141784        0.8582     0.85822
   18          H           0.156310        0.8437     0.84369
   19          H           0.153809        0.8462     0.84619
   20          H           0.156215        0.8438     0.84379
   21          H           0.169878        0.8301     0.83012
 DIPOLE           X         Y         Z       TOTAL
 POINT-CHG.    -0.714    -4.322     1.324     4.576
 HYBRID         0.077     0.215     0.034     0.231
 SUM           -0.637    -4.107     1.357     4.372


          ATOMIC ORBITAL ELECTRON POPULATIONS

     Atom    s        px        py        pz   
    1  C   1.06695   1.16309   1.13169   1.20097
    2  C   1.11616   0.74075   0.80306   0.75484
    3  O   1.87049   1.69441   1.38550   1.62726
    4  C   1.06652   0.98909   1.14326   1.11882
    5  C   1.06584   0.98444   1.03201   1.07229
    6  C   1.07441   1.13870   1.04243   1.04031
    7  C   1.06857   1.02129   0.97532   1.01749
    8  C   1.05227   1.08714   1.13213   1.18727
    9  C   1.07264   1.02503   0.99578   1.08043
   10  H   0.80461
   11  H   0.81006
   12  H   0.80948
   13  H   0.79726
   14  H   0.83098
   15  H   0.84476
   16  H   0.84219
   17  H   0.85822
   18  H   0.84369
   19  H   0.84619
   20  H   0.84379
   21  H   0.83012

 **********************
 *                    *
 * JOB ENDED NORMALLY *
 *                    *
 **********************



 TOTAL JOB TIME:             1.16 SECONDS

 == MOPAC DONE ==
