 *******************************************************************************
 **                                                                           **
 **                              MOPAC v23.2                                  **
 **                                                                           **
 *******************************************************************************
 **          Digital Object Identifier (DOI): 10.5281/zenodo.6511958          **
 **    Visit the DOI location for information on how to cite this program.    **
 *******************************************************************************

                              PM7 CALCULATION RESULTS

 *******************************************************************************
 *  CALCULATION DONE: (MAX THREADS = 40)             Fri Sep 19 21:30:57 2025  *
 *  PM7        - The PM7 Hamiltonian to be used
 *
 *
 *
 *                 CHARGE ON SYSTEM = +1
 *
 *
 *
 *  1SCF       - DO 1 SCF AND THEN STOP 
 *  T=         - A TIME OF 172800.0 SECONDS REQUESTED
 *  DUMP=N     - RESTART FILE WRITTEN EVERY 7200.0 SECONDS REQUESTED
 *  RELSCF     - DEFAULT SCF CRITERION MULTIPLIED BY 0.0001
 *              (DEFAULT SCF CRITERION = 0.00010)
 *  GRADIENTS  - ALL GRADIENTS TO BE PRINTED
 *  DISP       - PRINT DISPERSION AND HYDROGEN BOND ENERGIES
 *******************************************************************************
PM7 1SCF GRADIENTS DISP RELSCF=0.0001 CHARGE=1
 Title: ASE calculation

   ATOM   CHEMICAL          X               Y               Z
  NUMBER   SYMBOL      (ANGSTROMS)     (ANGSTROMS)     (ANGSTROMS)

     1       C          1.11698813  *  -0.47337855  *   0.12128470  *
     2       C         -0.24670786  *  -0.06985892  *   0.93323987  *
     3       C         -1.12291704  *  -1.20997223  *   0.38299273  *
     4       C         -0.56981364  *   1.18906771  *   0.10582678  *
     5       C         -0.21639547  *   0.93351284  *  -1.18049123  *
     6       C         -0.75845818  *  -1.41587323  *  -0.90886547  *
     7       N          0.30500227  *  -0.43382208  *  -1.12736341  *
     8       H          1.53509179  *  -1.46250604  *   0.38201709  *
     9       H          1.92340843  *   0.28117546  *   0.18026838  *
    10       H         -0.16069161  *   0.03534799  *   2.01881861  *
    11       H         -1.89339464  *  -1.69303558  *   0.96686456  *
    12       H         -1.02470678  *   2.07065022  *   0.53403020  *
    13       H         -0.28453901  *   1.47443957  *  -2.11428538  *
    14       H         -1.10338269  *  -2.06215829  *  -1.70376292  *



          CARTESIAN COORDINATES 

    NO.       ATOM           X           Y           Z

     1         C          1.1170     -0.4734      0.1213
     2         C         -0.2467     -0.0699      0.9332
     3         C         -1.1229     -1.2100      0.3830
     4         C         -0.5698      1.1891      0.1058
     5         C         -0.2164      0.9335     -1.1805
     6         C         -0.7585     -1.4159     -0.9089
     7         N          0.3050     -0.4338     -1.1274
     8         H          1.5351     -1.4625      0.3820
     9         H          1.9234      0.2812      0.1803
    10         H         -0.1607      0.0353      2.0188
    11         H         -1.8934     -1.6930      0.9669
    12         H         -1.0247      2.0707      0.5340
    13         H         -0.2845      1.4744     -2.1143
    14         H         -1.1034     -2.0622     -1.7038

 General Reference for PM7:
 "Optimization of Parameters for Semiempirical Methods VI: More Modifications to the 
 NDDO Approximations and Re-optimization of Parameters", J. J. P. Stewart, J. Mol. Mod., 1:32, 19 (2013)
 https://link.springer.com/article/10.1007/s00894-012-1667-x

           Empirical Formula: C6 H7 N  =    14 atoms



      MOLECULAR POINT GROUP   :   Cs  


          UHF CALCULATION, NO. OF ALPHA ELECTRONS =   18
                           NO. OF BETA  ELECTRONS =   17
  SCF CRITERION =    0.1000E-07

 -------------------------------------------------------------------------------
 PM7 1SCF GRADIENTS DISP RELSCF=0.0001 CHARGE=1
 Title: ASE calculation



     1SCF WAS SPECIFIED, SO BFGS WAS NOT USED                 
     SCF FIELD WAS ACHIEVED                                   


                              PM7 CALCULATION
                                                       MOPAC v23.2 Linux
                                                       Fri Sep 19 21:30:59 2025




          FINAL HEAT OF FORMATION =        286.51314 KCAL/MOL =    1198.77097 KJ/MOL

          TOTAL ENERGY            =     -23199.79740 KCAL/MOL = ELECTRONIC ENERGY + CORE-CORE REPULSION
          ENERGY OF ATOMS         =      23487.01853 KCAL/MOL
                              SUM =        287.22113 KCAL/MOL
          DISPERSION ENERGY       =         -0.70799 KCAL/MOL
                              SUM =        286.51314 KCAL/MOL = FINAL HEAT OF FORMATION



          TOTAL ENERGY            =      -1006.03843 EV
          ELECTRONIC ENERGY       =      -4537.44643 EV 
          CORE-CORE REPULSION     =       3531.40799 EV
          COSMO AREA              =        127.70 SQUARE ANGSTROMS
          COSMO VOLUME            =        121.05 CUBIC ANGSTROMS

          GRADIENT NORM           =          0.99335          =       0.26548 PER ATOM
          IONIZATION POTENTIAL    =         15.693967 EV
          ALPHA SOMO LUMO (EV)    =        -15.775 -5.480
          BETA  SOMO LUMO (EV)    =        -15.694 -7.827
          NO. OF ALPHA ELECTRONS  =         18
          NO. OF BETA  ELECTRONS  =         17
          MOLECULAR WEIGHT        =         93.1280         POINT GROUP:  Cs  

          MOLECULAR DIMENSIONS (Angstroms)

            Atom       Atom       Distance
            H    13    H    11     4.70264
            H    12    H    14     4.50407
            H    14    H     8     2.99061


          SCF CALCULATIONS        =          1

          WALL-CLOCK TIME         =      1.797 SECONDS
          COMPUTATION TIME        =      0.915 SECONDS

          LARGEST ATOMIC GRADIENTS

          Atom     Label                     Cartesian Gradients           Cartesian Coordinates       |Gradient|
                                           X          Y          Z        X          Y          Z

             5       C                   0.397      0.117     -0.147   -0.21640    0.93351   -1.18049      0.440
             2       C                  -0.108     -0.318      0.126   -0.24671   -0.06986    0.93324      0.358
             9       H                  -0.184      0.300      0.040    1.92341    0.28118    0.18027      0.354
             1       C                   0.067     -0.091     -0.313    1.11699   -0.47338    0.12128      0.333
             8       H                   0.269      0.174      0.056    1.53509   -1.46251    0.38202      0.325
             3       C                  -0.175     -0.005     -0.220   -1.12292   -1.20997    0.38299      0.281
            14       H                  -0.118      0.054      0.202   -1.10338   -2.06216   -1.70376      0.240
            10       H                   0.020     -0.026      0.226   -0.16069    0.03535    2.01882      0.228
            13       H                   0.030     -0.114     -0.165   -0.28454    1.47444   -2.11429      0.203
            11       H                  -0.164     -0.065      0.052   -1.89339   -1.69304    0.96686      0.184



       FINAL  POINT  AND  DERIVATIVES

   PARAMETER     ATOM    TYPE            VALUE        GRADIENT
      1          1  C    CARTESIAN X     1.116988      0.067365  KCAL/ANGSTROM
      2          1  C    CARTESIAN Y    -0.473379     -0.090942  KCAL/ANGSTROM
      3          1  C    CARTESIAN Z     0.121285     -0.313461  KCAL/ANGSTROM
      4          2  C    CARTESIAN X    -0.246708     -0.107821  KCAL/ANGSTROM
      5          2  C    CARTESIAN Y    -0.069859     -0.317649  KCAL/ANGSTROM
      6          2  C    CARTESIAN Z     0.933240      0.126350  KCAL/ANGSTROM
      7          3  C    CARTESIAN X    -1.122917     -0.174753  KCAL/ANGSTROM
      8          3  C    CARTESIAN Y    -1.209972     -0.004882  KCAL/ANGSTROM
      9          3  C    CARTESIAN Z     0.382993     -0.219998  KCAL/ANGSTROM
     10          4  C    CARTESIAN X    -0.569814      0.133523  KCAL/ANGSTROM
     11          4  C    CARTESIAN Y     1.189068     -0.086997  KCAL/ANGSTROM
     12          4  C    CARTESIAN Z     0.105827      0.027342  KCAL/ANGSTROM
     13          5  C    CARTESIAN X    -0.216395      0.397351  KCAL/ANGSTROM
     14          5  C    CARTESIAN Y     0.933513      0.117117  KCAL/ANGSTROM
     15          5  C    CARTESIAN Z    -1.180491     -0.147308  KCAL/ANGSTROM
     16          6  C    CARTESIAN X    -0.758458     -0.065731  KCAL/ANGSTROM
     17          6  C    CARTESIAN Y    -1.415873      0.078804  KCAL/ANGSTROM
     18          6  C    CARTESIAN Z    -0.908865      0.009774  KCAL/ANGSTROM
     19          7  N    CARTESIAN X     0.305002     -0.051300  KCAL/ANGSTROM
     20          7  N    CARTESIAN Y    -0.433822     -0.048087  KCAL/ANGSTROM
     21          7  N    CARTESIAN Z    -1.127363     -0.010510  KCAL/ANGSTROM
     22          8  H    CARTESIAN X     1.535092      0.268650  KCAL/ANGSTROM
     23          8  H    CARTESIAN Y    -1.462506      0.173888  KCAL/ANGSTROM
     24          8  H    CARTESIAN Z     0.382017      0.056449  KCAL/ANGSTROM
     25          9  H    CARTESIAN X     1.923408     -0.184189  KCAL/ANGSTROM
     26          9  H    CARTESIAN Y     0.281175      0.299916  KCAL/ANGSTROM
     27          9  H    CARTESIAN Z     0.180268      0.039971  KCAL/ANGSTROM
     28         10  H    CARTESIAN X    -0.160692      0.020221  KCAL/ANGSTROM
     29         10  H    CARTESIAN Y     0.035348     -0.025910  KCAL/ANGSTROM
     30         10  H    CARTESIAN Z     2.018819      0.226119  KCAL/ANGSTROM
     31         11  H    CARTESIAN X    -1.893395     -0.163917  KCAL/ANGSTROM
     32         11  H    CARTESIAN Y    -1.693036     -0.065092  KCAL/ANGSTROM
     33         11  H    CARTESIAN Z     0.966865      0.051576  KCAL/ANGSTROM
     34         12  H    CARTESIAN X    -1.024707     -0.052275  KCAL/ANGSTROM
     35         12  H    CARTESIAN Y     2.070650      0.030234  KCAL/ANGSTROM
     36         12  H    CARTESIAN Z     0.534030      0.116439  KCAL/ANGSTROM
     37         13  H    CARTESIAN X    -0.284539      0.030474  KCAL/ANGSTROM
     38         13  H    CARTESIAN Y     1.474440     -0.114020  KCAL/ANGSTROM
     39         13  H    CARTESIAN Z    -2.114285     -0.165117  KCAL/ANGSTROM
     40         14  H    CARTESIAN X    -1.103383     -0.117602  KCAL/ANGSTROM
     41         14  H    CARTESIAN Y    -2.062158      0.053615  KCAL/ANGSTROM
     42         14  H    CARTESIAN Z    -1.703763      0.202367  KCAL/ANGSTROM




   ATOM   CHEMICAL          X               Y               Z
  NUMBER   SYMBOL      (ANGSTROMS)     (ANGSTROMS)     (ANGSTROMS)

     1       C          1.11698813  *  -0.47337855  *   0.12128470  *
     2       C         -0.24670786  *  -0.06985892  *   0.93323987  *
     3       C         -1.12291704  *  -1.20997223  *   0.38299273  *
     4       C         -0.56981364  *   1.18906771  *   0.10582678  *
     5       C         -0.21639547  *   0.93351284  *  -1.18049123  *
     6       C         -0.75845818  *  -1.41587323  *  -0.90886547  *
     7       N          0.30500227  *  -0.43382208  *  -1.12736341  *
     8       H          1.53509179  *  -1.46250604  *   0.38201709  *
     9       H          1.92340843  *   0.28117546  *   0.18026838  *
    10       H         -0.16069161  *   0.03534799  *   2.01881861  *
    11       H         -1.89339464  *  -1.69303558  *   0.96686456  *
    12       H         -1.02470678  *   2.07065022  *   0.53403020  *
    13       H         -0.28453901  *   1.47443957  *  -2.11428538  *
    14       H         -1.10338269  *  -2.06215829  *  -1.70376292  *

                             CARTESIAN COORDINATES

   1    C        1.116988133    -0.473378549     0.121284700
   2    C       -0.246707864    -0.069858918     0.933239871
   3    C       -1.122917037    -1.209972225     0.382992732
   4    C       -0.569813641     1.189067713     0.105826784
   5    C       -0.216395466     0.933512844    -1.180491228
   6    C       -0.758458178    -1.415873234    -0.908865471
   7    N        0.305002274    -0.433822079    -1.127363410
   8    H        1.535091785    -1.462506036     0.382017088
   9    H        1.923408432     0.281175459     0.180268380
  10    H       -0.160691608     0.035347990     2.018818607
  11    H       -1.893394640    -1.693035580     0.966864564
  12    H       -1.024706780     2.070650222     0.534030202
  13    H       -0.284539007     1.474439572    -2.114285383
  14    H       -1.103382691    -2.062158286    -1.703762922


           Empirical Formula: C6 H7 N  =    14 atoms



      MOLECULAR POINT GROUP   :   Cs  


          ALPHA EIGENVALUES  
 -44.06704 -33.35708 -32.36100 -30.42715 -26.39123 -25.95223 -24.04159 -23.56548
 -22.99534 -21.04262 -20.34055 -19.29517 -18.97786 -18.50867 -18.22073 -17.78398
 -16.00798 -15.77520  -5.47975  -4.94349  -4.31700  -2.94199  -2.62566  -2.61397
  -1.80458  -1.65237  -0.72437  -0.68341  -0.15162   0.30160   0.50353   0.51603
   0.59584   0.77657   0.80636


           BETA EIGENVALUES 
 -42.99045 -32.60494 -32.24658 -30.28912 -26.19600 -25.74577 -23.83110 -22.86899
 -22.66761 -20.84021 -20.19699 -19.12441 -18.85473 -18.20063 -18.15791 -16.42014
 -15.69397  -7.82739  -5.38093  -4.90681  -3.81893  -2.74137  -2.37203  -2.25410
  -1.48551  -1.44881  -0.68782  -0.63891  -0.12339   0.32330   0.52339   0.55421
   0.61433   0.79872   0.82850


              NET ATOMIC CHARGES AND DIPOLE CONTRIBUTIONS

  ATOM NO.   TYPE          CHARGE      No. of ELECS.   s-Pop       p-Pop       
    1          C          -0.154152        4.1542     1.13381     3.02035
    2          C          -0.120756        4.1208     1.10630     3.01446
    3          C          -0.080374        4.0804     1.13177     2.94861
    4          C          -0.080850        4.0808     1.13199     2.94886
    5          C          -0.071705        4.0717     1.12179     2.94991
    6          C          -0.071671        4.0717     1.12137     2.95030
    7          N           0.047382        4.9526     1.61241     3.34020
    8          H           0.206514        0.7935     0.79349
    9          H           0.206289        0.7937     0.79371
   10          H           0.211834        0.7882     0.78817
   11          H           0.217928        0.7821     0.78207
   12          H           0.217788        0.7822     0.78221
   13          H           0.235938        0.7641     0.76406
   14          H           0.235837        0.7642     0.76416
 DIPOLE           X         Y         Z       TOTAL
 POINT-CHG.    -0.040     0.088     0.638     0.645
 HYBRID         0.466    -0.154    -0.401     0.634
 SUM            0.426    -0.065     0.238     0.492


          ATOMIC ORBITAL ELECTRON POPULATIONS

     Atom    s        px        py        pz   
    1  C   1.13381   1.03270   1.21342   0.77422
    2  C   1.10630   0.92503   0.97550   1.11393
    3  C   1.13177   1.01079   0.96433   0.97349
    4  C   1.13199   0.94856   1.04168   0.95862
    5  C   1.12179   1.02092   0.85338   1.07561
    6  C   1.12137   0.90791   0.99700   1.04538
    7  N   1.61241   1.11446   1.14261   1.08313
    8  H   0.79349
    9  H   0.79371
   10  H   0.78817
   11  H   0.78207
   12  H   0.78221
   13  H   0.76406
   14  H   0.76416


                    (SZ)    =    0.500000
                    (S**2)  =    0.764399


          ATOMIC ORBITAL SPIN POPULATIONS

    Atom   Total    s     px     py     pz   
         Atomic
    1  C -0.0210 -0.008 -0.018 -0.000  0.006
    2  C  0.0689  0.009  0.041  0.001  0.017
    3  C  0.0999  0.005  0.024  0.028  0.043
    4  C  0.0994  0.005  0.045  0.015  0.033
    5  C -0.0446 -0.001 -0.008 -0.033 -0.002
    6  C -0.0446 -0.001  0.009 -0.049 -0.004
    7  N  0.8285  0.067  0.231  0.069  0.461
    8  H  0.0018  0.002
    9  H  0.0018  0.002
   10  H  0.0016  0.002
   11  H  0.0002  0.000
   12  H  0.0003  0.000
   13  H  0.0039  0.004
   14  H  0.0039  0.004

 **********************
 *                    *
 * JOB ENDED NORMALLY *
 *                    *
 **********************



 TOTAL JOB TIME:             2.14 SECONDS

 == MOPAC DONE ==
