 *******************************************************************************
 **                                                                           **
 **                              MOPAC v23.2                                  **
 **                                                                           **
 *******************************************************************************
 **          Digital Object Identifier (DOI): 10.5281/zenodo.6511958          **
 **    Visit the DOI location for information on how to cite this program.    **
 *******************************************************************************

                              PM7 CALCULATION RESULTS

 *******************************************************************************
 *  CALCULATION DONE: (MAX THREADS = 40)             Fri Sep 19 21:31:45 2025  *
 *  PM7        - The PM7 Hamiltonian to be used
 *  1SCF       - DO 1 SCF AND THEN STOP 
 *  T=         - A TIME OF 172800.0 SECONDS REQUESTED
 *  DUMP=N     - RESTART FILE WRITTEN EVERY 7200.0 SECONDS REQUESTED
 *  RELSCF     - DEFAULT SCF CRITERION MULTIPLIED BY 0.0001
 *              (DEFAULT SCF CRITERION = 0.00010)
 *  GRADIENTS  - ALL GRADIENTS TO BE PRINTED
 *  DISP       - PRINT DISPERSION AND HYDROGEN BOND ENERGIES
 *******************************************************************************
PM7 1SCF GRADIENTS DISP RELSCF=0.0001
 Title: ASE calculation

   ATOM   CHEMICAL          X               Y               Z
  NUMBER   SYMBOL      (ANGSTROMS)     (ANGSTROMS)     (ANGSTROMS)

     1       C         -3.25941553  *   1.68400045  *  -0.99793851  *
     2       C         -2.59905843  *   0.32884384  *  -0.74511309  *
     3       C         -1.81602226  *   0.34959422  *   0.57389280  *
     4       C         -1.29156912  *  -1.03799044  *   0.96038451  *
     5       C         -0.18748306  *  -1.54331737  *   0.00668689  *
     6       C          0.94466121  *  -0.67832857  *   0.03496380  *
     7       C          1.95790179  *   0.11434898  *   0.06843061  *
     8       C          3.04653675  *   1.01968393  *   0.09954713  *
     9       O          2.92401137  *   2.19809715  *  -0.15552254  *
    10       H         -4.01832171  *   1.90724114  *  -0.24035688  *
    11       H         -2.52348144  *   2.49682530  *  -0.97750381  *
    12       H         -3.75244609  *   1.71132790  *  -1.97552877  *
    13       H         -1.92268702  *   0.07911333  *  -1.58419060  *
    14       H         -3.36503722  *  -0.46780272  *  -0.72373629  *
    15       H         -0.97409134  *   1.06697227  *   0.49834767  *
    16       H         -2.46230332  *   0.73603021  *   1.38577107  *
    17       H         -0.89687673  *  -1.00817410  *   1.99517776  *
    18       H         -2.12355459  *  -1.76728128  *   0.97390643  *
    19       H          0.09427283  *  -2.58800965  *   0.28302588  *
    20       H         -0.59697333  *  -1.61808495  *  -1.03169535  *
    21       H          4.03505412  *   0.61108928  *   0.37215816  *



          CARTESIAN COORDINATES 

    NO.       ATOM           X           Y           Z

     1         C         -3.2594      1.6840     -0.9979
     2         C         -2.5991      0.3288     -0.7451
     3         C         -1.8160      0.3496      0.5739
     4         C         -1.2916     -1.0380      0.9604
     5         C         -0.1875     -1.5433      0.0067
     6         C          0.9447     -0.6783      0.0350
     7         C          1.9579      0.1143      0.0684
     8         C          3.0465      1.0197      0.0995
     9         O          2.9240      2.1981     -0.1555
    10         H         -4.0183      1.9072     -0.2404
    11         H         -2.5235      2.4968     -0.9775
    12         H         -3.7524      1.7113     -1.9755
    13         H         -1.9227      0.0791     -1.5842
    14         H         -3.3650     -0.4678     -0.7237
    15         H         -0.9741      1.0670      0.4983
    16         H         -2.4623      0.7360      1.3858
    17         H         -0.8969     -1.0082      1.9952
    18         H         -2.1236     -1.7673      0.9739
    19         H          0.0943     -2.5880      0.2830
    20         H         -0.5970     -1.6181     -1.0317
    21         H          4.0351      0.6111      0.3722

 General Reference for PM7:
 "Optimization of Parameters for Semiempirical Methods VI: More Modifications to the 
 NDDO Approximations and Re-optimization of Parameters", J. J. P. Stewart, J. Mol. Mod., 1:32, 19 (2013)
 https://link.springer.com/article/10.1007/s00894-012-1667-x

           Empirical Formula: C8 H12 O  =    21 atoms



      MOLECULAR POINT GROUP   :   C1  


      RHF CALCULATION, NO. OF DOUBLY OCCUPIED LEVELS = 25

  SCF CRITERION =    0.1000E-07

 -------------------------------------------------------------------------------
 PM7 1SCF GRADIENTS DISP RELSCF=0.0001
 Title: ASE calculation



     1SCF WAS SPECIFIED, SO BFGS WAS NOT USED                 
     SCF FIELD WAS ACHIEVED                                   


                              PM7 CALCULATION
                                                       MOPAC v23.2 Linux
                                                       Fri Sep 19 21:31:46 2025




          FINAL HEAT OF FORMATION =         -1.55882 KCAL/MOL =      -6.52212 KJ/MOL

          TOTAL ENERGY            =     -33171.60615 KCAL/MOL = ELECTRONIC ENERGY + CORE-CORE REPULSION
          ENERGY OF ATOMS         =      33167.45855 KCAL/MOL
                              SUM =         -4.14760 KCAL/MOL
          DISPERSION ENERGY       =         -2.01848 KCAL/MOL
                              SUM =         -6.16608 KCAL/MOL = FINAL HEAT OF FORMATION

     *    WARNING - An energy term is incorrect or missing!

     *    FINAL HEAT OF FORMATION     =     -1.55882 KCAL/MOL
     *    SUM OF CONTRIBUTIONS TO HoF =     -6.16608 KCAL/MOL
     *                     DIFFERENCE =      4.60725 KCAL/MOL



          TOTAL ENERGY            =      -1438.45699 EV
          ELECTRONIC ENERGY       =      -6728.01990 EV 
          CORE-CORE REPULSION     =       5289.56291 EV
          COSMO AREA              =        188.21 SQUARE ANGSTROMS
          COSMO VOLUME            =        181.10 CUBIC ANGSTROMS

          GRADIENT NORM           =          0.82805          =       0.18069 PER ATOM
          IONIZATION POTENTIAL    =         10.272245 EV
          HOMO LUMO ENERGIES (EV) =        -10.272 -0.247
          NO. OF FILLED LEVELS    =         25
          MOLECULAR WEIGHT        =        124.1822         POINT GROUP:  C1  

          MOLECULAR DIMENSIONS (Angstroms)

            Atom       Atom       Distance
            H    21    H    12     8.20776
            O     9    H    19     5.23722
            H    20    H    16     3.28871


          SCF CALCULATIONS        =          1

          WALL-CLOCK TIME         =      0.812 SECONDS
          COMPUTATION TIME        =      0.528 SECONDS

          LARGEST ATOMIC GRADIENTS

          Atom     Label                     Cartesian Gradients           Cartesian Coordinates       |Gradient|
                                           X          Y          Z        X          Y          Z

            11       H                  -0.063     -0.116      0.266   -2.52348    2.49683   -0.97750      0.297
            10       H                   0.069     -0.236     -0.119   -4.01832    1.90724   -0.24036      0.273
             3       C                  -0.112      0.245     -0.045   -1.81602    0.34959    0.57389      0.273
            14       H                   0.258      0.048     -0.075   -3.36504   -0.46780   -0.72374      0.273
             6       C                  -0.154     -0.170     -0.116    0.94466   -0.67833    0.03496      0.258
             4       C                  -0.136      0.181     -0.001   -1.29157   -1.03799    0.96038      0.226
             7       C                   0.161      0.100     -0.110    1.95790    0.11435    0.06843      0.219
            19       H                  -0.091     -0.188      0.002    0.09427   -2.58801    0.28303      0.209
            21       H                   0.088      0.054      0.152    4.03505    0.61109    0.37216      0.183
             9       O                  -0.117     -0.041     -0.115    2.92401    2.19810   -0.15552      0.169



       FINAL  POINT  AND  DERIVATIVES

   PARAMETER     ATOM    TYPE            VALUE        GRADIENT
      1          1  C    CARTESIAN X    -3.259416      0.027443  KCAL/ANGSTROM
      2          1  C    CARTESIAN Y     1.684000     -0.048998  KCAL/ANGSTROM
      3          1  C    CARTESIAN Z    -0.997939     -0.039569  KCAL/ANGSTROM
      4          2  C    CARTESIAN X    -2.599058      0.029515  KCAL/ANGSTROM
      5          2  C    CARTESIAN Y     0.328844      0.122764  KCAL/ANGSTROM
      6          2  C    CARTESIAN Z    -0.745113     -0.057992  KCAL/ANGSTROM
      7          3  C    CARTESIAN X    -1.816022     -0.111614  KCAL/ANGSTROM
      8          3  C    CARTESIAN Y     0.349594      0.245166  KCAL/ANGSTROM
      9          3  C    CARTESIAN Z     0.573893     -0.045077  KCAL/ANGSTROM
     10          4  C    CARTESIAN X    -1.291569     -0.136092  KCAL/ANGSTROM
     11          4  C    CARTESIAN Y    -1.037990      0.180806  KCAL/ANGSTROM
     12          4  C    CARTESIAN Z     0.960385     -0.000545  KCAL/ANGSTROM
     13          5  C    CARTESIAN X    -0.187483      0.003095  KCAL/ANGSTROM
     14          5  C    CARTESIAN Y    -1.543317      0.001354  KCAL/ANGSTROM
     15          5  C    CARTESIAN Z     0.006687      0.040053  KCAL/ANGSTROM
     16          6  C    CARTESIAN X     0.944661     -0.154321  KCAL/ANGSTROM
     17          6  C    CARTESIAN Y    -0.678329     -0.170169  KCAL/ANGSTROM
     18          6  C    CARTESIAN Z     0.034964     -0.116357  KCAL/ANGSTROM
     19          7  C    CARTESIAN X     1.957902      0.160520  KCAL/ANGSTROM
     20          7  C    CARTESIAN Y     0.114349      0.099915  KCAL/ANGSTROM
     21          7  C    CARTESIAN Z     0.068431     -0.110396  KCAL/ANGSTROM
     22          8  C    CARTESIAN X     3.046537      0.009887  KCAL/ANGSTROM
     23          8  C    CARTESIAN Y     1.019684      0.013361  KCAL/ANGSTROM
     24          8  C    CARTESIAN Z     0.099547      0.075464  KCAL/ANGSTROM
     25          9  O    CARTESIAN X     2.924011     -0.116689  KCAL/ANGSTROM
     26          9  O    CARTESIAN Y     2.198097     -0.040680  KCAL/ANGSTROM
     27          9  O    CARTESIAN Z    -0.155523     -0.114693  KCAL/ANGSTROM
     28         10  H    CARTESIAN X    -4.018322      0.069201  KCAL/ANGSTROM
     29         10  H    CARTESIAN Y     1.907241     -0.236145  KCAL/ANGSTROM
     30         10  H    CARTESIAN Z    -0.240357     -0.119289  KCAL/ANGSTROM
     31         11  H    CARTESIAN X    -2.523481     -0.063252  KCAL/ANGSTROM
     32         11  H    CARTESIAN Y     2.496825     -0.116063  KCAL/ANGSTROM
     33         11  H    CARTESIAN Z    -0.977504      0.265710  KCAL/ANGSTROM
     34         12  H    CARTESIAN X    -3.752446     -0.007892  KCAL/ANGSTROM
     35         12  H    CARTESIAN Y     1.711328      0.068780  KCAL/ANGSTROM
     36         12  H    CARTESIAN Z    -1.975529      0.139247  KCAL/ANGSTROM
     37         13  H    CARTESIAN X    -1.922687     -0.078010  KCAL/ANGSTROM
     38         13  H    CARTESIAN Y     0.079113     -0.068247  KCAL/ANGSTROM
     39         13  H    CARTESIAN Z    -1.584191      0.102119  KCAL/ANGSTROM
     40         14  H    CARTESIAN X    -3.365037      0.257688  KCAL/ANGSTROM
     41         14  H    CARTESIAN Y    -0.467803      0.047996  KCAL/ANGSTROM
     42         14  H    CARTESIAN Z    -0.723736     -0.074657  KCAL/ANGSTROM
     43         15  H    CARTESIAN X    -0.974091     -0.001677  KCAL/ANGSTROM
     44         15  H    CARTESIAN Y     1.066972     -0.053005  KCAL/ANGSTROM
     45         15  H    CARTESIAN Z     0.498348     -0.031104  KCAL/ANGSTROM
     46         16  H    CARTESIAN X    -2.462303      0.066705  KCAL/ANGSTROM
     47         16  H    CARTESIAN Y     0.736030     -0.010502  KCAL/ANGSTROM
     48         16  H    CARTESIAN Z     1.385771     -0.044804  KCAL/ANGSTROM
     49         17  H    CARTESIAN X    -0.896877      0.068154  KCAL/ANGSTROM
     50         17  H    CARTESIAN Y    -1.008174      0.049415  KCAL/ANGSTROM
     51         17  H    CARTESIAN Z     1.995178     -0.063048  KCAL/ANGSTROM
     52         18  H    CARTESIAN X    -2.123555      0.001528  KCAL/ANGSTROM
     53         18  H    CARTESIAN Y    -1.767281      0.051830  KCAL/ANGSTROM
     54         18  H    CARTESIAN Z     0.973906      0.007383  KCAL/ANGSTROM
     55         19  H    CARTESIAN X     0.094273     -0.091339  KCAL/ANGSTROM
     56         19  H    CARTESIAN Y    -2.588010     -0.188189  KCAL/ANGSTROM
     57         19  H    CARTESIAN Z     0.283026      0.002084  KCAL/ANGSTROM
     58         20  H    CARTESIAN X    -0.596973     -0.020692  KCAL/ANGSTROM
     59         20  H    CARTESIAN Y    -1.618085     -0.002968  KCAL/ANGSTROM
     60         20  H    CARTESIAN Z    -1.031695      0.033822  KCAL/ANGSTROM
     61         21  H    CARTESIAN X     4.035054      0.087838  KCAL/ANGSTROM
     62         21  H    CARTESIAN Y     0.611089      0.053574  KCAL/ANGSTROM
     63         21  H    CARTESIAN Z     0.372158      0.151646  KCAL/ANGSTROM




   ATOM   CHEMICAL          X               Y               Z
  NUMBER   SYMBOL      (ANGSTROMS)     (ANGSTROMS)     (ANGSTROMS)

     1       C         -3.25941553  *   1.68400045  *  -0.99793851  *
     2       C         -2.59905843  *   0.32884384  *  -0.74511309  *
     3       C         -1.81602226  *   0.34959422  *   0.57389280  *
     4       C         -1.29156912  *  -1.03799044  *   0.96038451  *
     5       C         -0.18748306  *  -1.54331737  *   0.00668689  *
     6       C          0.94466121  *  -0.67832857  *   0.03496380  *
     7       C          1.95790179  *   0.11434898  *   0.06843061  *
     8       C          3.04653675  *   1.01968393  *   0.09954713  *
     9       O          2.92401137  *   2.19809715  *  -0.15552254  *
    10       H         -4.01832171  *   1.90724114  *  -0.24035688  *
    11       H         -2.52348144  *   2.49682530  *  -0.97750381  *
    12       H         -3.75244609  *   1.71132790  *  -1.97552877  *
    13       H         -1.92268702  *   0.07911333  *  -1.58419060  *
    14       H         -3.36503722  *  -0.46780272  *  -0.72373629  *
    15       H         -0.97409134  *   1.06697227  *   0.49834767  *
    16       H         -2.46230332  *   0.73603021  *   1.38577107  *
    17       H         -0.89687673  *  -1.00817410  *   1.99517776  *
    18       H         -2.12355459  *  -1.76728128  *   0.97390643  *
    19       H          0.09427283  *  -2.58800965  *   0.28302588  *
    20       H         -0.59697333  *  -1.61808495  *  -1.03169535  *
    21       H          4.03505412  *   0.61108928  *   0.37215816  *

                             CARTESIAN COORDINATES

   1    C       -3.259415527     1.684000446    -0.997938507
   2    C       -2.599058432     0.328843836    -0.745113086
   3    C       -1.816022258     0.349594216     0.573892796
   4    C       -1.291569115    -1.037990439     0.960384509
   5    C       -0.187483062    -1.543317366     0.006686887
   6    C        0.944661214    -0.678328567     0.034963798
   7    C        1.957901793     0.114348977     0.068430608
   8    C        3.046536748     1.019683930     0.099547130
   9    O        2.924011374     2.198097154    -0.155522544
  10    H       -4.018321710     1.907241141    -0.240356885
  11    H       -2.523481444     2.496825303    -0.977503809
  12    H       -3.752446089     1.711327904    -1.975528771
  13    H       -1.922687024     0.079113327    -1.584190602
  14    H       -3.365037220    -0.467802719    -0.723736286
  15    H       -0.974091336     1.066972272     0.498347671
  16    H       -2.462303324     0.736030209     1.385771074
  17    H       -0.896876728    -1.008174098     1.995177763
  18    H       -2.123554589    -1.767281280     0.973906433
  19    H        0.094272832    -2.588009653     0.283025878
  20    H       -0.596973331    -1.618084949    -1.031695346
  21    H        4.035054124     0.611089282     0.372158159


           Empirical Formula: C8 H12 O  =    21 atoms



      MOLECULAR POINT GROUP   :   C1  


                  EIGENVALUES  
 -30.80420 -29.74417 -27.46693 -25.78780 -24.39601 -22.64715 -21.23790 -19.84594
 -17.56048 -16.66289 -16.18240 -15.79022 -14.95576 -14.76593 -14.35593 -14.10914
 -13.69738 -12.97414 -12.51357 -12.11628 -11.62610 -11.41436 -10.60365 -10.51503
 -10.27224  -0.24680   0.80334   1.93726   3.38292   3.64538   3.87034   4.29216
   4.46688   4.55398   4.91626   4.95344   5.30371   5.34112   5.38199   5.52168
   5.80577   5.87500   6.07734   6.14065   6.20841   6.55498   6.57543   7.02764


              NET ATOMIC CHARGES AND DIPOLE CONTRIBUTIONS

  ATOM NO.   TYPE          CHARGE      No. of ELECS.   s-Pop       p-Pop       
    1          C          -0.438732        4.4387     1.05199     3.38674
    2          C          -0.248100        4.2481     1.05490     3.19320
    3          C          -0.275341        4.2753     1.06043     3.21491
    4          C          -0.252730        4.2527     1.06049     3.19224
    5          C          -0.268049        4.2680     1.04355     3.22450
    6          C           0.067832        3.9322     1.13182     2.80035
    7          C          -0.286011        4.2860     1.12361     3.16241
    8          C           0.378050        3.6219     1.10758     2.51437
    9          O          -0.414970        6.4150     1.88278     4.53219
   10          H           0.141603        0.8584     0.85840
   11          H           0.149497        0.8505     0.85050
   12          H           0.141221        0.8588     0.85878
   13          H           0.133142        0.8669     0.86686
   14          H           0.131226        0.8688     0.86877
   15          H           0.152650        0.8473     0.84735
   16          H           0.140880        0.8591     0.85912
   17          H           0.143117        0.8569     0.85688
   18          H           0.141715        0.8583     0.85828
   19          H           0.166307        0.8337     0.83369
   20          H           0.176542        0.8235     0.82346
   21          H           0.120148        0.8799     0.87985
 DIPOLE           X         Y         Z       TOTAL
 POINT-CHG.    -1.487    -3.759     0.695     4.102
 HYBRID        -0.148     0.090    -0.113     0.207
 SUM           -1.635    -3.670     0.581     4.059


          ATOMIC ORBITAL ELECTRON POPULATIONS

     Atom    s        px        py        pz   
    1  C   1.05199   1.14940   1.07049   1.16685
    2  C   1.05490   1.09712   1.04408   1.05200
    3  C   1.06043   1.12217   1.03052   1.06221
    4  C   1.06049   1.05573   1.05799   1.07852
    5  C   1.04355   1.00691   1.08152   1.13607
    6  C   1.13182   0.94926   0.97382   0.87727
    7  C   1.12361   1.02611   1.02659   1.10970
    8  C   1.10758   0.96164   0.84177   0.71095
    9  O   1.88278   1.90328   1.25997   1.36893
   10  H   0.85840
   11  H   0.85050
   12  H   0.85878
   13  H   0.86686
   14  H   0.86877
   15  H   0.84735
   16  H   0.85912
   17  H   0.85688
   18  H   0.85828
   19  H   0.83369
   20  H   0.82346
   21  H   0.87985

 **********************
 *                    *
 * JOB ENDED NORMALLY *
 *                    *
 **********************



 TOTAL JOB TIME:             1.27 SECONDS

 == MOPAC DONE ==
