 *******************************************************************************
 **                                                                           **
 **                              MOPAC v23.2                                  **
 **                                                                           **
 *******************************************************************************
 **          Digital Object Identifier (DOI): 10.5281/zenodo.6511958          **
 **    Visit the DOI location for information on how to cite this program.    **
 *******************************************************************************

                              PM7 CALCULATION RESULTS

 *******************************************************************************
 *  CALCULATION DONE: (MAX THREADS = 40)             Fri Sep 19 21:42:38 2025  *
 *  PM7        - The PM7 Hamiltonian to be used
 *
 *
 *
 *                 CHARGE ON SYSTEM = +1
 *
 *
 *
 *  1SCF       - DO 1 SCF AND THEN STOP 
 *  T=         - A TIME OF 172800.0 SECONDS REQUESTED
 *  DUMP=N     - RESTART FILE WRITTEN EVERY 7200.0 SECONDS REQUESTED
 *  RELSCF     - DEFAULT SCF CRITERION MULTIPLIED BY 0.0001
 *              (DEFAULT SCF CRITERION = 0.00010)
 *  GRADIENTS  - ALL GRADIENTS TO BE PRINTED
 *  DISP       - PRINT DISPERSION AND HYDROGEN BOND ENERGIES
 *******************************************************************************
PM7 1SCF GRADIENTS DISP RELSCF=0.0001 CHARGE=1
 Title: ASE calculation

   ATOM   CHEMICAL          X               Y               Z
  NUMBER   SYMBOL      (ANGSTROMS)     (ANGSTROMS)     (ANGSTROMS)

     1       C          0.41437905  *   1.98988380  *  -0.18943540  *
     2       C          0.88310676  *   0.61817276  *  -0.20495484  *
     3       C          0.07438635  *  -0.55669694  *  -0.25182487  *
     4       C         -1.36800768  *  -0.58393313  *  -0.30861642  *
     5       C         -2.16636427  *  -1.45226230  *   0.69724649  *
     6       N         -1.95663116  *  -1.91236342  *  -0.66400889  *
     7       C          0.91316964  *  -1.76377638  *  -0.25131172  *
     8       C          2.37490846  *  -1.28906884  *  -0.19897052  *
     9       C          2.31314211  *   0.25278731  *  -0.16669010  *
    10       H          0.71038078  *   2.52689340  *   0.74301476  *
    11       H         -0.67768417  *   2.12080091  *  -0.28078734  *
    12       H          0.87059687  *   2.60737843  *  -0.99818220  *
    13       H         -1.85275191  *   0.33878730  *  -0.67433930  *
    14       H         -3.14169356  *  -1.09607075  *   1.05066650  *
    15       H         -1.63321938  *  -2.00693789  *   1.48087782  *
    16       H         -2.75112455  *  -1.89305240  *  -1.30300288  *
    17       H          0.65553642  *  -2.47309530  *   0.57359724  *
    18       H          0.69520127  *  -2.40974606  *  -1.14704547  *
    19       H          2.90181490  *  -1.69324800  *   0.68645098  *
    20       H          2.95094990  *  -1.65358519  *  -1.07216413  *
    21       H          2.83262659  *   0.66881717  *   0.73067939  *
    22       H          2.88854982  *   0.70483882  *  -1.01126890  *



          CARTESIAN COORDINATES 

    NO.       ATOM           X           Y           Z

     1         C          0.4144      1.9899     -0.1894
     2         C          0.8831      0.6182     -0.2050
     3         C          0.0744     -0.5567     -0.2518
     4         C         -1.3680     -0.5839     -0.3086
     5         C         -2.1664     -1.4523      0.6972
     6         N         -1.9566     -1.9124     -0.6640
     7         C          0.9132     -1.7638     -0.2513
     8         C          2.3749     -1.2891     -0.1990
     9         C          2.3131      0.2528     -0.1667
    10         H          0.7104      2.5269      0.7430
    11         H         -0.6777      2.1208     -0.2808
    12         H          0.8706      2.6074     -0.9982
    13         H         -1.8528      0.3388     -0.6743
    14         H         -3.1417     -1.0961      1.0507
    15         H         -1.6332     -2.0069      1.4809
    16         H         -2.7511     -1.8931     -1.3030
    17         H          0.6555     -2.4731      0.5736
    18         H          0.6952     -2.4097     -1.1470
    19         H          2.9018     -1.6932      0.6865
    20         H          2.9509     -1.6536     -1.0722
    21         H          2.8326      0.6688      0.7307
    22         H          2.8885      0.7048     -1.0113

 General Reference for PM7:
 "Optimization of Parameters for Semiempirical Methods VI: More Modifications to the 
 NDDO Approximations and Re-optimization of Parameters", J. J. P. Stewart, J. Mol. Mod., 1:32, 19 (2013)
 https://link.springer.com/article/10.1007/s00894-012-1667-x

           Empirical Formula: C8 H13 N  =    22 atoms



      MOLECULAR POINT GROUP   :   C1  


          UHF CALCULATION, NO. OF ALPHA ELECTRONS =   25
                           NO. OF BETA  ELECTRONS =   24
  SCF CRITERION =    0.1000E-07

 -------------------------------------------------------------------------------
 PM7 1SCF GRADIENTS DISP RELSCF=0.0001 CHARGE=1
 Title: ASE calculation



     1SCF WAS SPECIFIED, SO BFGS WAS NOT USED                 
     SCF FIELD WAS ACHIEVED                                   


                              PM7 CALCULATION
                                                       MOPAC v23.2 Linux
                                                       Fri Sep 19 21:42:38 2025




          FINAL HEAT OF FORMATION =        215.29663 KCAL/MOL =     900.80110 KJ/MOL

          TOTAL ENERGY            =     -30791.26249 KCAL/MOL = ELECTRONIC ENERGY + CORE-CORE REPULSION
          ENERGY OF ATOMS         =      31008.88895 KCAL/MOL
                              SUM =        217.62646 KCAL/MOL
          DISPERSION ENERGY       =         -2.32983 KCAL/MOL
                              SUM =        215.29663 KCAL/MOL = FINAL HEAT OF FORMATION



          TOTAL ENERGY            =      -1335.23552 EV
          ELECTRONIC ENERGY       =      -7158.94189 EV 
          CORE-CORE REPULSION     =       5823.70637 EV
          COSMO AREA              =        175.02 SQUARE ANGSTROMS
          COSMO VOLUME            =        173.69 CUBIC ANGSTROMS

          GRADIENT NORM           =          1.10955          =       0.23656 PER ATOM
          IONIZATION POTENTIAL    =         14.047950 EV
          ALPHA SOMO LUMO (EV)    =        -14.048 -5.413
          BETA  SOMO LUMO (EV)    =        -14.464 -7.101
          NO. OF ALPHA ELECTRONS  =         25
          NO. OF BETA  ELECTRONS  =         24
          MOLECULAR WEIGHT        =        123.1974         POINT GROUP:  C1  

          MOLECULAR DIMENSIONS (Angstroms)

            Atom       Atom       Distance
            H    22    H    14     6.62259
            H    10    H    18     5.23005
            H    16    H    19     3.85921


          SCF CALCULATIONS        =          1

          WALL-CLOCK TIME         =      0.797 SECONDS
          COMPUTATION TIME        =      0.429 SECONDS

          LARGEST ATOMIC GRADIENTS

          Atom     Label                     Cartesian Gradients           Cartesian Coordinates       |Gradient|
                                           X          Y          Z        X          Y          Z

             5       C                   0.177     -0.001      0.379   -2.16636   -1.45226    0.69725      0.418
             7       C                   0.185      0.297     -0.087    0.91317   -1.76378   -0.25131      0.360
            17       H                  -0.277      0.150     -0.171    0.65554   -2.47310    0.57360      0.359
            16       H                  -0.110      0.178      0.228   -2.75112   -1.89305   -1.30300      0.309
            15       H                  -0.167     -0.242     -0.020   -1.63322   -2.00694    1.48088      0.295
            13       H                   0.108     -0.014     -0.269   -1.85275    0.33879   -0.67434      0.290
            22       H                   0.015     -0.145      0.227    2.88855    0.70484   -1.01127      0.270
             6       N                   0.150     -0.166     -0.088   -1.95663   -1.91236   -0.66401      0.240
             8       C                   0.174     -0.093     -0.123    2.37491   -1.28907   -0.19897      0.233
            18       H                   0.019      0.104      0.206    0.69520   -2.40975   -1.14705      0.231



       FINAL  POINT  AND  DERIVATIVES

   PARAMETER     ATOM    TYPE            VALUE        GRADIENT
      1          1  C    CARTESIAN X     0.414379     -0.081636  KCAL/ANGSTROM
      2          1  C    CARTESIAN Y     1.989884      0.036883  KCAL/ANGSTROM
      3          1  C    CARTESIAN Z    -0.189435     -0.096689  KCAL/ANGSTROM
      4          2  C    CARTESIAN X     0.883107     -0.104544  KCAL/ANGSTROM
      5          2  C    CARTESIAN Y     0.618173      0.140555  KCAL/ANGSTROM
      6          2  C    CARTESIAN Z    -0.204955      0.113008  KCAL/ANGSTROM
      7          3  C    CARTESIAN X     0.074386      0.059176  KCAL/ANGSTROM
      8          3  C    CARTESIAN Y    -0.556697      0.071528  KCAL/ANGSTROM
      9          3  C    CARTESIAN Z    -0.251825     -0.199911  KCAL/ANGSTROM
     10          4  C    CARTESIAN X    -1.368008      0.078018  KCAL/ANGSTROM
     11          4  C    CARTESIAN Y    -0.583933     -0.125220  KCAL/ANGSTROM
     12          4  C    CARTESIAN Z    -0.308616      0.124986  KCAL/ANGSTROM
     13          5  C    CARTESIAN X    -2.166364      0.177344  KCAL/ANGSTROM
     14          5  C    CARTESIAN Y    -1.452262     -0.000542  KCAL/ANGSTROM
     15          5  C    CARTESIAN Z     0.697246      0.378519  KCAL/ANGSTROM
     16          6  N    CARTESIAN X    -1.956631      0.150311  KCAL/ANGSTROM
     17          6  N    CARTESIAN Y    -1.912363     -0.165593  KCAL/ANGSTROM
     18          6  N    CARTESIAN Z    -0.664009     -0.088188  KCAL/ANGSTROM
     19          7  C    CARTESIAN X     0.913170      0.185093  KCAL/ANGSTROM
     20          7  C    CARTESIAN Y    -1.763776      0.296508  KCAL/ANGSTROM
     21          7  C    CARTESIAN Z    -0.251312     -0.086872  KCAL/ANGSTROM
     22          8  C    CARTESIAN X     2.374908      0.174276  KCAL/ANGSTROM
     23          8  C    CARTESIAN Y    -1.289069     -0.093233  KCAL/ANGSTROM
     24          8  C    CARTESIAN Z    -0.198971     -0.123116  KCAL/ANGSTROM
     25          9  C    CARTESIAN X     2.313142     -0.145925  KCAL/ANGSTROM
     26          9  C    CARTESIAN Y     0.252787     -0.025030  KCAL/ANGSTROM
     27          9  C    CARTESIAN Z    -0.166690      0.138439  KCAL/ANGSTROM
     28         10  H    CARTESIAN X     0.710381      0.047863  KCAL/ANGSTROM
     29         10  H    CARTESIAN Y     2.526893     -0.083553  KCAL/ANGSTROM
     30         10  H    CARTESIAN Z     0.743015     -0.033870  KCAL/ANGSTROM
     31         11  H    CARTESIAN X    -0.677684      0.005431  KCAL/ANGSTROM
     32         11  H    CARTESIAN Y     2.120801      0.068090  KCAL/ANGSTROM
     33         11  H    CARTESIAN Z    -0.280787     -0.110743  KCAL/ANGSTROM
     34         12  H    CARTESIAN X     0.870597     -0.029132  KCAL/ANGSTROM
     35         12  H    CARTESIAN Y     2.607378     -0.074484  KCAL/ANGSTROM
     36         12  H    CARTESIAN Z    -0.998182      0.067272  KCAL/ANGSTROM
     37         13  H    CARTESIAN X    -1.852752      0.108414  KCAL/ANGSTROM
     38         13  H    CARTESIAN Y     0.338787     -0.014290  KCAL/ANGSTROM
     39         13  H    CARTESIAN Z    -0.674339     -0.268934  KCAL/ANGSTROM
     40         14  H    CARTESIAN X    -3.141694     -0.083315  KCAL/ANGSTROM
     41         14  H    CARTESIAN Y    -1.096071     -0.024496  KCAL/ANGSTROM
     42         14  H    CARTESIAN Z     1.050667     -0.065267  KCAL/ANGSTROM
     43         15  H    CARTESIAN X    -1.633219     -0.166547  KCAL/ANGSTROM
     44         15  H    CARTESIAN Y    -2.006938     -0.242458  KCAL/ANGSTROM
     45         15  H    CARTESIAN Z     1.480878     -0.019726  KCAL/ANGSTROM
     46         16  H    CARTESIAN X    -2.751125     -0.110077  KCAL/ANGSTROM
     47         16  H    CARTESIAN Y    -1.893052      0.177638  KCAL/ANGSTROM
     48         16  H    CARTESIAN Z    -1.303003      0.228058  KCAL/ANGSTROM
     49         17  H    CARTESIAN X     0.655536     -0.276837  KCAL/ANGSTROM
     50         17  H    CARTESIAN Y    -2.473095      0.150291  KCAL/ANGSTROM
     51         17  H    CARTESIAN Z     0.573597     -0.171162  KCAL/ANGSTROM
     52         18  H    CARTESIAN X     0.695201      0.019098  KCAL/ANGSTROM
     53         18  H    CARTESIAN Y    -2.409746      0.103901  KCAL/ANGSTROM
     54         18  H    CARTESIAN Z    -1.147045      0.205545  KCAL/ANGSTROM
     55         19  H    CARTESIAN X     2.901815     -0.114934  KCAL/ANGSTROM
     56         19  H    CARTESIAN Y    -1.693248     -0.023250  KCAL/ANGSTROM
     57         19  H    CARTESIAN Z     0.686451      0.019085  KCAL/ANGSTROM
     58         20  H    CARTESIAN X     2.950950      0.079220  KCAL/ANGSTROM
     59         20  H    CARTESIAN Y    -1.653585     -0.055134  KCAL/ANGSTROM
     60         20  H    CARTESIAN Z    -1.072164     -0.154556  KCAL/ANGSTROM
     61         21  H    CARTESIAN X     2.832627      0.013820  KCAL/ANGSTROM
     62         21  H    CARTESIAN Y     0.668817      0.027016  KCAL/ANGSTROM
     63         21  H    CARTESIAN Z     0.730679     -0.082804  KCAL/ANGSTROM
     64         22  H    CARTESIAN X     2.888550      0.014879  KCAL/ANGSTROM
     65         22  H    CARTESIAN Y     0.704839     -0.145127  KCAL/ANGSTROM
     66         22  H    CARTESIAN Z    -1.011269      0.226925  KCAL/ANGSTROM




   ATOM   CHEMICAL          X               Y               Z
  NUMBER   SYMBOL      (ANGSTROMS)     (ANGSTROMS)     (ANGSTROMS)

     1       C          0.41437905  *   1.98988380  *  -0.18943540  *
     2       C          0.88310676  *   0.61817276  *  -0.20495484  *
     3       C          0.07438635  *  -0.55669694  *  -0.25182487  *
     4       C         -1.36800768  *  -0.58393313  *  -0.30861642  *
     5       C         -2.16636427  *  -1.45226230  *   0.69724649  *
     6       N         -1.95663116  *  -1.91236342  *  -0.66400889  *
     7       C          0.91316964  *  -1.76377638  *  -0.25131172  *
     8       C          2.37490846  *  -1.28906884  *  -0.19897052  *
     9       C          2.31314211  *   0.25278731  *  -0.16669010  *
    10       H          0.71038078  *   2.52689340  *   0.74301476  *
    11       H         -0.67768417  *   2.12080091  *  -0.28078734  *
    12       H          0.87059687  *   2.60737843  *  -0.99818220  *
    13       H         -1.85275191  *   0.33878730  *  -0.67433930  *
    14       H         -3.14169356  *  -1.09607075  *   1.05066650  *
    15       H         -1.63321938  *  -2.00693789  *   1.48087782  *
    16       H         -2.75112455  *  -1.89305240  *  -1.30300288  *
    17       H          0.65553642  *  -2.47309530  *   0.57359724  *
    18       H          0.69520127  *  -2.40974606  *  -1.14704547  *
    19       H          2.90181490  *  -1.69324800  *   0.68645098  *
    20       H          2.95094990  *  -1.65358519  *  -1.07216413  *
    21       H          2.83262659  *   0.66881717  *   0.73067939  *
    22       H          2.88854982  *   0.70483882  *  -1.01126890  *

                             CARTESIAN COORDINATES

   1    C        0.414379046     1.989883795    -0.189435399
   2    C        0.883106762     0.618172756    -0.204954843
   3    C        0.074386348    -0.556696942    -0.251824869
   4    C       -1.368007685    -0.583933134    -0.308616422
   5    C       -2.166364271    -1.452262301     0.697246493
   6    N       -1.956631163    -1.912363424    -0.664008893
   7    C        0.913169639    -1.763776376    -0.251311724
   8    C        2.374908459    -1.289068844    -0.198970522
   9    C        2.313142111     0.252787309    -0.166690097
  10    H        0.710380783     2.526893402     0.743014764
  11    H       -0.677684174     2.120800914    -0.280787338
  12    H        0.870596867     2.607378431    -0.998182198
  13    H       -1.852751908     0.338787301    -0.674339297
  14    H       -3.141693555    -1.096070745     1.050666501
  15    H       -1.633219376    -2.006937888     1.480877818
  16    H       -2.751124554    -1.893052404    -1.303002879
  17    H        0.655536419    -2.473095305     0.573597244
  18    H        0.695201266    -2.409746064    -1.147045471
  19    H        2.901814900    -1.693247996     0.686450980
  20    H        2.950949905    -1.653585186    -1.072164129
  21    H        2.832626593     0.668817171     0.730679391
  22    H        2.888549816     0.704838815    -1.011268904


           Empirical Formula: C8 H13 N  =    22 atoms



      MOLECULAR POINT GROUP   :   C1  


          ALPHA EIGENVALUES  
 -40.93896 -35.90199 -31.77608 -30.84350 -27.97339 -27.63446 -26.00321 -24.65793
 -22.55873 -21.99309 -21.33608 -21.17899 -19.54032 -19.05206 -18.78475 -18.32654
 -18.06086 -17.54837 -17.31019 -17.16793 -17.06703 -16.97383 -16.04964 -14.68759
 -14.04795  -5.41321  -2.25825  -1.91299  -1.60729  -1.26633  -1.11419  -0.93078
  -0.72674  -0.44353  -0.13756   0.07368   0.57238   0.65697   0.68845   0.84261
   0.93821   1.20938   1.52314   1.62757   1.68110   1.89565   2.04604   2.29431
   2.32561


           BETA EIGENVALUES 
 -40.87751 -35.74648 -31.70062 -30.75520 -27.90686 -27.51321 -25.94757 -24.53420
 -22.48951 -21.92616 -21.25225 -20.82851 -19.46986 -18.81438 -18.70003 -18.12508
 -17.88773 -17.47973 -17.23317 -17.08694 -16.90939 -16.84806 -15.74074 -14.46385
  -7.10128  -4.12623  -2.08115  -1.84335  -1.50889  -1.19008  -0.99738  -0.78208
  -0.68245  -0.34574  -0.04616   0.10645   0.64355   0.67693   0.76611   0.92093
   0.96228   1.21989   1.53492   1.67005   1.70223   1.93718   2.07023   2.30495
   2.33418


              NET ATOMIC CHARGES AND DIPOLE CONTRIBUTIONS

  ATOM NO.   TYPE          CHARGE      No. of ELECS.   s-Pop       p-Pop       
    1          C          -0.512782        4.5128     1.05110     3.46168
    2          C           0.219790        3.7802     1.13253     2.64768
    3          C           0.200293        3.7997     1.13068     2.66903
    4          C          -0.201386        4.2014     1.06087     3.14052
    5          C          -0.107883        4.1079     1.08738     3.02050
    6          N          -0.404429        5.4044     1.72263     3.68180
    7          C          -0.325864        4.3259     1.06475     3.26111
    8          C          -0.254097        4.2541     1.06476     3.18934
    9          C          -0.340440        4.3404     1.06715     3.27329
   10          H           0.226280        0.7737     0.77372
   11          H           0.192424        0.8076     0.80758
   12          H           0.225283        0.7747     0.77472
   13          H           0.192497        0.8075     0.80750
   14          H           0.181976        0.8180     0.81802
   15          H           0.188123        0.8119     0.81188
   16          H           0.291150        0.7089     0.70885
   17          H           0.217567        0.7824     0.78243
   18          H           0.234743        0.7653     0.76526
   19          H           0.174284        0.8257     0.82572
   20          H           0.177102        0.8229     0.82290
   21          H           0.211800        0.7882     0.78820
   22          H           0.213570        0.7864     0.78643
 DIPOLE           X         Y         Z       TOTAL
 POINT-CHG.     0.962     2.385     0.917     2.730
 HYBRID        -0.846     0.645    -0.311     1.108
 SUM            0.116     3.030     0.606     3.092


          ATOMIC ORBITAL ELECTRON POPULATIONS

     Atom    s        px        py        pz   
    1  C   1.05110   1.20898   1.03315   1.21954
    2  C   1.13253   0.98996   0.96716   0.69056
    3  C   1.13068   0.97255   0.98973   0.70675
    4  C   1.06087   0.98008   0.99931   1.16113
    5  C   1.08738   1.10368   0.97835   0.93847
    6  N   1.72263   1.38240   1.18134   1.11806
    7  C   1.06475   1.00213   1.04994   1.20904
    8  C   1.06476   1.01527   0.96635   1.20771
    9  C   1.06715   1.01099   1.06213   1.20017
   10  H   0.77372
   11  H   0.80758
   12  H   0.77472
   13  H   0.80750
   14  H   0.81802
   15  H   0.81188
   16  H   0.70885
   17  H   0.78243
   18  H   0.76526
   19  H   0.82572
   20  H   0.82290
   21  H   0.78820
   22  H   0.78643


                    (SZ)    =    0.500000
                    (S**2)  =    0.753535


          ATOMIC ORBITAL SPIN POPULATIONS

    Atom   Total    s     px     py     pz   
         Atomic
    1  C -0.0048 -0.003 -0.002 -0.012  0.012
    2  C  0.4248  0.009  0.011  0.008  0.398
    3  C  0.3593  0.007  0.010  0.004  0.339
    4  C -0.0257 -0.004 -0.011 -0.006 -0.005
    5  C  0.0639  0.003  0.017  0.042  0.002
    6  N  0.0334 -0.002 -0.003  0.039 -0.002
    7  C  0.0058 -0.003 -0.003 -0.011  0.022
    8  C  0.0019 -0.000 -0.000  0.000  0.002
    9  C -0.0054 -0.003 -0.014 -0.002  0.014
   10  H  0.0222  0.022
   11  H  0.0003  0.000
   12  H  0.0194  0.019
   13  H  0.0025  0.003
   14  H -0.0014 -0.001
   15  H -0.0006 -0.001
   16  H -0.0013 -0.001
   17  H  0.0252  0.025
   18  H  0.0272  0.027
   19  H  0.0018  0.002
   20  H  0.0020  0.002
   21  H  0.0249  0.025
   22  H  0.0244  0.024

 **********************
 *                    *
 * JOB ENDED NORMALLY *
 *                    *
 **********************



 TOTAL JOB TIME:             1.17 SECONDS

 == MOPAC DONE ==
