 *******************************************************************************
 **                                                                           **
 **                              MOPAC v23.2                                  **
 **                                                                           **
 *******************************************************************************
 **          Digital Object Identifier (DOI): 10.5281/zenodo.6511958          **
 **    Visit the DOI location for information on how to cite this program.    **
 *******************************************************************************

                              PM7 CALCULATION RESULTS

 *******************************************************************************
 *  CALCULATION DONE: (MAX THREADS = 40)             Fri Sep 19 21:32:59 2025  *
 *  PM7        - The PM7 Hamiltonian to be used
 *
 *
 *
 *                 CHARGE ON SYSTEM = +1
 *
 *
 *
 *  EPS=37.5   - USE ANDREAS KLAMT'S COSMO IMPLICIT SOLVATION MODEL
 *  1SCF       - DO 1 SCF AND THEN STOP 
 *  T=         - A TIME OF 172800.0 SECONDS REQUESTED
 *  DUMP=N     - RESTART FILE WRITTEN EVERY 7200.0 SECONDS REQUESTED
 *  RELSCF     - DEFAULT SCF CRITERION MULTIPLIED BY 0.0001
 *              (DEFAULT SCF CRITERION = 0.00010)
 *  GRADIENTS  - ALL GRADIENTS TO BE PRINTED
 *  DISP       - PRINT DISPERSION AND HYDROGEN BOND ENERGIES
 *******************************************************************************
PM7 1SCF GRADIENTS EPS=37.5 DISP RELSCF=0.0001 CHARGE=1
 Title: ASE calculation

   ATOM   CHEMICAL          X               Y               Z
  NUMBER   SYMBOL      (ANGSTROMS)     (ANGSTROMS)     (ANGSTROMS)

     1       C         -1.94277145  *  -1.34819481  *   0.14493809  *
     2       C         -0.69098321  *  -0.60370537  *  -0.31598508  *
     3       C         -0.40147263  *   0.53806197  *   0.67486794  *
     4       C          0.85141526  *   1.27579657  *   0.29590755  *
     5       O          1.10625855  *   2.37297903  *   0.77497319  *
     6       C          1.81416863  *   0.61303234  *  -0.65135886  *
     7       C          1.85676959  *  -0.87465207  *  -0.23201257  *
     8       O          2.14697383  *  -0.76956636  *   1.14819875  *
     9       C          0.50444109  *  -1.56796996  *  -0.41233219  *
    10       H         -1.83885942  *  -1.77106732  *   1.15292215  *
    11       H         -2.83302099  *  -0.70402214  *   0.14836447  *
    12       H         -2.17365245  *  -2.19124108  *  -0.52533326  *
    13       H         -0.89234115  *  -0.16687658  *  -1.32797239  *
    14       H         -1.27255067  *   1.22961407  *   0.76081039  *
    15       H         -0.24379206  *   0.11235644  *   1.70818902  *
    16       H          1.47231108  *   0.72832395  *  -1.70818902  *
    17       H          2.83302099  *   1.06659358  *  -0.59353513  *
    18       H          2.68247613  *  -1.40882837  *  -0.75893260  *
    19       H          2.51633941  *  -1.59955303  *   1.52124109  *
    20       H          0.46834110  *  -2.10758407  *  -1.38257887  *
    21       H          0.40995805  *  -2.37297903  *   0.35145141  *



          CARTESIAN COORDINATES 

    NO.       ATOM           X           Y           Z

     1         C         -1.9428     -1.3482      0.1449
     2         C         -0.6910     -0.6037     -0.3160
     3         C         -0.4015      0.5381      0.6749
     4         C          0.8514      1.2758      0.2959
     5         O          1.1063      2.3730      0.7750
     6         C          1.8142      0.6130     -0.6514
     7         C          1.8568     -0.8747     -0.2320
     8         O          2.1470     -0.7696      1.1482
     9         C          0.5044     -1.5680     -0.4123
    10         H         -1.8389     -1.7711      1.1529
    11         H         -2.8330     -0.7040      0.1484
    12         H         -2.1737     -2.1912     -0.5253
    13         H         -0.8923     -0.1669     -1.3280
    14         H         -1.2726      1.2296      0.7608
    15         H         -0.2438      0.1124      1.7082
    16         H          1.4723      0.7283     -1.7082
    17         H          2.8330      1.0666     -0.5935
    18         H          2.6825     -1.4088     -0.7589
    19         H          2.5163     -1.5996      1.5212
    20         H          0.4683     -2.1076     -1.3826
    21         H          0.4100     -2.3730      0.3515

 General Reference for PM7:
 "Optimization of Parameters for Semiempirical Methods VI: More Modifications to the 
 NDDO Approximations and Re-optimization of Parameters", J. J. P. Stewart, J. Mol. Mod., 1:32, 19 (2013)
 https://link.springer.com/article/10.1007/s00894-012-1667-x

           Empirical Formula: C7 H12 O2  =    21 atoms



      MOLECULAR POINT GROUP   :   C1  


          UHF CALCULATION, NO. OF ALPHA ELECTRONS =   26
                           NO. OF BETA  ELECTRONS =   25
  SCF CRITERION =    0.1000E-07

 -------------------------------------------------------------------------------
 PM7 1SCF GRADIENTS EPS=37.5 DISP RELSCF=0.0001 CHARGE=1
 Title: ASE calculation



     1SCF WAS SPECIFIED, SO BFGS WAS NOT USED                 
     SCF FIELD WAS ACHIEVED                                   


                              PM7 CALCULATION
                                                       MOPAC v23.2 Linux
                                                       Fri Sep 19 21:33:00 2025




          FINAL HEAT OF FORMATION =         53.14982 KCAL/MOL =     222.37883 KJ/MOL

          TOTAL ENERGY            =     -37042.05990 KCAL/MOL = ELECTRONIC ENERGY + CORE-CORE REPULSION + SOLVATION ENERGY
          ENERGY OF ATOMS         =      37097.27293 KCAL/MOL
                              SUM =         55.21304 KCAL/MOL
          DISPERSION ENERGY       =         -2.06322 KCAL/MOL
                              SUM =         53.14982 KCAL/MOL = FINAL HEAT OF FORMATION

          VAN DER WAALS AREA      =        163.45 SQUARE ANGSTROMS


          TOTAL ENERGY            =      -1606.29575 EV
          ELECTRONIC ENERGY       =      -2498.72235 EV 
          CORE-CORE REPULSION     =        892.42660 EV

          DIELECTRIC ENERGY       =         -2.33712 EV
          COSMO AREA              =        163.45 SQUARE ANGSTROMS
          COSMO VOLUME            =        166.61 CUBIC ANGSTROMS

          GRADIENT NORM           =         13.71800          =       2.99351 PER ATOM
          IONIZATION POTENTIAL    =         11.299004 EV
          ALPHA SOMO LUMO (EV)    =        -11.299 -1.403
          BETA  SOMO LUMO (EV)    =        -11.318 -3.939
          NO. OF ALPHA ELECTRONS  =         26
          NO. OF BETA  ELECTRONS  =         25
          MOLECULAR WEIGHT        =        128.1706         POINT GROUP:  C1  

          MOLECULAR DIMENSIONS (Angstroms)

            Atom       Atom       Distance
            H    17    H    11     5.98243
            O     5    H    20     4.72999
            H    16    H    19     4.07666


          SCF CALCULATIONS        =          2

          WALL-CLOCK TIME         =      1.266 SECONDS
          COMPUTATION TIME        =      0.725 SECONDS

          LARGEST ATOMIC GRADIENTS

          Atom     Label                     Cartesian Gradients           Cartesian Coordinates       |Gradient|
                                           X          Y          Z        X          Y          Z

             6       C                   0.414      3.006     -5.459    1.81417    0.61303   -0.65136      6.246
             7       C                   1.522     -3.502      4.844    1.85677   -0.87465   -0.23201      6.168
             1       C                   3.256      3.411      1.213   -1.94277   -1.34819    0.14494      4.869
             8       O                  -2.878      0.572     -3.818    2.14697   -0.76957    1.14820      4.815
             4       C                   2.230      1.418      1.925    0.85142    1.27580    0.29591      3.270
             3       C                  -2.141      2.220      0.945   -0.40147    0.53806    0.67487      3.226
             9       C                   0.648      2.347     -0.903    0.50444   -1.56797   -0.41233      2.597
            19       H                   0.531      1.992      0.950    2.51634   -1.59955    1.52124      2.270
            17       H                   1.188     -0.744      1.495    2.83302    1.06659   -0.59354      2.049
             2       C                   0.257     -1.202     -1.477   -0.69098   -0.60371   -0.31599      1.921



       FINAL  POINT  AND  DERIVATIVES

   PARAMETER     ATOM    TYPE            VALUE        GRADIENT
      1          1  C    CARTESIAN X    -1.942771      3.256275  KCAL/ANGSTROM
      2          1  C    CARTESIAN Y    -1.348195      3.410997  KCAL/ANGSTROM
      3          1  C    CARTESIAN Z     0.144938      1.212773  KCAL/ANGSTROM
      4          2  C    CARTESIAN X    -0.690983      0.256903  KCAL/ANGSTROM
      5          2  C    CARTESIAN Y    -0.603705     -1.201638  KCAL/ANGSTROM
      6          2  C    CARTESIAN Z    -0.315985     -1.476759  KCAL/ANGSTROM
      7          3  C    CARTESIAN X    -0.401473     -2.140904  KCAL/ANGSTROM
      8          3  C    CARTESIAN Y     0.538062      2.220249  KCAL/ANGSTROM
      9          3  C    CARTESIAN Z     0.674868      0.945348  KCAL/ANGSTROM
     10          4  C    CARTESIAN X     0.851415      2.230213  KCAL/ANGSTROM
     11          4  C    CARTESIAN Y     1.275797      1.418359  KCAL/ANGSTROM
     12          4  C    CARTESIAN Z     0.295908      1.924772  KCAL/ANGSTROM
     13          5  O    CARTESIAN X     1.106259      0.485089  KCAL/ANGSTROM
     14          5  O    CARTESIAN Y     2.372979     -0.171761  KCAL/ANGSTROM
     15          5  O    CARTESIAN Z     0.774973      1.207803  KCAL/ANGSTROM
     16          6  C    CARTESIAN X     1.814169      0.413986  KCAL/ANGSTROM
     17          6  C    CARTESIAN Y     0.613032      3.006072  KCAL/ANGSTROM
     18          6  C    CARTESIAN Z    -0.651359     -5.459392  KCAL/ANGSTROM
     19          7  C    CARTESIAN X     1.856770      1.522319  KCAL/ANGSTROM
     20          7  C    CARTESIAN Y    -0.874652     -3.501910  KCAL/ANGSTROM
     21          7  C    CARTESIAN Z    -0.232013      4.844442  KCAL/ANGSTROM
     22          8  O    CARTESIAN X     2.146974     -2.877674  KCAL/ANGSTROM
     23          8  O    CARTESIAN Y    -0.769566      0.571961  KCAL/ANGSTROM
     24          8  O    CARTESIAN Z     1.148199     -3.818016  KCAL/ANGSTROM
     25          9  C    CARTESIAN X     0.504441      0.647627  KCAL/ANGSTROM
     26          9  C    CARTESIAN Y    -1.567970      2.347282  KCAL/ANGSTROM
     27          9  C    CARTESIAN Z    -0.412332     -0.902966  KCAL/ANGSTROM
     28         10  H    CARTESIAN X    -1.838859     -0.939441  KCAL/ANGSTROM
     29         10  H    CARTESIAN Y    -1.771067     -1.275696  KCAL/ANGSTROM
     30         10  H    CARTESIAN Z     1.152922      0.119801  KCAL/ANGSTROM
     31         11  H    CARTESIAN X    -2.833021     -1.509293  KCAL/ANGSTROM
     32         11  H    CARTESIAN Y    -0.704022     -0.824826  KCAL/ANGSTROM
     33         11  H    CARTESIAN Z     0.148364     -0.410124  KCAL/ANGSTROM
     34         12  H    CARTESIAN X    -2.173652     -1.047663  KCAL/ANGSTROM
     35         12  H    CARTESIAN Y    -2.191241     -1.083549  KCAL/ANGSTROM
     36         12  H    CARTESIAN Z    -0.525333     -0.252459  KCAL/ANGSTROM
     37         13  H    CARTESIAN X    -0.892341     -1.016075  KCAL/ANGSTROM
     38         13  H    CARTESIAN Y    -0.166877     -0.649849  KCAL/ANGSTROM
     39         13  H    CARTESIAN Z    -1.327972      0.086432  KCAL/ANGSTROM
     40         14  H    CARTESIAN X    -1.272551     -1.051460  KCAL/ANGSTROM
     41         14  H    CARTESIAN Y     1.229614     -0.344363  KCAL/ANGSTROM
     42         14  H    CARTESIAN Z     0.760810     -0.091152  KCAL/ANGSTROM
     43         15  H    CARTESIAN X    -0.243792      0.703670  KCAL/ANGSTROM
     44         15  H    CARTESIAN Y     0.112356     -1.692980  KCAL/ANGSTROM
     45         15  H    CARTESIAN Z     1.708189      0.535963  KCAL/ANGSTROM
     46         16  H    CARTESIAN X     1.472311      0.037535  KCAL/ANGSTROM
     47         16  H    CARTESIAN Y     0.728324     -1.192203  KCAL/ANGSTROM
     48         16  H    CARTESIAN Z    -1.708189      0.478998  KCAL/ANGSTROM
     49         17  H    CARTESIAN X     2.833021      1.187694  KCAL/ANGSTROM
     50         17  H    CARTESIAN Y     1.066594     -0.743873  KCAL/ANGSTROM
     51         17  H    CARTESIAN Z    -0.593535      1.495246  KCAL/ANGSTROM
     52         18  H    CARTESIAN X     2.682476      0.639390  KCAL/ANGSTROM
     53         18  H    CARTESIAN Y    -1.408828      0.090354  KCAL/ANGSTROM
     54         18  H    CARTESIAN Z    -0.758933     -1.188958  KCAL/ANGSTROM
     55         19  H    CARTESIAN X     2.516339      0.530997  KCAL/ANGSTROM
     56         19  H    CARTESIAN Y    -1.599553      1.991584  KCAL/ANGSTROM
     57         19  H    CARTESIAN Z     1.521241      0.950125  KCAL/ANGSTROM
     58         20  H    CARTESIAN X     0.468341     -0.722071  KCAL/ANGSTROM
     59         20  H    CARTESIAN Y    -2.107584     -1.246658  KCAL/ANGSTROM
     60         20  H    CARTESIAN Z    -1.382579     -0.290531  KCAL/ANGSTROM
     61         21  H    CARTESIAN X     0.409958     -0.607116  KCAL/ANGSTROM
     62         21  H    CARTESIAN Y    -2.372979     -1.127555  KCAL/ANGSTROM
     63         21  H    CARTESIAN Z     0.351451      0.088652  KCAL/ANGSTROM




   ATOM   CHEMICAL          X               Y               Z
  NUMBER   SYMBOL      (ANGSTROMS)     (ANGSTROMS)     (ANGSTROMS)

     1       C         -1.94277145  *  -1.34819481  *   0.14493809  *
     2       C         -0.69098321  *  -0.60370537  *  -0.31598508  *
     3       C         -0.40147263  *   0.53806197  *   0.67486794  *
     4       C          0.85141526  *   1.27579657  *   0.29590755  *
     5       O          1.10625855  *   2.37297903  *   0.77497319  *
     6       C          1.81416863  *   0.61303234  *  -0.65135886  *
     7       C          1.85676959  *  -0.87465207  *  -0.23201257  *
     8       O          2.14697383  *  -0.76956636  *   1.14819875  *
     9       C          0.50444109  *  -1.56796996  *  -0.41233219  *
    10       H         -1.83885942  *  -1.77106732  *   1.15292215  *
    11       H         -2.83302099  *  -0.70402214  *   0.14836447  *
    12       H         -2.17365245  *  -2.19124108  *  -0.52533326  *
    13       H         -0.89234115  *  -0.16687658  *  -1.32797239  *
    14       H         -1.27255067  *   1.22961407  *   0.76081039  *
    15       H         -0.24379206  *   0.11235644  *   1.70818902  *
    16       H          1.47231108  *   0.72832395  *  -1.70818902  *
    17       H          2.83302099  *   1.06659358  *  -0.59353513  *
    18       H          2.68247613  *  -1.40882837  *  -0.75893260  *
    19       H          2.51633941  *  -1.59955303  *   1.52124109  *
    20       H          0.46834110  *  -2.10758407  *  -1.38257887  *
    21       H          0.40995805  *  -2.37297903  *   0.35145141  *

                             CARTESIAN COORDINATES

   1    C       -1.942771445    -1.348194811     0.144938090
   2    C       -0.690983214    -0.603705368    -0.315985084
   3    C       -0.401472626     0.538061970     0.674867940
   4    C        0.851415263     1.275796572     0.295907550
   5    O        1.106258548     2.372979030     0.774973194
   6    C        1.814168634     0.613032344    -0.651358859
   7    C        1.856769586    -0.874652072    -0.232012565
   8    O        2.146973826    -0.769566358     1.148198747
   9    C        0.504441093    -1.567969956    -0.412332193
  10    H       -1.838859419    -1.771067317     1.152922149
  11    H       -2.833020992    -0.704022142     0.148364466
  12    H       -2.173652450    -2.191241081    -0.525333263
  13    H       -0.892341149    -0.166876584    -1.327972393
  14    H       -1.272550674     1.229614069     0.760810388
  15    H       -0.243792061     0.112356436     1.708189022
  16    H        1.472311077     0.728323955    -1.708189022
  17    H        2.833020992     1.066593580    -0.593535134
  18    H        2.682476132    -1.408828373    -0.758932604
  19    H        2.516339413    -1.599553031     1.521241088
  20    H        0.468341101    -2.107584071    -1.382578873
  21    H        0.409958050    -2.372979030     0.351451412


           Empirical Formula: C7 H12 O2  =    21 atoms



      MOLECULAR POINT GROUP   :   C1  


          ALPHA EIGENVALUES  
 -36.12605 -31.72787 -29.33506 -27.79041 -26.43312 -24.39043 -22.06019 -21.39181
 -19.26356 -18.78820 -18.03423 -17.54505 -16.78261 -16.10727 -15.61160 -15.21648
 -14.47258 -14.02518 -13.91861 -13.78780 -13.34199 -12.99587 -12.69590 -12.08759
 -11.93882 -11.29900  -1.40310   1.35483   1.71076   2.03132   2.29077   2.82621
   3.03995   3.28368   3.82326   4.00085   4.49665   4.59069   4.98647   5.13534
   5.22563   5.29511   5.45226   5.53467   5.70643   5.77871   6.15631   6.71573


           BETA EIGENVALUES 
 -33.30888 -31.43148 -29.28963 -27.58239 -26.15477 -24.29456 -21.80468 -20.98441
 -19.21472 -18.55344 -17.50166 -16.88488 -16.49870 -15.66714 -15.42335 -14.74062
 -14.28617 -13.88730 -13.73743 -13.54438 -13.04030 -12.81168 -12.04091 -11.93920
 -11.31833  -3.93892  -1.23251   1.60542   2.16274   2.21820   2.39997   2.91880
   3.13588   3.29381   3.83568   4.00890   4.52069   4.60721   4.99815   5.13941
   5.22952   5.29715   5.45418   5.53675   5.70713   5.77917   6.15642   6.71663


              NET ATOMIC CHARGES AND DIPOLE CONTRIBUTIONS

  ATOM NO.   TYPE          CHARGE      No. of ELECS.   s-Pop       p-Pop       
    1          C          -0.461336        4.4613     1.05621     3.40513
    2          C          -0.065153        4.0652     1.06063     3.00452
    3          C          -0.305439        4.3054     1.08714     3.21830
    4          C           0.364145        3.6359     1.18347     2.45238
    5          O           0.158130        5.8419     1.90535     3.93652
    6          C          -0.329151        4.3292     1.09089     3.23826
    7          C           0.200149        3.7999     1.09126     2.70859
    8          O          -0.647993        6.6480     1.84224     4.80575
    9          C          -0.361378        4.3614     1.07393     3.28745
   10          H           0.160434        0.8396     0.83957
   11          H           0.161127        0.8389     0.83887
   12          H           0.163249        0.8368     0.83675
   13          H           0.158101        0.8419     0.84190
   14          H           0.215744        0.7843     0.78426
   15          H           0.235808        0.7642     0.76419
   16          H           0.237403        0.7626     0.76260
   17          H           0.220789        0.7792     0.77921
   18          H           0.162944        0.8371     0.83706
   19          H           0.377979        0.6220     0.62202
   20          H           0.175428        0.8246     0.82457
   21          H           0.179021        0.8210     0.82098
 DIPOLE           X         Y         Z       TOTAL
 POINT-CHG.     0.421     1.784    -2.029     2.734
 HYBRID         0.282     0.536     0.737     0.954
 SUM            0.703     2.321    -1.292     2.747


          ATOMIC ORBITAL ELECTRON POPULATIONS

     Atom    s        px        py        pz   
    1  C   1.05621   1.07180   1.15238   1.18095
    2  C   1.06063   0.98336   0.96395   1.05721
    3  C   1.08714   0.98512   1.08272   1.15046
    4  C   1.18347   0.89955   0.81162   0.74121
    5  O   1.90535   1.26057   1.28750   1.38845
    6  C   1.09089   1.09948   1.05465   1.08413
    7  C   1.09126   1.01904   0.92452   0.76503
    8  O   1.84224   1.89458   1.54946   1.36171
    9  C   1.07393   0.99583   1.08938   1.20223
   10  H   0.83957
   11  H   0.83887
   12  H   0.83675
   13  H   0.84190
   14  H   0.78426
   15  H   0.76419
   16  H   0.76260
   17  H   0.77921
   18  H   0.83706
   19  H   0.62202
   20  H   0.82457
   21  H   0.82098


                    (SZ)    =    0.500000
                    (S**2)  =    0.766782


          ATOMIC ORBITAL SPIN POPULATIONS

    Atom   Total    s     px     py     pz   
         Atomic
    1  C  0.0065  0.001  0.003  0.002  0.000
    2  C -0.0036 -0.001  0.000 -0.001 -0.002
    3  C  0.1222  0.008  0.070  0.032  0.012
    4  C -0.1304 -0.020 -0.020 -0.042 -0.048
    5  O  0.8918  0.018  0.590  0.030  0.254
    6  C  0.1291  0.009  0.042  0.032  0.046
    7  C -0.0050 -0.001  0.001 -0.003 -0.001
    8  O  0.0016 -0.000  0.000  0.000  0.001
    9  C  0.0013  0.000  0.001  0.000  0.000
   10  H -0.0002 -0.000
   11  H -0.0002 -0.000
   12  H  0.0004  0.000
   13  H  0.0003  0.000
   14  H -0.0040 -0.004
   15  H -0.0056 -0.006
   16  H -0.0047 -0.005
   17  H -0.0037 -0.004
   18  H  0.0049  0.005
   19  H -0.0002 -0.000
   20  H -0.0002 -0.000
   21  H -0.0002 -0.000

 **********************
 *                    *
 * JOB ENDED NORMALLY *
 *                    *
 **********************



 TOTAL JOB TIME:             1.68 SECONDS

 == MOPAC DONE ==
