 *******************************************************************************
 **                                                                           **
 **                              MOPAC v23.2                                  **
 **                                                                           **
 *******************************************************************************
 **          Digital Object Identifier (DOI): 10.5281/zenodo.6511958          **
 **    Visit the DOI location for information on how to cite this program.    **
 *******************************************************************************

                              PM7 CALCULATION RESULTS

 *******************************************************************************
 *  CALCULATION DONE: (MAX THREADS = 40)             Fri Sep 19 21:56:43 2025  *
 *  PM7        - The PM7 Hamiltonian to be used
 *
 *
 *
 *                 CHARGE ON SYSTEM = +1
 *
 *
 *
 *  EPS=37.5   - USE ANDREAS KLAMT'S COSMO IMPLICIT SOLVATION MODEL
 *  1SCF       - DO 1 SCF AND THEN STOP 
 *  T=         - A TIME OF 172800.0 SECONDS REQUESTED
 *  DUMP=N     - RESTART FILE WRITTEN EVERY 7200.0 SECONDS REQUESTED
 *  RELSCF     - DEFAULT SCF CRITERION MULTIPLIED BY 0.0001
 *              (DEFAULT SCF CRITERION = 0.00010)
 *  GRADIENTS  - ALL GRADIENTS TO BE PRINTED
 *  DISP       - PRINT DISPERSION AND HYDROGEN BOND ENERGIES
 *******************************************************************************
PM7 1SCF GRADIENTS EPS=37.5 DISP RELSCF=0.0001 CHARGE=1
 Title: ASE calculation

   ATOM   CHEMICAL          X               Y               Z
  NUMBER   SYMBOL      (ANGSTROMS)     (ANGSTROMS)     (ANGSTROMS)

     1       C          0.50975087  *   1.92274223  *  -0.27837287  *
     2       C          0.97847859  *   0.55103119  *  -0.29389231  *
     3       C          0.16975817  *  -0.62383850  *  -0.34076234  *
     4       C         -1.27263586  *  -0.65107470  *  -0.39755389  *
     5       C         -2.07099245  *  -1.51940386  *   0.60830902  *
     6       N         -1.86125934  *  -1.97950499  *  -0.75294636  *
     7       C          1.00854146  *  -1.83091794  *  -0.34024919  *
     8       C          2.47028028  *  -1.35621041  *  -0.28790799  *
     9       C          2.40851394  *   0.18564575  *  -0.25562757  *
    10       H          0.80575261  *   2.45975184  *   0.65407729  *
    11       H         -0.58231235  *   2.05365935  *  -0.36972481  *
    12       H          0.96596869  *   2.54023687  *  -1.08711967  *
    13       H         -1.75738008  *   0.27164574  *  -0.76327677  *
    14       H         -3.04632173  *  -1.16321231  *   0.96172903  *
    15       H         -1.53784755  *  -2.07407945  *   1.39194035  *
    16       H         -2.65575273  *  -1.96019397  *  -1.39194035  *
    17       H          0.75090824  *  -2.54023687  *   0.48465977  *
    18       H          0.79057309  *  -2.47688763  *  -1.23598294  *
    19       H          2.99718673  *  -1.76038956  *   0.59751351  *
    20       H          3.04632173  *  -1.72072675  *  -1.16110160  *
    21       H          2.92799842  *   0.60167561  *   0.64174192  *
    22       H          2.98392164  *   0.63769725  *  -1.10020637  *



          CARTESIAN COORDINATES 

    NO.       ATOM           X           Y           Z

     1         C          0.5098      1.9227     -0.2784
     2         C          0.9785      0.5510     -0.2939
     3         C          0.1698     -0.6238     -0.3408
     4         C         -1.2726     -0.6511     -0.3976
     5         C         -2.0710     -1.5194      0.6083
     6         N         -1.8613     -1.9795     -0.7529
     7         C          1.0085     -1.8309     -0.3402
     8         C          2.4703     -1.3562     -0.2879
     9         C          2.4085      0.1856     -0.2556
    10         H          0.8058      2.4598      0.6541
    11         H         -0.5823      2.0537     -0.3697
    12         H          0.9660      2.5402     -1.0871
    13         H         -1.7574      0.2716     -0.7633
    14         H         -3.0463     -1.1632      0.9617
    15         H         -1.5378     -2.0741      1.3919
    16         H         -2.6558     -1.9602     -1.3919
    17         H          0.7509     -2.5402      0.4847
    18         H          0.7906     -2.4769     -1.2360
    19         H          2.9972     -1.7604      0.5975
    20         H          3.0463     -1.7207     -1.1611
    21         H          2.9280      0.6017      0.6417
    22         H          2.9839      0.6377     -1.1002

 General Reference for PM7:
 "Optimization of Parameters for Semiempirical Methods VI: More Modifications to the 
 NDDO Approximations and Re-optimization of Parameters", J. J. P. Stewart, J. Mol. Mod., 1:32, 19 (2013)
 https://link.springer.com/article/10.1007/s00894-012-1667-x

           Empirical Formula: C8 H13 N  =    22 atoms



      MOLECULAR POINT GROUP   :   C1  


          UHF CALCULATION, NO. OF ALPHA ELECTRONS =   25
                           NO. OF BETA  ELECTRONS =   24
  SCF CRITERION =    0.1000E-07

 -------------------------------------------------------------------------------
 PM7 1SCF GRADIENTS EPS=37.5 DISP RELSCF=0.0001 CHARGE=1
 Title: ASE calculation



     1SCF WAS SPECIFIED, SO BFGS WAS NOT USED                 
     SCF FIELD WAS ACHIEVED                                   


                              PM7 CALCULATION
                                                       MOPAC v23.2 Linux
                                                       Fri Sep 19 21:56:44 2025




          FINAL HEAT OF FORMATION =        165.62298 KCAL/MOL =     692.96656 KJ/MOL

          TOTAL ENERGY            =     -30840.93613 KCAL/MOL = ELECTRONIC ENERGY + CORE-CORE REPULSION + SOLVATION ENERGY
          ENERGY OF ATOMS         =      31008.88895 KCAL/MOL
                              SUM =        167.95281 KCAL/MOL
          DISPERSION ENERGY       =         -2.32983 KCAL/MOL
                              SUM =        165.62298 KCAL/MOL = FINAL HEAT OF FORMATION

          VAN DER WAALS AREA      =        175.02 SQUARE ANGSTROMS


          TOTAL ENERGY            =      -1337.38957 EV
          ELECTRONIC ENERGY       =      -2082.20688 EV 
          CORE-CORE REPULSION     =        744.81731 EV

          DIELECTRIC ENERGY       =         -2.19365 EV
          COSMO AREA              =        175.02 SQUARE ANGSTROMS
          COSMO VOLUME            =        173.66 CUBIC ANGSTROMS

          GRADIENT NORM           =         12.87005          =       2.74390 PER ATOM
          IONIZATION POTENTIAL    =         10.174151 EV
          ALPHA SOMO LUMO (EV)    =        -10.174 -1.438
          BETA  SOMO LUMO (EV)    =        -10.932 -3.130
          NO. OF ALPHA ELECTRONS  =         25
          NO. OF BETA  ELECTRONS  =         24
          MOLECULAR WEIGHT        =        123.1974         POINT GROUP:  C1  

          MOLECULAR DIMENSIONS (Angstroms)

            Atom       Atom       Distance
            H    22    H    14     6.62259
            H    10    H    18     5.23005
            H    16    H    19     3.85921


          SCF CALCULATIONS        =          2

          WALL-CLOCK TIME         =      1.383 SECONDS
          COMPUTATION TIME        =      0.668 SECONDS

          LARGEST ATOMIC GRADIENTS

          Atom     Label                     Cartesian Gradients           Cartesian Coordinates       |Gradient|
                                           X          Y          Z        X          Y          Z

             4       C                   3.018      6.033     -1.929   -1.27264   -0.65107   -0.39755      7.016
             7       C                   0.435      4.190      2.078    1.00854   -1.83092   -0.34025      4.697
             6       N                  -0.609      1.537      3.358   -1.86126   -1.97950   -0.75295      3.743
             2       C                  -1.471     -3.345     -0.485    0.97848    0.55103   -0.29389      3.686
             5       C                  -1.686     -2.658     -1.748   -2.07099   -1.51940    0.60831      3.600
            16       H                   1.867     -2.594     -0.052   -2.65575   -1.96019   -1.39194      3.197
             1       C                  -0.140      2.944      0.609    0.50975    1.92274   -0.27837      3.009
            18       H                  -1.533     -1.912     -0.734    0.79057   -2.47689   -1.23598      2.558
             9       C                   1.294      2.024      0.227    2.40851    0.18565   -0.25563      2.413
             3       C                  -1.564     -1.177     -1.361    0.16976   -0.62384   -0.34076      2.384



       FINAL  POINT  AND  DERIVATIVES

   PARAMETER     ATOM    TYPE            VALUE        GRADIENT
      1          1  C    CARTESIAN X     0.509751     -0.139916  KCAL/ANGSTROM
      2          1  C    CARTESIAN Y     1.922742      2.943812  KCAL/ANGSTROM
      3          1  C    CARTESIAN Z    -0.278373      0.608916  KCAL/ANGSTROM
      4          2  C    CARTESIAN X     0.978479     -1.471031  KCAL/ANGSTROM
      5          2  C    CARTESIAN Y     0.551031     -3.344834  KCAL/ANGSTROM
      6          2  C    CARTESIAN Z    -0.293892     -0.484681  KCAL/ANGSTROM
      7          3  C    CARTESIAN X     0.169758     -1.564321  KCAL/ANGSTROM
      8          3  C    CARTESIAN Y    -0.623839     -1.176666  KCAL/ANGSTROM
      9          3  C    CARTESIAN Z    -0.340762     -1.360947  KCAL/ANGSTROM
     10          4  C    CARTESIAN X    -1.272636      3.017951  KCAL/ANGSTROM
     11          4  C    CARTESIAN Y    -0.651075      6.033398  KCAL/ANGSTROM
     12          4  C    CARTESIAN Z    -0.397554     -1.928690  KCAL/ANGSTROM
     13          5  C    CARTESIAN X    -2.070992     -1.686366  KCAL/ANGSTROM
     14          5  C    CARTESIAN Y    -1.519404     -2.657574  KCAL/ANGSTROM
     15          5  C    CARTESIAN Z     0.608309     -1.747942  KCAL/ANGSTROM
     16          6  N    CARTESIAN X    -1.861259     -0.609078  KCAL/ANGSTROM
     17          6  N    CARTESIAN Y    -1.979505      1.536628  KCAL/ANGSTROM
     18          6  N    CARTESIAN Z    -0.752946      3.358129  KCAL/ANGSTROM
     19          7  C    CARTESIAN X     1.008541      0.435406  KCAL/ANGSTROM
     20          7  C    CARTESIAN Y    -1.830918      4.190057  KCAL/ANGSTROM
     21          7  C    CARTESIAN Z    -0.340249      2.078195  KCAL/ANGSTROM
     22          8  C    CARTESIAN X     2.470280     -0.953831  KCAL/ANGSTROM
     23          8  C    CARTESIAN Y    -1.356210      0.648108  KCAL/ANGSTROM
     24          8  C    CARTESIAN Z    -0.287908      0.098764  KCAL/ANGSTROM
     25          9  C    CARTESIAN X     2.408514      1.294013  KCAL/ANGSTROM
     26          9  C    CARTESIAN Y     0.185646      2.024205  KCAL/ANGSTROM
     27          9  C    CARTESIAN Z    -0.255628      0.226591  KCAL/ANGSTROM
     28         10  H    CARTESIAN X     0.805753     -0.404993  KCAL/ANGSTROM
     29         10  H    CARTESIAN Y     2.459752      0.411599  KCAL/ANGSTROM
     30         10  H    CARTESIAN Z     0.654077     -0.183301  KCAL/ANGSTROM
     31         11  H    CARTESIAN X    -0.582312      0.271536  KCAL/ANGSTROM
     32         11  H    CARTESIAN Y     2.053659      0.583311  KCAL/ANGSTROM
     33         11  H    CARTESIAN Z    -0.369725     -0.106478  KCAL/ANGSTROM
     34         12  H    CARTESIAN X     0.965969     -0.380829  KCAL/ANGSTROM
     35         12  H    CARTESIAN Y     2.540237      0.450527  KCAL/ANGSTROM
     36         12  H    CARTESIAN Z    -1.087120     -0.252006  KCAL/ANGSTROM
     37         13  H    CARTESIAN X    -1.757380      0.850863  KCAL/ANGSTROM
     38         13  H    CARTESIAN Y     0.271646     -0.691912  KCAL/ANGSTROM
     39         13  H    CARTESIAN Z    -0.763277      0.548096  KCAL/ANGSTROM
     40         14  H    CARTESIAN X    -3.046322     -0.680373  KCAL/ANGSTROM
     41         14  H    CARTESIAN Y    -1.163212     -0.353445  KCAL/ANGSTROM
     42         14  H    CARTESIAN Z     0.961729      0.977956  KCAL/ANGSTROM
     43         15  H    CARTESIAN X    -1.537848     -0.457705  KCAL/ANGSTROM
     44         15  H    CARTESIAN Y    -2.074079     -1.155990  KCAL/ANGSTROM
     45         15  H    CARTESIAN Z     1.391940      0.135782  KCAL/ANGSTROM
     46         16  H    CARTESIAN X    -2.655753      1.867361  KCAL/ANGSTROM
     47         16  H    CARTESIAN Y    -1.960194     -2.594419  KCAL/ANGSTROM
     48         16  H    CARTESIAN Z    -1.391940     -0.052388  KCAL/ANGSTROM
     49         17  H    CARTESIAN X     0.750908     -0.597080  KCAL/ANGSTROM
     50         17  H    CARTESIAN Y    -2.540237     -1.671010  KCAL/ANGSTROM
     51         17  H    CARTESIAN Z     0.484660     -0.991872  KCAL/ANGSTROM
     52         18  H    CARTESIAN X     0.790573     -1.532647  KCAL/ANGSTROM
     53         18  H    CARTESIAN Y    -2.476888     -1.912311  KCAL/ANGSTROM
     54         18  H    CARTESIAN Z    -1.235983     -0.734451  KCAL/ANGSTROM
     55         19  H    CARTESIAN X     2.997187      0.848304  KCAL/ANGSTROM
     56         19  H    CARTESIAN Y    -1.760390     -0.793080  KCAL/ANGSTROM
     57         19  H    CARTESIAN Z     0.597514      0.160373  KCAL/ANGSTROM
     58         20  H    CARTESIAN X     3.046322      1.018569  KCAL/ANGSTROM
     59         20  H    CARTESIAN Y    -1.720727     -0.865610  KCAL/ANGSTROM
     60         20  H    CARTESIAN Z    -1.161102     -0.500284  KCAL/ANGSTROM
     61         21  H    CARTESIAN X     2.927998      0.481680  KCAL/ANGSTROM
     62         21  H    CARTESIAN Y     0.601676     -0.673056  KCAL/ANGSTROM
     63         21  H    CARTESIAN Z     0.641742     -0.063843  KCAL/ANGSTROM
     64         22  H    CARTESIAN X     2.983922      0.392483  KCAL/ANGSTROM
     65         22  H    CARTESIAN Y     0.637697     -0.931738  KCAL/ANGSTROM
     66         22  H    CARTESIAN Z    -1.100206      0.214078  KCAL/ANGSTROM




   ATOM   CHEMICAL          X               Y               Z
  NUMBER   SYMBOL      (ANGSTROMS)     (ANGSTROMS)     (ANGSTROMS)

     1       C          0.50975087  *   1.92274223  *  -0.27837287  *
     2       C          0.97847859  *   0.55103119  *  -0.29389231  *
     3       C          0.16975817  *  -0.62383850  *  -0.34076234  *
     4       C         -1.27263586  *  -0.65107470  *  -0.39755389  *
     5       C         -2.07099245  *  -1.51940386  *   0.60830902  *
     6       N         -1.86125934  *  -1.97950499  *  -0.75294636  *
     7       C          1.00854146  *  -1.83091794  *  -0.34024919  *
     8       C          2.47028028  *  -1.35621041  *  -0.28790799  *
     9       C          2.40851394  *   0.18564575  *  -0.25562757  *
    10       H          0.80575261  *   2.45975184  *   0.65407729  *
    11       H         -0.58231235  *   2.05365935  *  -0.36972481  *
    12       H          0.96596869  *   2.54023687  *  -1.08711967  *
    13       H         -1.75738008  *   0.27164574  *  -0.76327677  *
    14       H         -3.04632173  *  -1.16321231  *   0.96172903  *
    15       H         -1.53784755  *  -2.07407945  *   1.39194035  *
    16       H         -2.65575273  *  -1.96019397  *  -1.39194035  *
    17       H          0.75090824  *  -2.54023687  *   0.48465977  *
    18       H          0.79057309  *  -2.47688763  *  -1.23598294  *
    19       H          2.99718673  *  -1.76038956  *   0.59751351  *
    20       H          3.04632173  *  -1.72072675  *  -1.16110160  *
    21       H          2.92799842  *   0.60167561  *   0.64174192  *
    22       H          2.98392164  *   0.63769725  *  -1.10020637  *

                             CARTESIAN COORDINATES

   1    C        0.509750871     1.922742232    -0.278372868
   2    C        0.978478587     0.551031193    -0.293892312
   3    C        0.169758173    -0.623838505    -0.340762339
   4    C       -1.272635859    -0.651074697    -0.397553891
   5    C       -2.070992446    -1.519403864     0.608309024
   6    N       -1.861259337    -1.979504987    -0.752946362
   7    C        1.008541465    -1.830917939    -0.340249194
   8    C        2.470280284    -1.356210407    -0.287907991
   9    C        2.408513936     0.185645746    -0.255627567
  10    H        0.805752608     2.459751839     0.654077294
  11    H       -0.582312348     2.053659351    -0.369724807
  12    H        0.965968692     2.540236868    -1.087119667
  13    H       -1.757380083     0.271645738    -0.763276766
  14    H       -3.046321730    -1.163212308     0.961729031
  15    H       -1.537847551    -2.074079451     1.391940349
  16    H       -2.655752728    -1.960193967    -1.391940349
  17    H        0.750908244    -2.540236868     0.484659775
  18    H        0.790573091    -2.476887627    -1.235982941
  19    H        2.997186725    -1.760389559     0.597513511
  20    H        3.046321730    -1.720726749    -1.161101599
  21    H        2.927998418     0.601675608     0.641741922
  22    H        2.983921641     0.637697252    -1.100206373


           Empirical Formula: C8 H13 N  =    22 atoms



      MOLECULAR POINT GROUP   :   C1  


          ALPHA EIGENVALUES  
 -37.29592 -32.00713 -27.85538 -26.96407 -24.15280 -23.77464 -22.17467 -20.79499
 -18.68376 -18.17739 -17.47041 -17.29353 -15.62078 -15.09723 -14.93455 -14.45345
 -14.20060 -13.73217 -13.39281 -13.31836 -13.22260 -13.08948 -12.24143 -11.09008
 -10.17415  -1.43816   1.55544   1.90696   2.29793   2.57742   2.83296   2.94863
   3.10500   3.40264   3.76592   3.92639   4.44846   4.65887   4.70494   4.75569
   4.92841   5.11430   5.30786   5.43119   5.57015   5.70697   6.01018   6.03253
   6.09081


           BETA EIGENVALUES 
 -37.23681 -31.85234 -27.78311 -26.87021 -24.08816 -23.65574 -22.11987 -20.67063
 -18.61691 -18.11111 -17.38969 -16.96301 -15.55138 -14.93724 -14.77669 -14.27039
 -13.99734 -13.65679 -13.32756 -13.24886 -13.02211 -12.99085 -11.94925 -10.93212
  -3.13001  -0.16714   1.74873   1.97054   2.39333   2.65205   2.95520   3.05654
   3.17586   3.51359   3.86866   3.96304   4.52246   4.67720   4.76782   4.83449
   4.94936   5.12593   5.31974   5.45629   5.60986   5.75004   6.01879   6.04727
   6.11096


              NET ATOMIC CHARGES AND DIPOLE CONTRIBUTIONS

  ATOM NO.   TYPE          CHARGE      No. of ELECS.   s-Pop       p-Pop       
    1          C          -0.523518        4.5235     1.05272     3.47080
    2          C           0.278533        3.7215     1.13642     2.58505
    3          C           0.166628        3.8334     1.12626     2.70711
    4          C          -0.160503        4.1605     1.06287     3.09763
    5          C          -0.120311        4.1203     1.08608     3.03423
    6          N          -0.479478        5.4795     1.72173     3.75775
    7          C          -0.325729        4.3257     1.06357     3.26216
    8          C          -0.256745        4.2567     1.06441     3.19234
    9          C          -0.350392        4.3504     1.06857     3.28182
   10          H           0.234640        0.7654     0.76536
   11          H           0.198387        0.8016     0.80161
   12          H           0.230985        0.7690     0.76902
   13          H           0.206353        0.7936     0.79365
   14          H           0.184740        0.8153     0.81526
   15          H           0.188503        0.8115     0.81150
   16          H           0.303222        0.6968     0.69678
   17          H           0.216408        0.7836     0.78359
   18          H           0.224754        0.7752     0.77525
   19          H           0.169203        0.8308     0.83080
   20          H           0.170487        0.8295     0.82951
   21          H           0.220705        0.7793     0.77930
   22          H           0.223128        0.7769     0.77687
 DIPOLE           X         Y         Z       TOTAL
 POINT-CHG.     1.361     3.624     1.002     3.998
 HYBRID        -0.814     0.546    -0.321     1.032
 SUM            0.547     4.170     0.681     4.260


          ATOMIC ORBITAL ELECTRON POPULATIONS

     Atom    s        px        py        pz   
    1  C   1.05272   1.21438   1.03432   1.22210
    2  C   1.13642   0.98367   0.96507   0.63631
    3  C   1.12626   0.97397   0.98987   0.74327
    4  C   1.06287   0.97511   0.98636   1.13616
    5  C   1.08608   1.11206   0.99413   0.92804
    6  N   1.72173   1.39259   1.22987   1.13530
    7  C   1.06357   1.00240   1.05216   1.20760
    8  C   1.06441   1.01749   0.97525   1.19960
    9  C   1.06857   1.01809   1.05545   1.20828
   10  H   0.76536
   11  H   0.80161
   12  H   0.76902
   13  H   0.79365
   14  H   0.81526
   15  H   0.81150
   16  H   0.69678
   17  H   0.78359
   18  H   0.77525
   19  H   0.83080
   20  H   0.82951
   21  H   0.77930
   22  H   0.77687


                    (SZ)    =    0.500000
                    (S**2)  =    0.753281


          ATOMIC ORBITAL SPIN POPULATIONS

    Atom   Total    s     px     py     pz   
         Atomic
    1  C -0.0014 -0.002 -0.002 -0.011  0.013
    2  C  0.3615  0.007  0.008  0.005  0.342
    3  C  0.4345  0.009  0.012  0.008  0.406
    4  C -0.0369 -0.004 -0.013 -0.007 -0.013
    5  C  0.0694  0.004  0.019  0.044  0.003
    6  N  0.0312 -0.001 -0.001  0.035 -0.002
    7  C  0.0002 -0.003 -0.004 -0.012  0.020
    8  C  0.0016 -0.000 -0.000  0.000  0.002
    9  C -0.0022 -0.003 -0.012 -0.002  0.014
   10  H  0.0206  0.021
   11  H  0.0002  0.000
   12  H  0.0180  0.018
   13  H  0.0035  0.004
   14  H -0.0014 -0.001
   15  H -0.0011 -0.001
   16  H -0.0007 -0.001
   17  H  0.0266  0.027
   18  H  0.0284  0.028
   19  H  0.0016  0.002
   20  H  0.0017  0.002
   21  H  0.0225  0.023
   22  H  0.0221  0.022

 **********************
 *                    *
 * JOB ENDED NORMALLY *
 *                    *
 **********************



 TOTAL JOB TIME:             1.84 SECONDS

 == MOPAC DONE ==
