 *******************************************************************************
 **                                                                           **
 **                              MOPAC v23.2                                  **
 **                                                                           **
 *******************************************************************************
 **          Digital Object Identifier (DOI): 10.5281/zenodo.6511958          **
 **    Visit the DOI location for information on how to cite this program.    **
 *******************************************************************************

                              PM7 CALCULATION RESULTS

 *******************************************************************************
 *  CALCULATION DONE: (MAX THREADS = 40)             Fri Sep 19 21:58:37 2025  *
 *  PM7        - The PM7 Hamiltonian to be used
 *  1SCF       - DO 1 SCF AND THEN STOP 
 *  T=         - A TIME OF 172800.0 SECONDS REQUESTED
 *  DUMP=N     - RESTART FILE WRITTEN EVERY 7200.0 SECONDS REQUESTED
 *  RELSCF     - DEFAULT SCF CRITERION MULTIPLIED BY 0.0001
 *              (DEFAULT SCF CRITERION = 0.00010)
 *  GRADIENTS  - ALL GRADIENTS TO BE PRINTED
 *  DISP       - PRINT DISPERSION AND HYDROGEN BOND ENERGIES
 *******************************************************************************
PM7 1SCF GRADIENTS DISP RELSCF=0.0001
 Title: ASE calculation

   ATOM   CHEMICAL          X               Y               Z
  NUMBER   SYMBOL      (ANGSTROMS)     (ANGSTROMS)     (ANGSTROMS)

     1       C         -2.45930277  *   0.19377108  *   0.17874558  *
     2       C         -1.25921556  *   0.63070527  *   1.01030282  *
     3       C          0.05490398  *   0.41242486  *   0.26263546  *
     4       C          0.12736770  *   1.21608228  *  -0.94177083  *
     5       N          0.18217754  *   1.85053319  *  -1.90648436  *
     6       C          0.48840299  *  -1.09588377  *   0.05323626  *
     7       C          1.65727199  *  -0.82636792  *   1.01618890  *
     8       C          2.50954840  *   0.32272395  *   0.54528363  *
     9       N          1.22459713  *   0.61925295  *   1.22999492  *
    10       H         -2.54520627  *   0.77375706  *  -0.74956090  *
    11       H         -3.39504827  *   0.33674336  *   0.73448958  *
    12       H         -2.40252660  *  -0.86548592  *  -0.09647415  *
    13       H         -1.34682391  *   1.70247571  *   1.29170704  *
    14       H         -1.23299632  *   0.08523633  *   1.97741203  *
    15       H          0.76548340  *  -1.37274220  *  -0.96685920  *
    16       H         -0.24551012  *  -1.81941011  *   0.41989334  *
    17       H          1.92796363  *  -1.50663369  *   1.80498972  *
    18       H          3.39217133  *   0.60868744  *   1.12900747  *
    19       H          2.65893858  *   0.53443634  *  -0.51246805  *



          CARTESIAN COORDINATES 

    NO.       ATOM           X           Y           Z

     1         C         -2.4593      0.1938      0.1787
     2         C         -1.2592      0.6307      1.0103
     3         C          0.0549      0.4124      0.2626
     4         C          0.1274      1.2161     -0.9418
     5         N          0.1822      1.8505     -1.9065
     6         C          0.4884     -1.0959      0.0532
     7         C          1.6573     -0.8264      1.0162
     8         C          2.5095      0.3227      0.5453
     9         N          1.2246      0.6193      1.2300
    10         H         -2.5452      0.7738     -0.7496
    11         H         -3.3950      0.3367      0.7345
    12         H         -2.4025     -0.8655     -0.0965
    13         H         -1.3468      1.7025      1.2917
    14         H         -1.2330      0.0852      1.9774
    15         H          0.7655     -1.3727     -0.9669
    16         H         -0.2455     -1.8194      0.4199
    17         H          1.9280     -1.5066      1.8050
    18         H          3.3922      0.6087      1.1290
    19         H          2.6589      0.5344     -0.5125

 General Reference for PM7:
 "Optimization of Parameters for Semiempirical Methods VI: More Modifications to the 
 NDDO Approximations and Re-optimization of Parameters", J. J. P. Stewart, J. Mol. Mod., 1:32, 19 (2013)
 https://link.springer.com/article/10.1007/s00894-012-1667-x

           Empirical Formula: C7 H10 N2  =    19 atoms



      MOLECULAR POINT GROUP   :   C1  


      RHF CALCULATION, NO. OF DOUBLY OCCUPIED LEVELS = 24

  SCF CRITERION =    0.1000E-07

 -------------------------------------------------------------------------------
 PM7 1SCF GRADIENTS DISP RELSCF=0.0001
 Title: ASE calculation



     1SCF WAS SPECIFIED, SO BFGS WAS NOT USED                 
     SCF FIELD WAS ACHIEVED                                   


                              PM7 CALCULATION
                                                       MOPAC v23.2 Linux
                                                       Fri Sep 19 21:58:37 2025




          FINAL HEAT OF FORMATION =         81.06559 KCAL/MOL =     339.17842 KJ/MOL

          TOTAL ENERGY            =     -31467.57939 KCAL/MOL = ELECTRONIC ENERGY + CORE-CORE REPULSION
          ENERGY OF ATOMS         =      31550.59433 KCAL/MOL
                              SUM =         83.01494 KCAL/MOL
          DISPERSION ENERGY       =         -1.94935 KCAL/MOL
                              SUM =         81.06559 KCAL/MOL = FINAL HEAT OF FORMATION



          TOTAL ENERGY            =      -1364.56339 EV
          ELECTRONIC ENERGY       =      -6889.46578 EV 
          CORE-CORE REPULSION     =       5524.90238 EV
          COSMO AREA              =        164.59 SQUARE ANGSTROMS
          COSMO VOLUME            =        166.66 CUBIC ANGSTROMS

          GRADIENT NORM           =          0.97410          =       0.22347 PER ATOM
          IONIZATION POTENTIAL    =         10.501769 EV
          HOMO LUMO ENERGIES (EV) =        -10.502  0.659
          NO. OF FILLED LEVELS    =         24
          MOLECULAR WEIGHT        =        122.1694         POINT GROUP:  C1  

          MOLECULAR DIMENSIONS (Angstroms)

            Atom       Atom       Distance
            H    18    H    11     6.80411
            H    17    N     5     4.97714
            H    13    H    15     3.92185


          SCF CALCULATIONS        =          1

          WALL-CLOCK TIME         =      0.727 SECONDS
          COMPUTATION TIME        =      0.651 SECONDS

          LARGEST ATOMIC GRADIENTS

          Atom     Label                     Cartesian Gradients           Cartesian Coordinates       |Gradient|
                                           X          Y          Z        X          Y          Z

             9       N                  -0.107      0.193     -0.376    1.22460    0.61925    1.22999      0.436
            17       H                   0.350      0.041      0.179    1.92796   -1.50663    1.80499      0.395
             4       C                  -0.097      0.275      0.172    0.12737    1.21608   -0.94177      0.338
            15       H                   0.143      0.023     -0.216    0.76548   -1.37274   -0.96686      0.260
            19       H                   0.037     -0.086      0.234    2.65894    0.53444   -0.51247      0.252
            12       H                   0.135     -0.049      0.172   -2.40253   -0.86549   -0.09647      0.224
            13       H                  -0.047      0.019     -0.194   -1.34682    1.70248    1.29171      0.200
             7       C                   0.063     -0.115     -0.137    1.65727   -0.82637    1.01619      0.190
             5       N                   0.145     -0.004     -0.105    0.18218    1.85053   -1.90648      0.179
            14       H                  -0.087      0.002      0.155   -1.23300    0.08524    1.97741      0.178



       FINAL  POINT  AND  DERIVATIVES

   PARAMETER     ATOM    TYPE            VALUE        GRADIENT
      1          1  C    CARTESIAN X    -2.459303     -0.018350  KCAL/ANGSTROM
      2          1  C    CARTESIAN Y     0.193771     -0.025895  KCAL/ANGSTROM
      3          1  C    CARTESIAN Z     0.178746     -0.005572  KCAL/ANGSTROM
      4          2  C    CARTESIAN X    -1.259216     -0.113077  KCAL/ANGSTROM
      5          2  C    CARTESIAN Y     0.630705     -0.054671  KCAL/ANGSTROM
      6          2  C    CARTESIAN Z     1.010303      0.098071  KCAL/ANGSTROM
      7          3  C    CARTESIAN X     0.054904     -0.140425  KCAL/ANGSTROM
      8          3  C    CARTESIAN Y     0.412425     -0.027655  KCAL/ANGSTROM
      9          3  C    CARTESIAN Z     0.262635     -0.079427  KCAL/ANGSTROM
     10          4  C    CARTESIAN X     0.127368     -0.097279  KCAL/ANGSTROM
     11          4  C    CARTESIAN Y     1.216082      0.274702  KCAL/ANGSTROM
     12          4  C    CARTESIAN Z    -0.941771      0.171715  KCAL/ANGSTROM
     13          5  N    CARTESIAN X     0.182178      0.144731  KCAL/ANGSTROM
     14          5  N    CARTESIAN Y     1.850533     -0.004495  KCAL/ANGSTROM
     15          5  N    CARTESIAN Z    -1.906484     -0.105385  KCAL/ANGSTROM
     16          6  C    CARTESIAN X     0.488403     -0.051805  KCAL/ANGSTROM
     17          6  C    CARTESIAN Y    -1.095884     -0.064924  KCAL/ANGSTROM
     18          6  C    CARTESIAN Z     0.053236     -0.103087  KCAL/ANGSTROM
     19          7  C    CARTESIAN X     1.657272      0.063391  KCAL/ANGSTROM
     20          7  C    CARTESIAN Y    -0.826368     -0.114731  KCAL/ANGSTROM
     21          7  C    CARTESIAN Z     1.016189     -0.137423  KCAL/ANGSTROM
     22          8  C    CARTESIAN X     2.509548     -0.109330  KCAL/ANGSTROM
     23          8  C    CARTESIAN Y     0.322724     -0.076721  KCAL/ANGSTROM
     24          8  C    CARTESIAN Z     0.545284      0.050947  KCAL/ANGSTROM
     25          9  N    CARTESIAN X     1.224597     -0.106933  KCAL/ANGSTROM
     26          9  N    CARTESIAN Y     0.619253      0.193318  KCAL/ANGSTROM
     27          9  N    CARTESIAN Z     1.229995     -0.375526  KCAL/ANGSTROM
     28         10  H    CARTESIAN X    -2.545206      0.047016  KCAL/ANGSTROM
     29         10  H    CARTESIAN Y     0.773757      0.136654  KCAL/ANGSTROM
     30         10  H    CARTESIAN Z    -0.749561      0.074062  KCAL/ANGSTROM
     31         11  H    CARTESIAN X    -3.395048      0.063430  KCAL/ANGSTROM
     32         11  H    CARTESIAN Y     0.336743      0.018075  KCAL/ANGSTROM
     33         11  H    CARTESIAN Z     0.734490      0.013360  KCAL/ANGSTROM
     34         12  H    CARTESIAN X    -2.402527      0.134720  KCAL/ANGSTROM
     35         12  H    CARTESIAN Y    -0.865486     -0.049165  KCAL/ANGSTROM
     36         12  H    CARTESIAN Z    -0.096474      0.171861  KCAL/ANGSTROM
     37         13  H    CARTESIAN X    -1.346824     -0.046791  KCAL/ANGSTROM
     38         13  H    CARTESIAN Y     1.702476      0.019104  KCAL/ANGSTROM
     39         13  H    CARTESIAN Z     1.291707     -0.193523  KCAL/ANGSTROM
     40         14  H    CARTESIAN X    -1.232996     -0.086705  KCAL/ANGSTROM
     41         14  H    CARTESIAN Y     0.085236      0.002280  KCAL/ANGSTROM
     42         14  H    CARTESIAN Z     1.977412      0.155416  KCAL/ANGSTROM
     43         15  H    CARTESIAN X     0.765483      0.142758  KCAL/ANGSTROM
     44         15  H    CARTESIAN Y    -1.372742      0.022544  KCAL/ANGSTROM
     45         15  H    CARTESIAN Z    -0.966859     -0.215568  KCAL/ANGSTROM
     46         16  H    CARTESIAN X    -0.245510     -0.101410  KCAL/ANGSTROM
     47         16  H    CARTESIAN Y    -1.819410     -0.095580  KCAL/ANGSTROM
     48         16  H    CARTESIAN Z     0.419893      0.037273  KCAL/ANGSTROM
     49         17  H    CARTESIAN X     1.927964      0.349892  KCAL/ANGSTROM
     50         17  H    CARTESIAN Y    -1.506634      0.040951  KCAL/ANGSTROM
     51         17  H    CARTESIAN Z     1.804990      0.178806  KCAL/ANGSTROM
     52         18  H    CARTESIAN X     3.392171     -0.110495  KCAL/ANGSTROM
     53         18  H    CARTESIAN Y     0.608687     -0.108111  KCAL/ANGSTROM
     54         18  H    CARTESIAN Z     1.129007      0.029634  KCAL/ANGSTROM
     55         19  H    CARTESIAN X     2.658939      0.036662  KCAL/ANGSTROM
     56         19  H    CARTESIAN Y     0.534436     -0.085685  KCAL/ANGSTROM
     57         19  H    CARTESIAN Z    -0.512468      0.234365  KCAL/ANGSTROM




   ATOM   CHEMICAL          X               Y               Z
  NUMBER   SYMBOL      (ANGSTROMS)     (ANGSTROMS)     (ANGSTROMS)

     1       C         -2.45930277  *   0.19377108  *   0.17874558  *
     2       C         -1.25921556  *   0.63070527  *   1.01030282  *
     3       C          0.05490398  *   0.41242486  *   0.26263546  *
     4       C          0.12736770  *   1.21608228  *  -0.94177083  *
     5       N          0.18217754  *   1.85053319  *  -1.90648436  *
     6       C          0.48840299  *  -1.09588377  *   0.05323626  *
     7       C          1.65727199  *  -0.82636792  *   1.01618890  *
     8       C          2.50954840  *   0.32272395  *   0.54528363  *
     9       N          1.22459713  *   0.61925295  *   1.22999492  *
    10       H         -2.54520627  *   0.77375706  *  -0.74956090  *
    11       H         -3.39504827  *   0.33674336  *   0.73448958  *
    12       H         -2.40252660  *  -0.86548592  *  -0.09647415  *
    13       H         -1.34682391  *   1.70247571  *   1.29170704  *
    14       H         -1.23299632  *   0.08523633  *   1.97741203  *
    15       H          0.76548340  *  -1.37274220  *  -0.96685920  *
    16       H         -0.24551012  *  -1.81941011  *   0.41989334  *
    17       H          1.92796363  *  -1.50663369  *   1.80498972  *
    18       H          3.39217133  *   0.60868744  *   1.12900747  *
    19       H          2.65893858  *   0.53443634  *  -0.51246805  *

                             CARTESIAN COORDINATES

   1    C       -2.459302768     0.193771080     0.178745581
   2    C       -1.259215556     0.630705266     1.010302821
   3    C        0.054903979     0.412424859     0.262635464
   4    C        0.127367704     1.216082278    -0.941770829
   5    N        0.182177535     1.850533190    -1.906484362
   6    C        0.488402989    -1.095883767     0.053236264
   7    C        1.657271989    -0.826367924     1.016188896
   8    C        2.509548400     0.322723953     0.545283630
   9    N        1.224597126     0.619252948     1.229994923
  10    H       -2.545206269     0.773757061    -0.749560901
  11    H       -3.395048268     0.336743363     0.734489577
  12    H       -2.402526604    -0.865485924    -0.096474154
  13    H       -1.346823906     1.702475706     1.291707038
  14    H       -1.232996318     0.085236335     1.977412028
  15    H        0.765483398    -1.372742205    -0.966859203
  16    H       -0.245510120    -1.819410109     0.419893342
  17    H        1.927963625    -1.506633686     1.804989719
  18    H        3.392171325     0.608687441     1.129007470
  19    H        2.658938581     0.534436337    -0.512468048


           Empirical Formula: C7 H10 N2  =    19 atoms



      MOLECULAR POINT GROUP   :   C1  


                  EIGENVALUES  
 -37.35933 -35.09099 -29.03448 -25.93565 -24.99943 -22.87940 -21.57846 -19.98067
 -17.83915 -17.32562 -16.79643 -15.68992 -14.77837 -14.61349 -14.14607 -13.94409
 -13.60208 -13.51321 -13.05466 -12.52954 -12.34674 -12.07202 -11.87674 -10.50177
   0.65936   0.91515   1.59658   2.00150   2.38931   2.82185   3.09593   3.20759
   3.61444   3.97531   4.07428   4.90401   5.08562   5.10810   5.41607   5.46355
   5.52266   5.56912   5.59909   5.70060   6.14006   6.61330


              NET ATOMIC CHARGES AND DIPOLE CONTRIBUTIONS

  ATOM NO.   TYPE          CHARGE      No. of ELECS.   s-Pop       p-Pop       
    1          C          -0.442356        4.4424     1.05138     3.39097
    2          C          -0.261006        4.2610     1.05799     3.20302
    3          C           0.166205        3.8338     1.07033     2.76346
    4          C           0.078595        3.9214     1.12905     2.79236
    5          N          -0.230238        5.2302     1.82991     3.40033
    6          C          -0.314679        4.3147     1.08396     3.23072
    7          C          -0.082289        4.0823     1.08350     2.99879
    8          C          -0.207778        4.2078     1.07598     3.13180
    9          N          -0.352197        5.3522     1.80726     3.54494
   10          H           0.155386        0.8446     0.84461
   11          H           0.155312        0.8447     0.84469
   12          H           0.146347        0.8537     0.85365
   13          H           0.166237        0.8338     0.83376
   14          H           0.165279        0.8347     0.83472
   15          H           0.162654        0.8373     0.83735
   16          H           0.167962        0.8320     0.83204
   17          H           0.178231        0.8218     0.82177
   18          H           0.182256        0.8177     0.81774
   19          H           0.166079        0.8339     0.83392
 DIPOLE           X         Y         Z       TOTAL
 POINT-CHG.    -0.309    -3.071     1.439     3.405
 HYBRID        -0.013    -0.254    -0.243     0.352
 SUM           -0.322    -3.325     1.196     3.548


          ATOMIC ORBITAL ELECTRON POPULATIONS

     Atom    s        px        py        pz   
    1  C   1.05138   1.08286   1.16745   1.14066
    2  C   1.05799   0.94815   1.17627   1.07860
    3  C   1.07033   0.94993   0.93222   0.88131
    4  C   1.12905   0.92649   0.93214   0.93373
    5  N   1.82991   1.08667   1.12659   1.18707
    6  C   1.08396   1.06695   1.03626   1.12752
    7  C   1.08350   1.02351   0.90449   1.07079
    8  C   1.07598   0.97234   1.03451   1.12495
    9  N   1.80726   1.05268   1.17858   1.31368
   10  H   0.84461
   11  H   0.84469
   12  H   0.85365
   13  H   0.83376
   14  H   0.83472
   15  H   0.83735
   16  H   0.83204
   17  H   0.82177
   18  H   0.81774
   19  H   0.83392

 **********************
 *                    *
 * JOB ENDED NORMALLY *
 *                    *
 **********************



 TOTAL JOB TIME:             1.23 SECONDS

 == MOPAC DONE ==
