 *******************************************************************************
 **                                                                           **
 **                              MOPAC v23.2                                  **
 **                                                                           **
 *******************************************************************************
 **          Digital Object Identifier (DOI): 10.5281/zenodo.6511958          **
 **    Visit the DOI location for information on how to cite this program.    **
 *******************************************************************************

                              PM7 CALCULATION RESULTS

 *******************************************************************************
 *  CALCULATION DONE: (MAX THREADS = 40)             Fri Sep 19 21:31:19 2025  *
 *  PM7        - The PM7 Hamiltonian to be used
 *
 *
 *
 *                 CHARGE ON SYSTEM = +1
 *
 *
 *
 *  1SCF       - DO 1 SCF AND THEN STOP 
 *  T=         - A TIME OF 172800.0 SECONDS REQUESTED
 *  DUMP=N     - RESTART FILE WRITTEN EVERY 7200.0 SECONDS REQUESTED
 *  RELSCF     - DEFAULT SCF CRITERION MULTIPLIED BY 0.0001
 *              (DEFAULT SCF CRITERION = 0.00010)
 *  GRADIENTS  - ALL GRADIENTS TO BE PRINTED
 *  DISP       - PRINT DISPERSION AND HYDROGEN BOND ENERGIES
 *******************************************************************************
PM7 1SCF GRADIENTS DISP RELSCF=0.0001 CHARGE=1
 Title: ASE calculation

   ATOM   CHEMICAL          X               Y               Z
  NUMBER   SYMBOL      (ANGSTROMS)     (ANGSTROMS)     (ANGSTROMS)

     1       C          1.88003473  *  -1.15397239  *   1.74763893  *
     2       C          1.87393660  *   0.11432943  *   1.00941185  *
     3       C          0.71636533  *   1.62299724  *  -0.58817066  *
     4       C         -0.58864558  *   1.13264945  *  -1.14150219  *
     5       C         -0.36369879  *  -0.13882623  *  -0.28940272  *
     6       C         -0.64129189  *  -1.56693577  *  -0.63153397  *
     7       C         -1.38293058  *  -0.94242100  *   0.52685851  *
     8       O         -2.67880586  *  -0.60284925  *   0.21398074  *
     9       N          0.91223281  *   0.47234706  *   0.17846898  *
    10       H          1.52119745  *  -1.02030565  *   2.79272740  *
    11       H          1.27556999  *  -1.96292164  *   1.30766700  *
    12       H          2.90886332  *  -1.56554446  *   1.85377613  *
    13       H          2.71791569  *   0.81321010  *   1.17230379  *
    14       H          1.32355564  *   2.49191384  *  -0.70089532  *
    15       H         -0.62584472  *   0.97599624  *  -2.23512595  *
    16       H         -1.49023098  *   1.71621039  *  -0.87376359  *
    17       H         -1.19127843  *  -1.78340870  *  -1.56159117  *
    18       H          0.08744634  *  -2.35982766  *  -0.47583680  *
    19       H         -1.20156657  *  -1.22440777  *   1.56335030  *
    20       H         -3.21866620  *  -0.42312188  *   1.02703104  *



          CARTESIAN COORDINATES 

    NO.       ATOM           X           Y           Z

     1         C          1.8800     -1.1540      1.7476
     2         C          1.8739      0.1143      1.0094
     3         C          0.7164      1.6230     -0.5882
     4         C         -0.5886      1.1326     -1.1415
     5         C         -0.3637     -0.1388     -0.2894
     6         C         -0.6413     -1.5669     -0.6315
     7         C         -1.3829     -0.9424      0.5269
     8         O         -2.6788     -0.6028      0.2140
     9         N          0.9122      0.4723      0.1785
    10         H          1.5212     -1.0203      2.7927
    11         H          1.2756     -1.9629      1.3077
    12         H          2.9089     -1.5655      1.8538
    13         H          2.7179      0.8132      1.1723
    14         H          1.3236      2.4919     -0.7009
    15         H         -0.6258      0.9760     -2.2351
    16         H         -1.4902      1.7162     -0.8738
    17         H         -1.1913     -1.7834     -1.5616
    18         H          0.0874     -2.3598     -0.4758
    19         H         -1.2016     -1.2244      1.5634
    20         H         -3.2187     -0.4231      1.0270

 General Reference for PM7:
 "Optimization of Parameters for Semiempirical Methods VI: More Modifications to the 
 NDDO Approximations and Re-optimization of Parameters", J. J. P. Stewart, J. Mol. Mod., 1:32, 19 (2013)
 https://link.springer.com/article/10.1007/s00894-012-1667-x

           Empirical Formula: C7 H11 N O  =    20 atoms



      MOLECULAR POINT GROUP   :   C1  


          UHF CALCULATION, NO. OF ALPHA ELECTRONS =   25
                           NO. OF BETA  ELECTRONS =   24
  SCF CRITERION =    0.1000E-07

 -------------------------------------------------------------------------------
 PM7 1SCF GRADIENTS DISP RELSCF=0.0001 CHARGE=1
 Title: ASE calculation



     1SCF WAS SPECIFIED, SO BFGS WAS NOT USED                 
     SCF FIELD WAS ACHIEVED                                   


                              PM7 CALCULATION
                                                       MOPAC v23.2 Linux
                                                       Fri Sep 19 21:31:20 2025




          FINAL HEAT OF FORMATION =        187.25280 KCAL/MOL =     783.46572 KJ/MOL

          TOTAL ENERGY            =     -34134.48871 KCAL/MOL = ELECTRONIC ENERGY + CORE-CORE REPULSION
          ENERGY OF ATOMS         =      34323.93363 KCAL/MOL
                              SUM =        189.44492 KCAL/MOL
          DISPERSION ENERGY       =         -2.19212 KCAL/MOL
                              SUM =        187.25280 KCAL/MOL = FINAL HEAT OF FORMATION



          TOTAL ENERGY            =      -1480.21153 EV
          ELECTRONIC ENERGY       =      -7398.41037 EV 
          CORE-CORE REPULSION     =       5918.19884 EV
          COSMO AREA              =        168.12 SQUARE ANGSTROMS
          COSMO VOLUME            =        167.91 CUBIC ANGSTROMS

          GRADIENT NORM           =          1.15070          =       0.25730 PER ATOM
          IONIZATION POTENTIAL    =         13.876674 EV
          ALPHA SOMO LUMO (EV)    =        -13.877 -5.218
          BETA  SOMO LUMO (EV)    =        -14.425 -5.754
          NO. OF ALPHA ELECTRONS  =         25
          NO. OF BETA  ELECTRONS  =         24
          MOLECULAR WEIGHT        =        125.1700         POINT GROUP:  C1  

          MOLECULAR DIMENSIONS (Angstroms)

            Atom       Atom       Distance
            H    20    H    12     6.28771
            H    18    H    14     5.00319
            H    15    H    10     4.56858


          SCF CALCULATIONS        =          1

          WALL-CLOCK TIME         =      0.969 SECONDS
          COMPUTATION TIME        =      0.506 SECONDS

          LARGEST ATOMIC GRADIENTS

          Atom     Label                     Cartesian Gradients           Cartesian Coordinates       |Gradient|
                                           X          Y          Z        X          Y          Z

             8       O                   0.091     -0.386     -0.137   -2.67881   -0.60285    0.21398      0.419
             2       C                   0.223     -0.200     -0.149    1.87394    0.11433    1.00941      0.334
            20       H                   0.038      0.311      0.085   -3.21867   -0.42312    1.02703      0.325
            11       H                   0.243     -0.139     -0.142    1.27557   -1.96292    1.30767      0.314
            18       H                  -0.053      0.271     -0.108    0.08745   -2.35983   -0.47584      0.296
            13       H                   0.120      0.092      0.242    2.71792    0.81321    1.17230      0.285
            16       H                   0.115     -0.208      0.133   -1.49023    1.71621   -0.87376      0.272
            14       H                   0.063     -0.095     -0.237    1.32356    2.49191   -0.70090      0.263
            15       H                   0.106      0.237      0.034   -0.62584    0.97600   -2.23513      0.262
             3       C                  -0.233     -0.025     -0.112    0.71637    1.62300   -0.58817      0.260



       FINAL  POINT  AND  DERIVATIVES

   PARAMETER     ATOM    TYPE            VALUE        GRADIENT
      1          1  C    CARTESIAN X     1.880035     -0.171380  KCAL/ANGSTROM
      2          1  C    CARTESIAN Y    -1.153972      0.004094  KCAL/ANGSTROM
      3          1  C    CARTESIAN Z     1.747639      0.185522  KCAL/ANGSTROM
      4          2  C    CARTESIAN X     1.873937      0.223449  KCAL/ANGSTROM
      5          2  C    CARTESIAN Y     0.114329     -0.199614  KCAL/ANGSTROM
      6          2  C    CARTESIAN Z     1.009412     -0.148548  KCAL/ANGSTROM
      7          3  C    CARTESIAN X     0.716365     -0.232934  KCAL/ANGSTROM
      8          3  C    CARTESIAN Y     1.622997     -0.025473  KCAL/ANGSTROM
      9          3  C    CARTESIAN Z    -0.588171     -0.111791  KCAL/ANGSTROM
     10          4  C    CARTESIAN X    -0.588646     -0.149742  KCAL/ANGSTROM
     11          4  C    CARTESIAN Y     1.132649     -0.141349  KCAL/ANGSTROM
     12          4  C    CARTESIAN Z    -1.141502      0.009236  KCAL/ANGSTROM
     13          5  C    CARTESIAN X    -0.363699     -0.095789  KCAL/ANGSTROM
     14          5  C    CARTESIAN Y    -0.138826      0.055174  KCAL/ANGSTROM
     15          5  C    CARTESIAN Z    -0.289403      0.135907  KCAL/ANGSTROM
     16          6  C    CARTESIAN X    -0.641292     -0.233789  KCAL/ANGSTROM
     17          6  C    CARTESIAN Y    -1.566936      0.084589  KCAL/ANGSTROM
     18          6  C    CARTESIAN Z    -0.631534      0.049756  KCAL/ANGSTROM
     19          7  C    CARTESIAN X    -1.382931      0.026228  KCAL/ANGSTROM
     20          7  C    CARTESIAN Y    -0.942421     -0.113612  KCAL/ANGSTROM
     21          7  C    CARTESIAN Z     0.526859      0.136245  KCAL/ANGSTROM
     22          8  O    CARTESIAN X    -2.678806      0.091016  KCAL/ANGSTROM
     23          8  O    CARTESIAN Y    -0.602849     -0.385939  KCAL/ANGSTROM
     24          8  O    CARTESIAN Z     0.213981     -0.136602  KCAL/ANGSTROM
     25          9  N    CARTESIAN X     0.912233     -0.070286  KCAL/ANGSTROM
     26          9  N    CARTESIAN Y     0.472347      0.123922  KCAL/ANGSTROM
     27          9  N    CARTESIAN Z     0.178469      0.024018  KCAL/ANGSTROM
     28         10  H    CARTESIAN X     1.521197     -0.251304  KCAL/ANGSTROM
     29         10  H    CARTESIAN Y    -1.020306      0.007006  KCAL/ANGSTROM
     30         10  H    CARTESIAN Z     2.792727     -0.013828  KCAL/ANGSTROM
     31         11  H    CARTESIAN X     1.275570      0.242547  KCAL/ANGSTROM
     32         11  H    CARTESIAN Y    -1.962922     -0.139316  KCAL/ANGSTROM
     33         11  H    CARTESIAN Z     1.307667     -0.141606  KCAL/ANGSTROM
     34         12  H    CARTESIAN X     2.908863      0.034824  KCAL/ANGSTROM
     35         12  H    CARTESIAN Y    -1.565544      0.018936  KCAL/ANGSTROM
     36         12  H    CARTESIAN Z     1.853776     -0.021580  KCAL/ANGSTROM
     37         13  H    CARTESIAN X     2.717916      0.120122  KCAL/ANGSTROM
     38         13  H    CARTESIAN Y     0.813210      0.092336  KCAL/ANGSTROM
     39         13  H    CARTESIAN Z     1.172304      0.241879  KCAL/ANGSTROM
     40         14  H    CARTESIAN X     1.323556      0.063470  KCAL/ANGSTROM
     41         14  H    CARTESIAN Y     2.491914     -0.094656  KCAL/ANGSTROM
     42         14  H    CARTESIAN Z    -0.700895     -0.237001  KCAL/ANGSTROM
     43         15  H    CARTESIAN X    -0.625845      0.106404  KCAL/ANGSTROM
     44         15  H    CARTESIAN Y     0.975996      0.237247  KCAL/ANGSTROM
     45         15  H    CARTESIAN Z    -2.235126      0.034288  KCAL/ANGSTROM
     46         16  H    CARTESIAN X    -1.490231      0.115013  KCAL/ANGSTROM
     47         16  H    CARTESIAN Y     1.716210     -0.207560  KCAL/ANGSTROM
     48         16  H    CARTESIAN Z    -0.873764      0.133025  KCAL/ANGSTROM
     49         17  H    CARTESIAN X    -1.191278      0.113772  KCAL/ANGSTROM
     50         17  H    CARTESIAN Y    -1.783409     -0.076102  KCAL/ANGSTROM
     51         17  H    CARTESIAN Z    -1.561591     -0.060671  KCAL/ANGSTROM
     52         18  H    CARTESIAN X     0.087446     -0.052756  KCAL/ANGSTROM
     53         18  H    CARTESIAN Y    -2.359828      0.270987  KCAL/ANGSTROM
     54         18  H    CARTESIAN Z    -0.475837     -0.107995  KCAL/ANGSTROM
     55         19  H    CARTESIAN X    -1.201567      0.082989  KCAL/ANGSTROM
     56         19  H    CARTESIAN Y    -1.224408      0.178116  KCAL/ANGSTROM
     57         19  H    CARTESIAN Z     1.563350     -0.055412  KCAL/ANGSTROM
     58         20  H    CARTESIAN X    -3.218666      0.038143  KCAL/ANGSTROM
     59         20  H    CARTESIAN Y    -0.423122      0.311212  KCAL/ANGSTROM
     60         20  H    CARTESIAN Z     1.027031      0.085155  KCAL/ANGSTROM




   ATOM   CHEMICAL          X               Y               Z
  NUMBER   SYMBOL      (ANGSTROMS)     (ANGSTROMS)     (ANGSTROMS)

     1       C          1.88003473  *  -1.15397239  *   1.74763893  *
     2       C          1.87393660  *   0.11432943  *   1.00941185  *
     3       C          0.71636533  *   1.62299724  *  -0.58817066  *
     4       C         -0.58864558  *   1.13264945  *  -1.14150219  *
     5       C         -0.36369879  *  -0.13882623  *  -0.28940272  *
     6       C         -0.64129189  *  -1.56693577  *  -0.63153397  *
     7       C         -1.38293058  *  -0.94242100  *   0.52685851  *
     8       O         -2.67880586  *  -0.60284925  *   0.21398074  *
     9       N          0.91223281  *   0.47234706  *   0.17846898  *
    10       H          1.52119745  *  -1.02030565  *   2.79272740  *
    11       H          1.27556999  *  -1.96292164  *   1.30766700  *
    12       H          2.90886332  *  -1.56554446  *   1.85377613  *
    13       H          2.71791569  *   0.81321010  *   1.17230379  *
    14       H          1.32355564  *   2.49191384  *  -0.70089532  *
    15       H         -0.62584472  *   0.97599624  *  -2.23512595  *
    16       H         -1.49023098  *   1.71621039  *  -0.87376359  *
    17       H         -1.19127843  *  -1.78340870  *  -1.56159117  *
    18       H          0.08744634  *  -2.35982766  *  -0.47583680  *
    19       H         -1.20156657  *  -1.22440777  *   1.56335030  *
    20       H         -3.21866620  *  -0.42312188  *   1.02703104  *

                             CARTESIAN COORDINATES

   1    C        1.880034729    -1.153972392     1.747638928
   2    C        1.873936601     0.114329425     1.009411852
   3    C        0.716365330     1.622997242    -0.588170661
   4    C       -0.588645581     1.132649449    -1.141502187
   5    C       -0.363698789    -0.138826228    -0.289402717
   6    C       -0.641291887    -1.566935772    -0.631533967
   7    C       -1.382930579    -0.942421003     0.526858508
   8    O       -2.678805857    -0.602849245     0.213980737
   9    N        0.912232809     0.472347064     0.178468982
  10    H        1.521197449    -1.020305647     2.792727401
  11    H        1.275569988    -1.962921643     1.307667002
  12    H        2.908863315    -1.565544457     1.853776132
  13    H        2.717915690     0.813210104     1.172303793
  14    H        1.323555639     2.491913845    -0.700895324
  15    H       -0.625844721     0.975996240    -2.235125951
  16    H       -1.490230976     1.716210392    -0.873763592
  17    H       -1.191278426    -1.783408695    -1.561591172
  18    H        0.087446338    -2.359827656    -0.475836801
  19    H       -1.201566569    -1.224407772     1.563350295
  20    H       -3.218666204    -0.423121877     1.027031041


           Empirical Formula: C7 H11 N O  =    20 atoms



      MOLECULAR POINT GROUP   :   C1  


          ALPHA EIGENVALUES  
 -42.98394 -35.35154 -33.79085 -32.82494 -30.29392 -27.00732 -26.22987 -25.27149
 -23.35102 -22.68141 -22.23012 -21.22831 -20.97351 -19.35438 -19.20414 -18.79392
 -18.51993 -18.17253 -17.59871 -17.45495 -17.03445 -16.87877 -16.08377 -14.47149
 -13.87667  -5.21836  -3.78233  -2.23626  -2.03146  -1.80674  -1.37152  -1.10685
  -1.05281  -0.78903  -0.58636   0.10921   0.12821   0.72370   0.80847   0.87580
   0.98677   1.08298   1.41481   1.77531   1.87793   1.99946   2.21282


           BETA EIGENVALUES 
 -43.40673 -35.37050 -33.71134 -32.82290 -30.26346 -26.94522 -26.09818 -25.27943
 -23.30224 -22.65564 -22.14615 -21.20176 -20.85317 -19.25212 -19.03055 -18.75415
 -18.44285 -18.11844 -17.56925 -17.48874 -17.03485 -16.84089 -15.99453 -14.42467
  -5.75403  -3.93898  -3.83711  -2.26999  -1.95797  -1.76780  -1.27849  -1.08003
  -1.02798  -0.67879  -0.60317   0.16685   0.21935   0.77882   0.83577   0.89842
   1.08137   1.15526   1.41361   1.81472   1.88020   2.01139   2.21415


              NET ATOMIC CHARGES AND DIPOLE CONTRIBUTIONS

  ATOM NO.   TYPE          CHARGE      No. of ELECS.   s-Pop       p-Pop       
    1          C          -0.491266        4.4913     1.05148     3.43979
    2          C           0.113016        3.8870     1.11749     2.76950
    3          C           0.024347        3.9757     1.14754     2.82811
    4          C          -0.262356        4.2624     1.07444     3.18791
    5          C           0.002511        3.9975     1.07734     2.92015
    6          C          -0.342325        4.3423     1.06619     3.27614
    7          C           0.135859        3.8641     1.07529     2.78885
    8          O          -0.465140        6.4651     1.84666     4.61848
    9          N          -0.101341        5.1013     1.52840     3.57295
   10          H           0.215258        0.7847     0.78474
   11          H           0.187402        0.8126     0.81260
   12          H           0.218228        0.7818     0.78177
   13          H           0.206669        0.7933     0.79333
   14          H           0.210832        0.7892     0.78917
   15          H           0.211176        0.7888     0.78882
   16          H           0.215502        0.7845     0.78450
   17          H           0.222439        0.7776     0.77756
   18          H           0.191154        0.8088     0.80885
   19          H           0.162330        0.8377     0.83767
   20          H           0.345708        0.6543     0.65429
 DIPOLE           X         Y         Z       TOTAL
 POINT-CHG.     3.636     1.243     2.048     4.355
 HYBRID         0.089     0.071     0.215     0.243
 SUM            3.726     1.314     2.263     4.552


          ATOMIC ORBITAL ELECTRON POPULATIONS

     Atom    s        px        py        pz   
    1  C   1.05148   1.24126   1.04409   1.15443
    2  C   1.11749   0.90946   1.01884   0.84120
    3  C   1.14754   1.00337   0.92039   0.90435
    4  C   1.07444   1.05131   0.99933   1.13727
    5  C   1.07734   0.84332   0.98696   1.08987
    6  C   1.06619   1.14202   0.99025   1.14387
    7  C   1.07529   0.79347   0.98255   1.01283
    8  O   1.84666   1.27656   1.88925   1.45267
    9  N   1.52840   1.16726   1.19242   1.21327
   10  H   0.78474
   11  H   0.81260
   12  H   0.78177
   13  H   0.79333
   14  H   0.78917
   15  H   0.78882
   16  H   0.78450
   17  H   0.77756
   18  H   0.80885
   19  H   0.83767
   20  H   0.65429


                    (SZ)    =    0.500000
                    (S**2)  =    0.828418


          ATOMIC ORBITAL SPIN POPULATIONS

    Atom   Total    s     px     py     pz   
         Atomic
    1  C -0.0148 -0.003  0.000 -0.008 -0.004
    2  C  0.4961  0.013  0.125  0.094  0.264
    3  C  0.8162  0.022  0.191  0.158  0.445
    4  C -0.0319 -0.005 -0.018 -0.007 -0.002
    5  C  0.0303  0.003  0.014  0.004  0.009
    6  C -0.0115 -0.001 -0.001 -0.009  0.000
    7  C -0.0159 -0.001 -0.003 -0.011 -0.001
    8  O -0.0027 -0.000 -0.001 -0.002  0.000
    9  N -0.3059 -0.017 -0.073 -0.068 -0.148
   10  H  0.0215  0.022
   11  H  0.0036  0.004
   12  H  0.0085  0.008
   13  H -0.0147 -0.015
   14  H -0.0210 -0.021
   15  H  0.0207  0.021
   16  H  0.0207  0.021
   17  H  0.0004  0.000
   18  H  0.0003  0.000
   19  H  0.0001  0.000
   20  H  0.0000  0.000

 **********************
 *                    *
 * JOB ENDED NORMALLY *
 *                    *
 **********************



 TOTAL JOB TIME:             1.52 SECONDS

 == MOPAC DONE ==
