 *******************************************************************************
 **                                                                           **
 **                              MOPAC v23.2                                  **
 **                                                                           **
 *******************************************************************************
 **          Digital Object Identifier (DOI): 10.5281/zenodo.6511958          **
 **    Visit the DOI location for information on how to cite this program.    **
 *******************************************************************************

                              PM7 CALCULATION RESULTS

 *******************************************************************************
 *  CALCULATION DONE: (MAX THREADS = 40)             Fri Sep 19 21:32:38 2025  *
 *  PM7        - The PM7 Hamiltonian to be used
 *  1SCF       - DO 1 SCF AND THEN STOP 
 *  T=         - A TIME OF 172800.0 SECONDS REQUESTED
 *  DUMP=N     - RESTART FILE WRITTEN EVERY 7200.0 SECONDS REQUESTED
 *  RELSCF     - DEFAULT SCF CRITERION MULTIPLIED BY 0.0001
 *              (DEFAULT SCF CRITERION = 0.00010)
 *  GRADIENTS  - ALL GRADIENTS TO BE PRINTED
 *  DISP       - PRINT DISPERSION AND HYDROGEN BOND ENERGIES
 *******************************************************************************
PM7 1SCF GRADIENTS DISP RELSCF=0.0001
 Title: ASE calculation

   ATOM   CHEMICAL          X               Y               Z
  NUMBER   SYMBOL      (ANGSTROMS)     (ANGSTROMS)     (ANGSTROMS)

     1       C         -1.70666992  *  -1.99272274  *   0.50748055  *
     2       C         -2.09856578  *  -0.56943956  *   0.12045824  *
     3       C         -0.87792883  *   0.25836900  *  -0.31822807  *
     4       C         -1.35408826  *   1.60665959  *  -0.89122162  *
     5       O         -2.14602766  *   2.31869933  *   0.03340221  *
     6       C          0.05096661  *   0.50303644  *   0.85474171  *
     7       C          1.37594394  *   1.21335513  *   0.65603138  *
     8       N          1.33352779  *  -0.20677303  *   1.05812017  *
     9       C          1.78234238  *  -1.20212690  *   0.08664050  *
    10       H         -2.58367046  *  -2.57648202  *   0.80903206  *
    11       H         -1.23047731  *  -2.51999609  *  -0.32528321  *
    12       H         -1.00309028  *  -1.99634671  *   1.35061901  *
    13       H         -2.84735942  *  -0.59145758  *  -0.69516651  *
    14       H         -2.60827309  *  -0.06680778  *   0.96639194  *
    15       H         -0.34407447  *  -0.29320200  *  -1.12901575  *
    16       H         -2.04440894  *   1.46992584  *  -1.74509892  *
    17       H         -0.50619687  *   2.24261125  *  -1.20213096  *
    18       H         -1.65899624  *   2.44961535  *   0.87081483  *
    19       H         -0.49045379  *   0.65361873  *   1.80483622  *
    20       H          1.70346336  *   1.50420059  *  -0.33946447  *
    21       H          1.75686912  *   1.90065205  *   1.41455080  *
    22       H          2.83627562  *  -1.43970979  *   0.32639282  *
    23       H          1.19159157  *  -2.12609623  *   0.21920095  *
    24       H          1.73419016  *  -0.90401105  *  -0.97027468  *



          CARTESIAN COORDINATES 

    NO.       ATOM           X           Y           Z

     1         C         -1.7067     -1.9927      0.5075
     2         C         -2.0986     -0.5694      0.1205
     3         C         -0.8779      0.2584     -0.3182
     4         C         -1.3541      1.6067     -0.8912
     5         O         -2.1460      2.3187      0.0334
     6         C          0.0510      0.5030      0.8547
     7         C          1.3759      1.2134      0.6560
     8         N          1.3335     -0.2068      1.0581
     9         C          1.7823     -1.2021      0.0866
    10         H         -2.5837     -2.5765      0.8090
    11         H         -1.2305     -2.5200     -0.3253
    12         H         -1.0031     -1.9963      1.3506
    13         H         -2.8474     -0.5915     -0.6952
    14         H         -2.6083     -0.0668      0.9664
    15         H         -0.3441     -0.2932     -1.1290
    16         H         -2.0444      1.4699     -1.7451
    17         H         -0.5062      2.2426     -1.2021
    18         H         -1.6590      2.4496      0.8708
    19         H         -0.4905      0.6536      1.8048
    20         H          1.7035      1.5042     -0.3395
    21         H          1.7569      1.9007      1.4146
    22         H          2.8363     -1.4397      0.3264
    23         H          1.1916     -2.1261      0.2192
    24         H          1.7342     -0.9040     -0.9703

 General Reference for PM7:
 "Optimization of Parameters for Semiempirical Methods VI: More Modifications to the 
 NDDO Approximations and Re-optimization of Parameters", J. J. P. Stewart, J. Mol. Mod., 1:32, 19 (2013)
 https://link.springer.com/article/10.1007/s00894-012-1667-x

           Empirical Formula: C7 H15 N O  =    24 atoms



      MOLECULAR POINT GROUP   :   C1  


      RHF CALCULATION, NO. OF DOUBLY OCCUPIED LEVELS = 27

  SCF CRITERION =    0.1000E-07

 -------------------------------------------------------------------------------
 PM7 1SCF GRADIENTS DISP RELSCF=0.0001
 Title: ASE calculation



     1SCF WAS SPECIFIED, SO BFGS WAS NOT USED                 
     SCF FIELD WAS ACHIEVED                                   


                              PM7 CALCULATION
                                                       MOPAC v23.2 Linux
                                                       Fri Sep 19 21:32:39 2025




          FINAL HEAT OF FORMATION =        -33.21185 KCAL/MOL =    -138.95837 KJ/MOL

          TOTAL ENERGY            =     -35583.78868 KCAL/MOL = ELECTRONIC ENERGY + CORE-CORE REPULSION
          ENERGY OF ATOMS         =      35553.47302 KCAL/MOL
                              SUM =        -30.31566 KCAL/MOL
          DISPERSION ENERGY       =         -2.77952 KCAL/MOL
          H-BOND ENERGY           =         -0.11667 KCAL/MOL
                              SUM =        -33.21185 KCAL/MOL = FINAL HEAT OF FORMATION



          TOTAL ENERGY            =      -1543.05912 EV
          ELECTRONIC ENERGY       =      -8292.00064 EV 
          CORE-CORE REPULSION     =       6748.94152 EV
          COSMO AREA              =        176.28 SQUARE ANGSTROMS
          COSMO VOLUME            =        185.20 CUBIC ANGSTROMS

          GRADIENT NORM           =          1.37534          =       0.28074 PER ATOM
          IONIZATION POTENTIAL    =          9.708097 EV
          HOMO LUMO ENERGIES (EV) =         -9.708  2.292
          NO. OF FILLED LEVELS    =         27
          MOLECULAR WEIGHT        =        129.2016         POINT GROUP:  C1  

          MOLECULAR DIMENSIONS (Angstroms)

            Atom       Atom       Distance
            H    21    H    10     6.26512
            H    22    O     5     6.19709
            H    19    H    16     3.42425


          SCF CALCULATIONS        =          1

          WALL-CLOCK TIME         =      0.836 SECONDS
          COMPUTATION TIME        =      0.602 SECONDS

          LARGEST ATOMIC GRADIENTS

          Atom     Label                     Cartesian Gradients           Cartesian Coordinates       |Gradient|
                                           X          Y          Z        X          Y          Z

            14       H                   0.425     -0.112      0.094   -2.60827   -0.06681    0.96639      0.449
            11       H                  -0.004      0.373     -0.065   -1.23048   -2.52000   -0.32528      0.379
            18       H                  -0.191     -0.218     -0.236   -1.65900    2.44962    0.87081      0.374
            16       H                  -0.121      0.116      0.334   -2.04441    1.46993   -1.74510      0.374
             5       O                   0.059     -0.037     -0.339   -2.14603    2.31870    0.03340      0.346
            20       H                   0.014     -0.253     -0.224    1.70346    1.50420   -0.33946      0.338
            24       H                   0.154      0.250      0.113    1.73419   -0.90401   -0.97027      0.315
            22       H                  -0.077      0.287      0.048    2.83628   -1.43971    0.32639      0.301
             9       C                  -0.039     -0.239     -0.171    1.78234   -1.20213    0.08664      0.296
            21       H                   0.020      0.247      0.134    1.75687    1.90065    1.41455      0.282



       FINAL  POINT  AND  DERIVATIVES

   PARAMETER     ATOM    TYPE            VALUE        GRADIENT
      1          1  C    CARTESIAN X    -1.706670      0.046027  KCAL/ANGSTROM
      2          1  C    CARTESIAN Y    -1.992723      0.030229  KCAL/ANGSTROM
      3          1  C    CARTESIAN Z     0.507481     -0.011893  KCAL/ANGSTROM
      4          2  C    CARTESIAN X    -2.098566      0.077100  KCAL/ANGSTROM
      5          2  C    CARTESIAN Y    -0.569440     -0.063593  KCAL/ANGSTROM
      6          2  C    CARTESIAN Z     0.120458      0.036298  KCAL/ANGSTROM
      7          3  C    CARTESIAN X    -0.877929     -0.080722  KCAL/ANGSTROM
      8          3  C    CARTESIAN Y     0.258369     -0.075461  KCAL/ANGSTROM
      9          3  C    CARTESIAN Z    -0.318228      0.207586  KCAL/ANGSTROM
     10          4  C    CARTESIAN X    -1.354088      0.199580  KCAL/ANGSTROM
     11          4  C    CARTESIAN Y     1.606660     -0.140312  KCAL/ANGSTROM
     12          4  C    CARTESIAN Z    -0.891222      0.054840  KCAL/ANGSTROM
     13          5  O    CARTESIAN X    -2.146028      0.058547  KCAL/ANGSTROM
     14          5  O    CARTESIAN Y     2.318699     -0.036516  KCAL/ANGSTROM
     15          5  O    CARTESIAN Z     0.033402     -0.338971  KCAL/ANGSTROM
     16          6  C    CARTESIAN X     0.050967      0.091836  KCAL/ANGSTROM
     17          6  C    CARTESIAN Y     0.503036     -0.257057  KCAL/ANGSTROM
     18          6  C    CARTESIAN Z     0.854742      0.041782  KCAL/ANGSTROM
     19          7  C    CARTESIAN X     1.375944     -0.191195  KCAL/ANGSTROM
     20          7  C    CARTESIAN Y     1.213355      0.060994  KCAL/ANGSTROM
     21          7  C    CARTESIAN Z     0.656031      0.011575  KCAL/ANGSTROM
     22          8  N    CARTESIAN X     1.333528      0.026355  KCAL/ANGSTROM
     23          8  N    CARTESIAN Y    -0.206773     -0.195392  KCAL/ANGSTROM
     24          8  N    CARTESIAN Z     1.058120     -0.076055  KCAL/ANGSTROM
     25          9  C    CARTESIAN X     1.782342     -0.038666  KCAL/ANGSTROM
     26          9  C    CARTESIAN Y    -1.202127     -0.238571  KCAL/ANGSTROM
     27          9  C    CARTESIAN Z     0.086640     -0.170879  KCAL/ANGSTROM
     28         10  H    CARTESIAN X    -2.583670      0.007851  KCAL/ANGSTROM
     29         10  H    CARTESIAN Y    -2.576482      0.075932  KCAL/ANGSTROM
     30         10  H    CARTESIAN Z     0.809032     -0.246637  KCAL/ANGSTROM
     31         11  H    CARTESIAN X    -1.230477     -0.004101  KCAL/ANGSTROM
     32         11  H    CARTESIAN Y    -2.519996      0.373074  KCAL/ANGSTROM
     33         11  H    CARTESIAN Z    -0.325283     -0.065193  KCAL/ANGSTROM
     34         12  H    CARTESIAN X    -1.003090     -0.080775  KCAL/ANGSTROM
     35         12  H    CARTESIAN Y    -1.996347      0.196747  KCAL/ANGSTROM
     36         12  H    CARTESIAN Z     1.350619      0.010891  KCAL/ANGSTROM
     37         13  H    CARTESIAN X    -2.847359     -0.067688  KCAL/ANGSTROM
     38         13  H    CARTESIAN Y    -0.591458      0.040435  KCAL/ANGSTROM
     39         13  H    CARTESIAN Z    -0.695167      0.195449  KCAL/ANGSTROM
     40         14  H    CARTESIAN X    -2.608273      0.424748  KCAL/ANGSTROM
     41         14  H    CARTESIAN Y    -0.066808     -0.111834  KCAL/ANGSTROM
     42         14  H    CARTESIAN Z     0.966392      0.094070  KCAL/ANGSTROM
     43         15  H    CARTESIAN X    -0.344074     -0.098087  KCAL/ANGSTROM
     44         15  H    CARTESIAN Y    -0.293202      0.166368  KCAL/ANGSTROM
     45         15  H    CARTESIAN Z    -1.129016      0.183957  KCAL/ANGSTROM
     46         16  H    CARTESIAN X    -2.044409     -0.121106  KCAL/ANGSTROM
     47         16  H    CARTESIAN Y     1.469926      0.115566  KCAL/ANGSTROM
     48         16  H    CARTESIAN Z    -1.745099      0.334180  KCAL/ANGSTROM
     49         17  H    CARTESIAN X    -0.506197      0.124383  KCAL/ANGSTROM
     50         17  H    CARTESIAN Y     2.242611     -0.062554  KCAL/ANGSTROM
     51         17  H    CARTESIAN Z    -1.202131     -0.158519  KCAL/ANGSTROM
     52         18  H    CARTESIAN X    -1.658996     -0.191335  KCAL/ANGSTROM
     53         18  H    CARTESIAN Y     2.449615     -0.218307  KCAL/ANGSTROM
     54         18  H    CARTESIAN Z     0.870815     -0.235676  KCAL/ANGSTROM
     55         19  H    CARTESIAN X    -0.490454     -0.031456  KCAL/ANGSTROM
     56         19  H    CARTESIAN Y     0.653619     -0.178840  KCAL/ANGSTROM
     57         19  H    CARTESIAN Z     1.804836     -0.026037  KCAL/ANGSTROM
     58         20  H    CARTESIAN X     1.703463      0.013942  KCAL/ANGSTROM
     59         20  H    CARTESIAN Y     1.504201     -0.253195  KCAL/ANGSTROM
     60         20  H    CARTESIAN Z    -0.339464     -0.223993  KCAL/ANGSTROM
     61         21  H    CARTESIAN X     1.756869      0.020250  KCAL/ANGSTROM
     62         21  H    CARTESIAN Y     1.900652      0.247098  KCAL/ANGSTROM
     63         21  H    CARTESIAN Z     1.414551      0.134285  KCAL/ANGSTROM
     64         22  H    CARTESIAN X     2.836276     -0.077464  KCAL/ANGSTROM
     65         22  H    CARTESIAN Y    -1.439710      0.286716  KCAL/ANGSTROM
     66         22  H    CARTESIAN Z     0.326393      0.047789  KCAL/ANGSTROM
     67         23  H    CARTESIAN X     1.191592     -0.262185  KCAL/ANGSTROM
     68         23  H    CARTESIAN Y    -2.126096     -0.011611  KCAL/ANGSTROM
     69         23  H    CARTESIAN Z     0.219201      0.087762  KCAL/ANGSTROM
     70         24  H    CARTESIAN X     1.734190      0.154165  KCAL/ANGSTROM
     71         24  H    CARTESIAN Y    -0.904011      0.250076  KCAL/ANGSTROM
     72         24  H    CARTESIAN Z    -0.970275      0.113380  KCAL/ANGSTROM




   ATOM   CHEMICAL          X               Y               Z
  NUMBER   SYMBOL      (ANGSTROMS)     (ANGSTROMS)     (ANGSTROMS)

     1       C         -1.70666992  *  -1.99272274  *   0.50748055  *
     2       C         -2.09856578  *  -0.56943956  *   0.12045824  *
     3       C         -0.87792883  *   0.25836900  *  -0.31822807  *
     4       C         -1.35408826  *   1.60665959  *  -0.89122162  *
     5       O         -2.14602766  *   2.31869933  *   0.03340221  *
     6       C          0.05096661  *   0.50303644  *   0.85474171  *
     7       C          1.37594394  *   1.21335513  *   0.65603138  *
     8       N          1.33352779  *  -0.20677303  *   1.05812017  *
     9       C          1.78234238  *  -1.20212690  *   0.08664050  *
    10       H         -2.58367046  *  -2.57648202  *   0.80903206  *
    11       H         -1.23047731  *  -2.51999609  *  -0.32528321  *
    12       H         -1.00309028  *  -1.99634671  *   1.35061901  *
    13       H         -2.84735942  *  -0.59145758  *  -0.69516651  *
    14       H         -2.60827309  *  -0.06680778  *   0.96639194  *
    15       H         -0.34407447  *  -0.29320200  *  -1.12901575  *
    16       H         -2.04440894  *   1.46992584  *  -1.74509892  *
    17       H         -0.50619687  *   2.24261125  *  -1.20213096  *
    18       H         -1.65899624  *   2.44961535  *   0.87081483  *
    19       H         -0.49045379  *   0.65361873  *   1.80483622  *
    20       H          1.70346336  *   1.50420059  *  -0.33946447  *
    21       H          1.75686912  *   1.90065205  *   1.41455080  *
    22       H          2.83627562  *  -1.43970979  *   0.32639282  *
    23       H          1.19159157  *  -2.12609623  *   0.21920095  *
    24       H          1.73419016  *  -0.90401105  *  -0.97027468  *

                             CARTESIAN COORDINATES

   1    C       -1.706669920    -1.992722744     0.507480554
   2    C       -2.098565775    -0.569439555     0.120458236
   3    C       -0.877928830     0.258369001    -0.318228072
   4    C       -1.354088256     1.606659589    -0.891221623
   5    O       -2.146027660     2.318699333     0.033402212
   6    C        0.050966609     0.503036443     0.854741709
   7    C        1.375943935     1.213355134     0.656031378
   8    N        1.333527789    -0.206773033     1.058120167
   9    C        1.782342377    -1.202126902     0.086640499
  10    H       -2.583670464    -2.576482015     0.809032061
  11    H       -1.230477313    -2.519996091    -0.325283211
  12    H       -1.003090281    -1.996346709     1.350619013
  13    H       -2.847359418    -0.591457579    -0.695166514
  14    H       -2.608273092    -0.066807784     0.966391936
  15    H       -0.344074468    -0.293202001    -1.129015755
  16    H       -2.044408940     1.469925838    -1.745098920
  17    H       -0.506196867     2.242611254    -1.202130960
  18    H       -1.658996241     2.449615345     0.870814835
  19    H       -0.490453791     0.653618732     1.804836223
  20    H        1.703463362     1.504200591    -0.339464473
  21    H        1.756869123     1.900652046     1.414550804
  22    H        2.836275620    -1.439709792     0.326392819
  23    H        1.191591570    -2.126096233     0.219200952
  24    H        1.734190160    -0.904011049    -0.970274683


           Empirical Formula: C7 H15 N O  =    24 atoms



      MOLECULAR POINT GROUP   :   C1  


                  EIGENVALUES  
 -36.31306 -30.13567 -28.17316 -26.22100 -25.20584 -22.46191 -22.02818 -21.05700
 -19.30390 -17.29566 -16.90363 -16.64379 -15.68557 -15.01632 -14.81252 -14.57235
 -14.18519 -13.78150 -12.79035 -12.74878 -12.44314 -12.10225 -11.85720 -11.57825
 -11.45729 -10.60286  -9.70810   2.29235   2.55164   2.89312   3.58975   3.67690
   3.95656   4.31083   4.51999   4.74007   5.30072   5.31144   5.45866   5.48498
   5.54728   5.62209   5.70668   5.84837   5.86518   5.96641   6.05995   6.21957
   6.35075   6.59775   7.02077


              NET ATOMIC CHARGES AND DIPOLE CONTRIBUTIONS

  ATOM NO.   TYPE          CHARGE      No. of ELECS.   s-Pop       p-Pop       
    1          C          -0.445772        4.4458     1.05252     3.39326
    2          C          -0.246978        4.2470     1.05673     3.19025
    3          C          -0.183796        4.1838     1.07067     3.11312
    4          C          -0.011326        4.0113     1.08895     2.92238
    5          O          -0.536014        6.5360     1.84970     4.68632
    6          C          -0.074784        4.0748     1.07116     3.00362
    7          C          -0.250934        4.2509     1.07018     3.18075
    8          N          -0.338219        5.3382     1.74335     3.59487
    9          C          -0.289063        4.2891     1.06112     3.22795
   10          H           0.145487        0.8545     0.85451
   11          H           0.138382        0.8616     0.86162
   12          H           0.154882        0.8451     0.84512
   13          H           0.142288        0.8577     0.85771
   14          H           0.149959        0.8500     0.85004
   15          H           0.148120        0.8519     0.85188
   16          H           0.144292        0.8557     0.85571
   17          H           0.115503        0.8845     0.88450
   18          H           0.311624        0.6884     0.68838
   19          H           0.169622        0.8304     0.83038
   20          H           0.147968        0.8520     0.85203
   21          H           0.168983        0.8310     0.83102
   22          H           0.159984        0.8400     0.84002
   23          H           0.155062        0.8449     0.84494
   24          H           0.124730        0.8753     0.87527
 DIPOLE           X         Y         Z       TOTAL
 POINT-CHG.     0.923    -0.760    -1.514     1.929
 HYBRID         0.108     0.058    -0.344     0.365
 SUM            1.031    -0.702    -1.859     2.238


          ATOMIC ORBITAL ELECTRON POPULATIONS

     Atom    s        px        py        pz   
    1  C   1.05252   1.16982   1.05382   1.16961
    2  C   1.05673   1.03612   0.99890   1.15523
    3  C   1.07067   1.03019   1.03597   1.04696
    4  C   1.08895   1.03128   0.94757   0.94352
    5  O   1.84970   1.50233   1.79698   1.38700
    6  C   1.07116   0.89042   1.03872   1.07448
    7  C   1.07018   1.07303   0.96171   1.14601
    8  N   1.74335   1.14718   1.04109   1.40660
    9  C   1.06112   1.14965   1.03993   1.03837
   10  H   0.85451
   11  H   0.86162
   12  H   0.84512
   13  H   0.85771
   14  H   0.85004
   15  H   0.85188
   16  H   0.85571
   17  H   0.88450
   18  H   0.68838
   19  H   0.83038
   20  H   0.85203
   21  H   0.83102
   22  H   0.84002
   23  H   0.84494
   24  H   0.87527

 **********************
 *                    *
 * JOB ENDED NORMALLY *
 *                    *
 **********************



 TOTAL JOB TIME:             1.33 SECONDS

 == MOPAC DONE ==
