 *******************************************************************************
 **                                                                           **
 **                              MOPAC v23.2                                  **
 **                                                                           **
 *******************************************************************************
 **          Digital Object Identifier (DOI): 10.5281/zenodo.6511958          **
 **    Visit the DOI location for information on how to cite this program.    **
 *******************************************************************************

                              PM7 CALCULATION RESULTS

 *******************************************************************************
 *  CALCULATION DONE: (MAX THREADS = 40)             Fri Sep 19 21:30:53 2025  *
 *  PM7        - The PM7 Hamiltonian to be used
 *  1SCF       - DO 1 SCF AND THEN STOP 
 *  T=         - A TIME OF 172800.0 SECONDS REQUESTED
 *  DUMP=N     - RESTART FILE WRITTEN EVERY 7200.0 SECONDS REQUESTED
 *  RELSCF     - DEFAULT SCF CRITERION MULTIPLIED BY 0.0001
 *              (DEFAULT SCF CRITERION = 0.00010)
 *  GRADIENTS  - ALL GRADIENTS TO BE PRINTED
 *  DISP       - PRINT DISPERSION AND HYDROGEN BOND ENERGIES
 *******************************************************************************
PM7 1SCF GRADIENTS DISP RELSCF=0.0001
 Title: ASE calculation

   ATOM   CHEMICAL          X               Y               Z
  NUMBER   SYMBOL      (ANGSTROMS)     (ANGSTROMS)     (ANGSTROMS)

     1       C          2.83381397  *  -0.45802679  *  -0.32097174  *
     2       C          1.43512168  *  -0.10330476  *  -0.06759445  *
     3       C          0.77927639  *   1.03150213  *   0.36656384  *
     4       C         -0.59435819  *   0.66026468  *   0.38110589  *
     5       C         -0.68137729  *  -0.65301170  *  -0.03779706  *
     6       O          0.55578945  *  -1.16154456  *  -0.32538791  *
     7       C         -2.06849477  *  -1.13588701  *  -0.05841745  *
     8       C         -2.78649638  *   0.16975195  *   0.43744687  *
     9       O         -1.79198420  *   1.22631029  *   0.68348183  *
    10       H          3.51599141  *   0.38158729  *  -0.11463501  *
    11       H          2.99153801  *  -0.75959857  *  -1.37173691  *
    12       H          3.15701702  *  -1.30684136  *   0.30753594  *
    13       H          1.19276647  *   1.97819210  *   0.63410808  *
    14       H         -2.41379506  *  -1.44567722  *  -1.05989550  *
    15       H         -2.24883224  *  -1.99139655  *   0.61520279  *
    16       H         -3.29261758  *   0.03419908  *   1.40206391  *
    17       H         -3.46183303  *   0.59381533  *  -0.31694975  *



          CARTESIAN COORDINATES 

    NO.       ATOM           X           Y           Z

     1         C          2.8338     -0.4580     -0.3210
     2         C          1.4351     -0.1033     -0.0676
     3         C          0.7793      1.0315      0.3666
     4         C         -0.5944      0.6603      0.3811
     5         C         -0.6814     -0.6530     -0.0378
     6         O          0.5558     -1.1615     -0.3254
     7         C         -2.0685     -1.1359     -0.0584
     8         C         -2.7865      0.1698      0.4374
     9         O         -1.7920      1.2263      0.6835
    10         H          3.5160      0.3816     -0.1146
    11         H          2.9915     -0.7596     -1.3717
    12         H          3.1570     -1.3068      0.3075
    13         H          1.1928      1.9782      0.6341
    14         H         -2.4138     -1.4457     -1.0599
    15         H         -2.2488     -1.9914      0.6152
    16         H         -3.2926      0.0342      1.4021
    17         H         -3.4618      0.5938     -0.3169

 General Reference for PM7:
 "Optimization of Parameters for Semiempirical Methods VI: More Modifications to the 
 NDDO Approximations and Re-optimization of Parameters", J. J. P. Stewart, J. Mol. Mod., 1:32, 19 (2013)
 https://link.springer.com/article/10.1007/s00894-012-1667-x

           Empirical Formula: C7 H8 O2  =    17 atoms



      MOLECULAR POINT GROUP   :   Cs  


      RHF CALCULATION, NO. OF DOUBLY OCCUPIED LEVELS = 24

  SCF CRITERION =    0.1000E-07

 -------------------------------------------------------------------------------
 PM7 1SCF GRADIENTS DISP RELSCF=0.0001
 Title: ASE calculation



     1SCF WAS SPECIFIED, SO BFGS WAS NOT USED                 
     SCF FIELD WAS ACHIEVED                                   


                              PM7 CALCULATION
                                                       MOPAC v23.2 Linux
                                                       Fri Sep 19 21:30:54 2025




          FINAL HEAT OF FORMATION =        -32.61981 KCAL/MOL =    -136.48128 KJ/MOL

          TOTAL ENERGY            =     -35898.81957 KCAL/MOL = ELECTRONIC ENERGY + CORE-CORE REPULSION
          ENERGY OF ATOMS         =      35867.73354 KCAL/MOL
                              SUM =        -31.08603 KCAL/MOL
          DISPERSION ENERGY       =         -1.53378 KCAL/MOL
                              SUM =        -32.61981 KCAL/MOL = FINAL HEAT OF FORMATION



          TOTAL ENERGY            =      -1556.72015 EV
          ELECTRONIC ENERGY       =      -7138.03447 EV 
          CORE-CORE REPULSION     =       5581.31432 EV
          COSMO AREA              =        156.02 SQUARE ANGSTROMS
          COSMO VOLUME            =        147.79 CUBIC ANGSTROMS

          GRADIENT NORM           =          1.36891          =       0.33201 PER ATOM
          IONIZATION POTENTIAL    =          8.381701 EV
          HOMO LUMO ENERGIES (EV) =         -8.382  0.535
          NO. OF FILLED LEVELS    =         24
          MOLECULAR WEIGHT        =        124.1390         POINT GROUP:  Cs  

          MOLECULAR DIMENSIONS (Angstroms)

            Atom       Atom       Distance
            H    16    H    10     6.98414
            H    13    H    14     4.07289
            H    12    H    17     2.96568


          SCF CALCULATIONS        =          1

          WALL-CLOCK TIME         =      0.414 SECONDS
          COMPUTATION TIME        =      0.575 SECONDS

          LARGEST ATOMIC GRADIENTS

          Atom     Label                     Cartesian Gradients           Cartesian Coordinates       |Gradient|
                                           X          Y          Z        X          Y          Z

            16       H                  -0.235     -0.288      0.195   -3.29262    0.03420    1.40206      0.419
            17       H                  -0.283     -0.135     -0.278   -3.46183    0.59382   -0.31695      0.419
             8       C                   0.052      0.386      0.122   -2.78650    0.16975    0.43745      0.409
             9       O                   0.249      0.312      0.077   -1.79198    1.22631    0.68348      0.407
            12       H                  -0.177     -0.216      0.291    3.15702   -1.30684    0.30754      0.403
            11       H                  -0.238     -0.031     -0.321    2.99154   -0.75960   -1.37174      0.401
            14       H                   0.127     -0.304      0.216   -2.41380   -1.44568   -1.05990      0.394
            15       H                   0.075     -0.111     -0.366   -2.24883   -1.99140    0.61520      0.390
             6       O                   0.096      0.333      0.096    0.55579   -1.16154   -0.32539      0.359
            10       H                   0.205     -0.244     -0.107    3.51599    0.38159   -0.11464      0.336



       FINAL  POINT  AND  DERIVATIVES

   PARAMETER     ATOM    TYPE            VALUE        GRADIENT
      1          1  C    CARTESIAN X     2.833814     -0.003736  KCAL/ANGSTROM
      2          1  C    CARTESIAN Y    -0.458027     -0.189390  KCAL/ANGSTROM
      3          1  C    CARTESIAN Z    -0.320972     -0.061444  KCAL/ANGSTROM
      4          2  C    CARTESIAN X     1.435122      0.115452  KCAL/ANGSTROM
      5          2  C    CARTESIAN Y    -0.103305      0.281947  KCAL/ANGSTROM
      6          2  C    CARTESIAN Z    -0.067594      0.077816  KCAL/ANGSTROM
      7          3  C    CARTESIAN X     0.779276      0.046474  KCAL/ANGSTROM
      8          3  C    CARTESIAN Y     1.031502      0.182034  KCAL/ANGSTROM
      9          3  C    CARTESIAN Z     0.366564      0.054730  KCAL/ANGSTROM
     10          4  C    CARTESIAN X    -0.594358     -0.062699  KCAL/ANGSTROM
     11          4  C    CARTESIAN Y     0.660265      0.061657  KCAL/ANGSTROM
     12          4  C    CARTESIAN Z     0.381106      0.022934  KCAL/ANGSTROM
     13          5  C    CARTESIAN X    -0.681377      0.165690  KCAL/ANGSTROM
     14          5  C    CARTESIAN Y    -0.653012      0.006159  KCAL/ANGSTROM
     15          5  C    CARTESIAN Z    -0.037797     -0.017036  KCAL/ANGSTROM
     16          6  O    CARTESIAN X     0.555789      0.095748  KCAL/ANGSTROM
     17          6  O    CARTESIAN Y    -1.161545      0.332699  KCAL/ANGSTROM
     18          6  O    CARTESIAN Z    -0.325388      0.096054  KCAL/ANGSTROM
     19          7  C    CARTESIAN X    -2.068495      0.149630  KCAL/ANGSTROM
     20          7  C    CARTESIAN Y    -1.135887     -0.014037  KCAL/ANGSTROM
     21          7  C    CARTESIAN Z    -0.058417     -0.018731  KCAL/ANGSTROM
     22          8  C    CARTESIAN X    -2.786496      0.052231  KCAL/ANGSTROM
     23          8  C    CARTESIAN Y     0.169752      0.386423  KCAL/ANGSTROM
     24          8  C    CARTESIAN Z     0.437447      0.121743  KCAL/ANGSTROM
     25          9  O    CARTESIAN X    -1.791984      0.249064  KCAL/ANGSTROM
     26          9  O    CARTESIAN Y     1.226310      0.312068  KCAL/ANGSTROM
     27          9  O    CARTESIAN Z     0.683482      0.076504  KCAL/ANGSTROM
     28         10  H    CARTESIAN X     3.515991      0.205092  KCAL/ANGSTROM
     29         10  H    CARTESIAN Y     0.381587     -0.244441  KCAL/ANGSTROM
     30         10  H    CARTESIAN Z    -0.114635     -0.106666  KCAL/ANGSTROM
     31         11  H    CARTESIAN X     2.991538     -0.237552  KCAL/ANGSTROM
     32         11  H    CARTESIAN Y    -0.759599     -0.030823  KCAL/ANGSTROM
     33         11  H    CARTESIAN Z    -1.371737     -0.321091  KCAL/ANGSTROM
     34         12  H    CARTESIAN X     3.157017     -0.176706  KCAL/ANGSTROM
     35         12  H    CARTESIAN Y    -1.306841     -0.216194  KCAL/ANGSTROM
     36         12  H    CARTESIAN Z     0.307536      0.290815  KCAL/ANGSTROM
     37         13  H    CARTESIAN X     1.192766     -0.283528  KCAL/ANGSTROM
     38         13  H    CARTESIAN Y     1.978192     -0.030927  KCAL/ANGSTROM
     39         13  H    CARTESIAN Z     0.634108      0.018098  KCAL/ANGSTROM
     40         14  H    CARTESIAN X    -2.413795      0.127402  KCAL/ANGSTROM
     41         14  H    CARTESIAN Y    -1.445677     -0.303530  KCAL/ANGSTROM
     42         14  H    CARTESIAN Z    -1.059896      0.216223  KCAL/ANGSTROM
     43         15  H    CARTESIAN X    -2.248832      0.075465  KCAL/ANGSTROM
     44         15  H    CARTESIAN Y    -1.991397     -0.110784  KCAL/ANGSTROM
     45         15  H    CARTESIAN Z     0.615203     -0.366417  KCAL/ANGSTROM
     46         16  H    CARTESIAN X    -3.292618     -0.235044  KCAL/ANGSTROM
     47         16  H    CARTESIAN Y     0.034199     -0.287563  KCAL/ANGSTROM
     48         16  H    CARTESIAN Z     1.402064      0.194694  KCAL/ANGSTROM
     49         17  H    CARTESIAN X    -3.461833     -0.282983  KCAL/ANGSTROM
     50         17  H    CARTESIAN Y     0.593815     -0.135302  KCAL/ANGSTROM
     51         17  H    CARTESIAN Z    -0.316950     -0.278231  KCAL/ANGSTROM




   ATOM   CHEMICAL          X               Y               Z
  NUMBER   SYMBOL      (ANGSTROMS)     (ANGSTROMS)     (ANGSTROMS)

     1       C          2.83381397  *  -0.45802679  *  -0.32097174  *
     2       C          1.43512168  *  -0.10330476  *  -0.06759445  *
     3       C          0.77927639  *   1.03150213  *   0.36656384  *
     4       C         -0.59435819  *   0.66026468  *   0.38110589  *
     5       C         -0.68137729  *  -0.65301170  *  -0.03779706  *
     6       O          0.55578945  *  -1.16154456  *  -0.32538791  *
     7       C         -2.06849477  *  -1.13588701  *  -0.05841745  *
     8       C         -2.78649638  *   0.16975195  *   0.43744687  *
     9       O         -1.79198420  *   1.22631029  *   0.68348183  *
    10       H          3.51599141  *   0.38158729  *  -0.11463501  *
    11       H          2.99153801  *  -0.75959857  *  -1.37173691  *
    12       H          3.15701702  *  -1.30684136  *   0.30753594  *
    13       H          1.19276647  *   1.97819210  *   0.63410808  *
    14       H         -2.41379506  *  -1.44567722  *  -1.05989550  *
    15       H         -2.24883224  *  -1.99139655  *   0.61520279  *
    16       H         -3.29261758  *   0.03419908  *   1.40206391  *
    17       H         -3.46183303  *   0.59381533  *  -0.31694975  *

                             CARTESIAN COORDINATES

   1    C        2.833813968    -0.458026792    -0.320971738
   2    C        1.435121681    -0.103304759    -0.067594453
   3    C        0.779276388     1.031502134     0.366563836
   4    C       -0.594358191     0.660264678     0.381105895
   5    C       -0.681377288    -0.653011697    -0.037797060
   6    O        0.555789453    -1.161544560    -0.325387906
   7    C       -2.068494774    -1.135887009    -0.058417451
   8    C       -2.786496385     0.169751951     0.437446867
   9    O       -1.791984205     1.226310286     0.683481826
  10    H        3.515991407     0.381587293    -0.114635011
  11    H        2.991538006    -0.759598571    -1.371736907
  12    H        3.157017019    -1.306841362     0.307535943
  13    H        1.192766468     1.978192099     0.634108084
  14    H       -2.413795064    -1.445677222    -1.059895504
  15    H       -2.248832238    -1.991396552     0.615202795
  16    H       -3.292617581     0.034199077     1.402063908
  17    H       -3.461833028     0.593815326    -0.316949755


           Empirical Formula: C7 H8 O2  =    17 atoms



      MOLECULAR POINT GROUP   :   Cs  


                  EIGENVALUES  
 -32.36795 -31.08279 -27.58983 -27.29653 -26.39012 -23.06128 -20.97452 -19.97564
 -19.37849 -16.91706 -16.90708 -15.79862 -15.37081 -14.64778 -14.00197 -13.84138
 -13.54638 -13.44594 -13.28441 -12.77561 -12.25263 -11.87785  -9.81314  -8.38170
   0.53479   1.34431   1.61238   2.29395   3.07698   3.74730   4.04027   4.31866
   4.58153   4.73468   5.02610   5.05935   5.23433   5.28998   5.58029   5.59467
   5.70520   6.04706   6.39209   6.42838


              NET ATOMIC CHARGES AND DIPOLE CONTRIBUTIONS

  ATOM NO.   TYPE          CHARGE      No. of ELECS.   s-Pop       p-Pop       
    1          C          -0.448891        4.4489     1.04487     3.40402
    2          C           0.156344        3.8437     1.10038     2.74327
    3          C          -0.300282        4.3003     1.07185     3.22843
    4          C           0.123876        3.8761     1.07355     2.80258
    5          C          -0.086542        4.0865     1.07350     3.01304
    6          O          -0.144408        6.1444     1.87759     4.26682
    7          C          -0.274693        4.2747     1.05909     3.21561
    8          C          -0.044284        4.0443     1.10708     2.93720
    9          O          -0.285601        6.2856     1.88605     4.39955
   10          H           0.174055        0.8259     0.82594
   11          H           0.173973        0.8260     0.82603
   12          H           0.173980        0.8260     0.82602
   13          H           0.183163        0.8168     0.81684
   14          H           0.160414        0.8396     0.83959
   15          H           0.160425        0.8396     0.83957
   16          H           0.139240        0.8608     0.86076
   17          H           0.139230        0.8608     0.86077
 DIPOLE           X         Y         Z       TOTAL
 POINT-CHG.     0.185    -1.223    -0.417     1.306
 HYBRID         0.021    -0.179    -0.060     0.190
 SUM            0.206    -1.402    -0.477     1.495


          ATOMIC ORBITAL ELECTRON POPULATIONS

     Atom    s        px        py        pz   
    1  C   1.04487   1.03101   1.18524   1.18776
    2  C   1.10038   0.88494   0.86664   0.99170
    3  C   1.07185   0.98540   1.07765   1.16537
    4  C   1.07355   0.87064   0.93531   0.99662
    5  C   1.07350   0.86221   0.97939   1.17144
    6  O   1.87759   1.21656   1.36189   1.68837
    7  C   1.05909   0.99125   1.06241   1.16195
    8  C   1.10708   0.93182   0.88745   1.11793
    9  O   1.88605   1.20984   1.35100   1.83871
   10  H   0.82594
   11  H   0.82603
   12  H   0.82602
   13  H   0.81684
   14  H   0.83959
   15  H   0.83957
   16  H   0.86076
   17  H   0.86077

 **********************
 *                    *
 * JOB ENDED NORMALLY *
 *                    *
 **********************



 TOTAL JOB TIME:             0.79 SECONDS

 == MOPAC DONE ==
