 *******************************************************************************
 **                                                                           **
 **                              MOPAC v23.2                                  **
 **                                                                           **
 *******************************************************************************
 **          Digital Object Identifier (DOI): 10.5281/zenodo.6511958          **
 **    Visit the DOI location for information on how to cite this program.    **
 *******************************************************************************

                              PM7 CALCULATION RESULTS

 *******************************************************************************
 *  CALCULATION DONE: (MAX THREADS = 40)             Fri Sep 19 21:36:29 2025  *
 *  PM7        - The PM7 Hamiltonian to be used
 *
 *
 *
 *                 CHARGE ON SYSTEM = +1
 *
 *
 *
 *  1SCF       - DO 1 SCF AND THEN STOP 
 *  T=         - A TIME OF 172800.0 SECONDS REQUESTED
 *  DUMP=N     - RESTART FILE WRITTEN EVERY 7200.0 SECONDS REQUESTED
 *  RELSCF     - DEFAULT SCF CRITERION MULTIPLIED BY 0.0001
 *              (DEFAULT SCF CRITERION = 0.00010)
 *  GRADIENTS  - ALL GRADIENTS TO BE PRINTED
 *  DISP       - PRINT DISPERSION AND HYDROGEN BOND ENERGIES
 *******************************************************************************
PM7 1SCF GRADIENTS DISP RELSCF=0.0001 CHARGE=1
 Title: ASE calculation

   ATOM   CHEMICAL          X               Y               Z
  NUMBER   SYMBOL      (ANGSTROMS)     (ANGSTROMS)     (ANGSTROMS)

     1       C         -0.84094976  *   1.82926736  *   0.73460198  *
     2       C         -0.51557374  *   0.49983991  *   0.15128955  *
     3       C         -1.18011748  *   0.08806414  *  -1.14143754  *
     4       C         -1.32368628  *  -1.44129138  *  -1.09920741  *
     5       C         -1.28942279  *  -1.85554122  *   0.37669237  *
     6       C         -0.48754881  *  -0.73944285  *   1.11024816  *
     7       N          0.88175670  *  -1.11737428  *   1.25187127  *
     8       C          1.65379197  *  -0.28343058  *   0.45342370  *
     9       O          0.98965107  *   0.61003736  *  -0.19129799  *
    10       H         -1.93334564  *   1.96708992  *   0.86657896  *
    11       H         -0.39151789  *   2.01103271  *   1.72413245  *
    12       H         -0.52183575  *   2.67093531  *   0.08745291  *
    13       H         -2.17720341  *   0.57397384  *  -1.24882712  *
    14       H         -0.62243908  *   0.42776787  *  -2.03990163  *
    15       H         -2.26536489  *  -1.77259981  *  -1.58473901  *
    16       H         -0.52105787  *  -1.93886943  *  -1.67640756  *
    17       H         -0.83961188  *  -2.85807366  *   0.52384351  *
    18       H         -2.30862613  *  -1.92555353  *   0.80753607  *
    19       H         -0.93945357  *  -0.55091237  *   2.12855744  *
    20       H          2.74741965  *  -0.34107837  *   0.33640940  *



          CARTESIAN COORDINATES 

    NO.       ATOM           X           Y           Z

     1         C         -0.8409      1.8293      0.7346
     2         C         -0.5156      0.4998      0.1513
     3         C         -1.1801      0.0881     -1.1414
     4         C         -1.3237     -1.4413     -1.0992
     5         C         -1.2894     -1.8555      0.3767
     6         C         -0.4875     -0.7394      1.1102
     7         N          0.8818     -1.1174      1.2519
     8         C          1.6538     -0.2834      0.4534
     9         O          0.9897      0.6100     -0.1913
    10         H         -1.9333      1.9671      0.8666
    11         H         -0.3915      2.0110      1.7241
    12         H         -0.5218      2.6709      0.0875
    13         H         -2.1772      0.5740     -1.2488
    14         H         -0.6224      0.4278     -2.0399
    15         H         -2.2654     -1.7726     -1.5847
    16         H         -0.5211     -1.9389     -1.6764
    17         H         -0.8396     -2.8581      0.5238
    18         H         -2.3086     -1.9256      0.8075
    19         H         -0.9395     -0.5509      2.1286
    20         H          2.7474     -0.3411      0.3364

 General Reference for PM7:
 "Optimization of Parameters for Semiempirical Methods VI: More Modifications to the 
 NDDO Approximations and Re-optimization of Parameters", J. J. P. Stewart, J. Mol. Mod., 1:32, 19 (2013)
 https://link.springer.com/article/10.1007/s00894-012-1667-x

           Empirical Formula: C7 H11 N O  =    20 atoms



      MOLECULAR POINT GROUP   :   C1  


          UHF CALCULATION, NO. OF ALPHA ELECTRONS =   25
                           NO. OF BETA  ELECTRONS =   24
  SCF CRITERION =    0.1000E-07

 -------------------------------------------------------------------------------
 PM7 1SCF GRADIENTS DISP RELSCF=0.0001 CHARGE=1
 Title: ASE calculation



     1SCF WAS SPECIFIED, SO BFGS WAS NOT USED                 
     SCF FIELD WAS ACHIEVED                                   


                              PM7 CALCULATION
                                                       MOPAC v23.2 Linux
                                                       Fri Sep 19 21:36:30 2025




          FINAL HEAT OF FORMATION =        170.56760 KCAL/MOL =     713.65485 KJ/MOL

          TOTAL ENERGY            =     -34151.35742 KCAL/MOL = ELECTRONIC ENERGY + CORE-CORE REPULSION
          ENERGY OF ATOMS         =      34323.93363 KCAL/MOL
                              SUM =        172.57621 KCAL/MOL
          DISPERSION ENERGY       =         -2.00861 KCAL/MOL
                              SUM =        170.56760 KCAL/MOL = FINAL HEAT OF FORMATION



          TOTAL ENERGY            =      -1480.94302 EV
          ELECTRONIC ENERGY       =      -7699.75962 EV 
          CORE-CORE REPULSION     =       6218.81660 EV
          COSMO AREA              =        159.11 SQUARE ANGSTROMS
          COSMO VOLUME            =        161.81 CUBIC ANGSTROMS

          GRADIENT NORM           =          1.24859          =       0.27919 PER ATOM
          IONIZATION POTENTIAL    =         15.797330 EV
          ALPHA SOMO LUMO (EV)    =        -15.816 -5.834
          BETA  SOMO LUMO (EV)    =        -15.797 -8.026
          NO. OF ALPHA ELECTRONS  =         25
          NO. OF BETA  ELECTRONS  =         24
          MOLECULAR WEIGHT        =        125.1700         POINT GROUP:  C1  

          MOLECULAR DIMENSIONS (Angstroms)

            Atom       Atom       Distance
            H    20    H    15     5.55590
            H    17    H    12     5.33165
            H    19    H    14     3.86409


          SCF CALCULATIONS        =          1

          WALL-CLOCK TIME         =      1.617 SECONDS
          COMPUTATION TIME        =      0.505 SECONDS

          LARGEST ATOMIC GRADIENTS

          Atom     Label                     Cartesian Gradients           Cartesian Coordinates       |Gradient|
                                           X          Y          Z        X          Y          Z

            20       H                  -0.341      0.089     -0.189    2.74742   -0.34108    0.33641      0.401
            12       H                   0.285      0.128      0.212   -0.52184    2.67094    0.08745      0.377
            17       H                  -0.279      0.055     -0.237   -0.83961   -2.85807    0.52384      0.370
            13       H                  -0.243     -0.263     -0.064   -2.17720    0.57397   -1.24883      0.364
            19       H                  -0.333      0.042      0.138   -0.93945   -0.55091    2.12856      0.363
            11       H                  -0.281     -0.189     -0.075   -0.39152    2.01103    1.72413      0.347
             7       N                   0.319      0.129     -0.010    0.88176   -1.11737    1.25187      0.344
             6       C                   0.248     -0.037      0.161   -0.48755   -0.73944    1.11025      0.298
             9       O                   0.267     -0.091     -0.087    0.98965    0.61004   -0.19130      0.295
            10       H                  -0.077      0.271      0.017   -1.93335    1.96709    0.86658      0.282



       FINAL  POINT  AND  DERIVATIVES

   PARAMETER     ATOM    TYPE            VALUE        GRADIENT
      1          1  C    CARTESIAN X    -0.840950     -0.090913  KCAL/ANGSTROM
      2          1  C    CARTESIAN Y     1.829267     -0.123528  KCAL/ANGSTROM
      3          1  C    CARTESIAN Z     0.734602     -0.160065  KCAL/ANGSTROM
      4          2  C    CARTESIAN X    -0.515574      0.072318  KCAL/ANGSTROM
      5          2  C    CARTESIAN Y     0.499840     -0.099169  KCAL/ANGSTROM
      6          2  C    CARTESIAN Z     0.151290     -0.017733  KCAL/ANGSTROM
      7          3  C    CARTESIAN X    -1.180117     -0.002933  KCAL/ANGSTROM
      8          3  C    CARTESIAN Y     0.088064      0.090066  KCAL/ANGSTROM
      9          3  C    CARTESIAN Z    -1.141438     -0.139108  KCAL/ANGSTROM
     10          4  C    CARTESIAN X    -1.323686      0.024600  KCAL/ANGSTROM
     11          4  C    CARTESIAN Y    -1.441291      0.216999  KCAL/ANGSTROM
     12          4  C    CARTESIAN Z    -1.099207     -0.032642  KCAL/ANGSTROM
     13          5  C    CARTESIAN X    -1.289423      0.086247  KCAL/ANGSTROM
     14          5  C    CARTESIAN Y    -1.855541      0.109163  KCAL/ANGSTROM
     15          5  C    CARTESIAN Z     0.376692     -0.100517  KCAL/ANGSTROM
     16          6  C    CARTESIAN X    -0.487549      0.248263  KCAL/ANGSTROM
     17          6  C    CARTESIAN Y    -0.739443     -0.036844  KCAL/ANGSTROM
     18          6  C    CARTESIAN Z     1.110248      0.161268  KCAL/ANGSTROM
     19          7  N    CARTESIAN X     0.881757      0.318703  KCAL/ANGSTROM
     20          7  N    CARTESIAN Y    -1.117374      0.128847  KCAL/ANGSTROM
     21          7  N    CARTESIAN Z     1.251871     -0.009819  KCAL/ANGSTROM
     22          8  C    CARTESIAN X     1.653792      0.145182  KCAL/ANGSTROM
     23          8  C    CARTESIAN Y    -0.283431     -0.119188  KCAL/ANGSTROM
     24          8  C    CARTESIAN Z     0.453424      0.151094  KCAL/ANGSTROM
     25          9  O    CARTESIAN X     0.989651      0.266775  KCAL/ANGSTROM
     26          9  O    CARTESIAN Y     0.610037     -0.091204  KCAL/ANGSTROM
     27          9  O    CARTESIAN Z    -0.191298     -0.086728  KCAL/ANGSTROM
     28         10  H    CARTESIAN X    -1.933346     -0.076597  KCAL/ANGSTROM
     29         10  H    CARTESIAN Y     1.967090      0.270893  KCAL/ANGSTROM
     30         10  H    CARTESIAN Z     0.866579      0.017231  KCAL/ANGSTROM
     31         11  H    CARTESIAN X    -0.391518     -0.281442  KCAL/ANGSTROM
     32         11  H    CARTESIAN Y     2.011033     -0.188730  KCAL/ANGSTROM
     33         11  H    CARTESIAN Z     1.724132     -0.074997  KCAL/ANGSTROM
     34         12  H    CARTESIAN X    -0.521836      0.284658  KCAL/ANGSTROM
     35         12  H    CARTESIAN Y     2.670935      0.128389  KCAL/ANGSTROM
     36         12  H    CARTESIAN Z     0.087453      0.211726  KCAL/ANGSTROM
     37         13  H    CARTESIAN X    -2.177203     -0.243035  KCAL/ANGSTROM
     38         13  H    CARTESIAN Y     0.573974     -0.263030  KCAL/ANGSTROM
     39         13  H    CARTESIAN Z    -1.248827     -0.064378  KCAL/ANGSTROM
     40         14  H    CARTESIAN X    -0.622439      0.005928  KCAL/ANGSTROM
     41         14  H    CARTESIAN Y     0.427768     -0.126413  KCAL/ANGSTROM
     42         14  H    CARTESIAN Z    -2.039902      0.185907  KCAL/ANGSTROM
     43         15  H    CARTESIAN X    -2.265365     -0.078166  KCAL/ANGSTROM
     44         15  H    CARTESIAN Y    -1.772600      0.004323  KCAL/ANGSTROM
     45         15  H    CARTESIAN Z    -1.584739      0.009911  KCAL/ANGSTROM
     46         16  H    CARTESIAN X    -0.521058      0.086224  KCAL/ANGSTROM
     47         16  H    CARTESIAN Y    -1.938869     -0.037435  KCAL/ANGSTROM
     48         16  H    CARTESIAN Z    -1.676408      0.095612  KCAL/ANGSTROM
     49         17  H    CARTESIAN X    -0.839612     -0.278636  KCAL/ANGSTROM
     50         17  H    CARTESIAN Y    -2.858074      0.055144  KCAL/ANGSTROM
     51         17  H    CARTESIAN Z     0.523844     -0.237285  KCAL/ANGSTROM
     52         18  H    CARTESIAN X    -2.308626      0.187420  KCAL/ANGSTROM
     53         18  H    CARTESIAN Y    -1.925554     -0.048945  KCAL/ANGSTROM
     54         18  H    CARTESIAN Z     0.807536      0.142451  KCAL/ANGSTROM
     55         19  H    CARTESIAN X    -0.939454     -0.333178  KCAL/ANGSTROM
     56         19  H    CARTESIAN Y    -0.550912      0.041598  KCAL/ANGSTROM
     57         19  H    CARTESIAN Z     2.128557      0.137545  KCAL/ANGSTROM
     58         20  H    CARTESIAN X     2.747420     -0.341424  KCAL/ANGSTROM
     59         20  H    CARTESIAN Y    -0.341078      0.089061  KCAL/ANGSTROM
     60         20  H    CARTESIAN Z     0.336409     -0.189480  KCAL/ANGSTROM




   ATOM   CHEMICAL          X               Y               Z
  NUMBER   SYMBOL      (ANGSTROMS)     (ANGSTROMS)     (ANGSTROMS)

     1       C         -0.84094976  *   1.82926736  *   0.73460198  *
     2       C         -0.51557374  *   0.49983991  *   0.15128955  *
     3       C         -1.18011748  *   0.08806414  *  -1.14143754  *
     4       C         -1.32368628  *  -1.44129138  *  -1.09920741  *
     5       C         -1.28942279  *  -1.85554122  *   0.37669237  *
     6       C         -0.48754881  *  -0.73944285  *   1.11024816  *
     7       N          0.88175670  *  -1.11737428  *   1.25187127  *
     8       C          1.65379197  *  -0.28343058  *   0.45342370  *
     9       O          0.98965107  *   0.61003736  *  -0.19129799  *
    10       H         -1.93334564  *   1.96708992  *   0.86657896  *
    11       H         -0.39151789  *   2.01103271  *   1.72413245  *
    12       H         -0.52183575  *   2.67093531  *   0.08745291  *
    13       H         -2.17720341  *   0.57397384  *  -1.24882712  *
    14       H         -0.62243908  *   0.42776787  *  -2.03990163  *
    15       H         -2.26536489  *  -1.77259981  *  -1.58473901  *
    16       H         -0.52105787  *  -1.93886943  *  -1.67640756  *
    17       H         -0.83961188  *  -2.85807366  *   0.52384351  *
    18       H         -2.30862613  *  -1.92555353  *   0.80753607  *
    19       H         -0.93945357  *  -0.55091237  *   2.12855744  *
    20       H          2.74741965  *  -0.34107837  *   0.33640940  *

                             CARTESIAN COORDINATES

   1    C       -0.840949761     1.829267359     0.734601978
   2    C       -0.515573744     0.499839907     0.151289545
   3    C       -1.180117481     0.088064141    -1.141437539
   4    C       -1.323686280    -1.441291383    -1.099207406
   5    C       -1.289422792    -1.855541224     0.376692368
   6    C       -0.487548807    -0.739442854     1.110248163
   7    N        0.881756704    -1.117374278     1.251871269
   8    C        1.653791973    -0.283430580     0.453423702
   9    O        0.989651073     0.610037364    -0.191297994
  10    H       -1.933345642     1.967089921     0.866578965
  11    H       -0.391517893     2.011032705     1.724132448
  12    H       -0.521835752     2.670935312     0.087452913
  13    H       -2.177203409     0.573973844    -1.248827122
  14    H       -0.622439080     0.427767872    -2.039901632
  15    H       -2.265364886    -1.772599805    -1.584739007
  16    H       -0.521057867    -1.938869428    -1.676407556
  17    H       -0.839611881    -2.858073657     0.523843511
  18    H       -2.308626128    -1.925553532     0.807536073
  19    H       -0.939453567    -0.550912367     2.128557435
  20    H        2.747419650    -0.341078368     0.336409404


           Empirical Formula: C7 H11 N O  =    20 atoms



      MOLECULAR POINT GROUP   :   C1  


          ALPHA EIGENVALUES  
 -41.90001 -37.45824 -34.89436 -31.57508 -29.95785 -28.41596 -26.93230 -25.25440
 -24.64794 -22.69761 -22.01832 -21.23980 -21.02578 -20.27165 -19.38278 -19.24061
 -18.81814 -18.32544 -17.85086 -17.56278 -17.03546 -16.94914 -16.55613 -16.25533
 -15.81561  -5.83405  -4.71745  -3.13687  -2.64875  -2.30412  -1.70995  -1.14453
  -1.10312  -0.88603  -0.72183  -0.55173   0.01380   0.29171   0.78865   0.90787
   0.94665   1.13151   1.62001   1.80004   1.96236   2.17428   2.30118


           BETA EIGENVALUES 
 -40.76659 -36.33108 -34.75750 -31.53833 -29.79993 -28.29682 -26.66847 -25.07971
 -24.50832 -22.34775 -21.70803 -21.07474 -20.83710 -19.74687 -19.20865 -18.94668
 -18.18588 -18.10143 -17.64994 -17.43238 -16.97819 -16.82351 -16.16848 -15.79733
  -8.02627  -4.59334  -4.54104  -2.87960  -2.46888  -2.16863  -1.62576  -1.11847
  -0.99149  -0.75487  -0.59772  -0.52623   0.03274   0.40314   0.79098   0.90840
   0.94712   1.14132   1.62639   1.80162   1.96985   2.17438   2.30176


              NET ATOMIC CHARGES AND DIPOLE CONTRIBUTIONS

  ATOM NO.   TYPE          CHARGE      No. of ELECS.   s-Pop       p-Pop       
    1          C          -0.519537        4.5195     1.05716     3.46238
    2          C           0.250972        3.7490     1.14516     2.60387
    3          C          -0.334817        4.3348     1.06940     3.26542
    4          C          -0.274474        4.2745     1.06387     3.21061
    5          C          -0.238045        4.2380     1.07528     3.16277
    6          C          -0.105048        4.1050     1.10620     2.99884
    7          N          -0.202996        5.2030     1.79436     3.40864
    8          C           0.366994        3.6330     1.20238     2.43062
    9          O          -0.160247        6.1602     1.88002     4.28022
   10          H           0.213018        0.7870     0.78698
   11          H           0.189919        0.8101     0.81008
   12          H           0.209192        0.7908     0.79081
   13          H           0.200156        0.7998     0.79984
   14          H           0.194226        0.8058     0.80577
   15          H           0.184533        0.8155     0.81547
   16          H           0.162351        0.8376     0.83765
   17          H           0.189696        0.8103     0.81030
   18          H           0.181282        0.8187     0.81872
   19          H           0.238747        0.7613     0.76125
   20          H           0.254079        0.7459     0.74592
 DIPOLE           X         Y         Z       TOTAL
 POINT-CHG.     0.819     0.651     0.310     1.092
 HYBRID         0.153     0.839    -0.317     0.910
 SUM            0.972     1.490    -0.007     1.779


          ATOMIC ORBITAL ELECTRON POPULATIONS

     Atom    s        px        py        pz   
    1  C   1.05716   1.22161   1.04710   1.19367
    2  C   1.14516   0.65193   0.97545   0.97648
    3  C   1.06940   1.16904   1.05445   1.04193
    4  C   1.06387   1.21149   0.98040   1.01871
    5  C   1.07528   1.11948   1.05259   0.99069
    6  C   1.10620   0.90002   1.00218   1.09665
    7  N   1.79436   1.11848   1.19745   1.09271
    8  C   1.20238   1.01467   0.71578   0.70018
    9  O   1.88002   1.38009   1.42421   1.47592
   10  H   0.78698
   11  H   0.81008
   12  H   0.79081
   13  H   0.79984
   14  H   0.80577
   15  H   0.81547
   16  H   0.83765
   17  H   0.81030
   18  H   0.81872
   19  H   0.76125
   20  H   0.74592


                    (SZ)    =    0.500000
                    (S**2)  =    0.774473


          ATOMIC ORBITAL SPIN POPULATIONS

    Atom   Total    s     px     py     pz   
         Atomic
    1  C  0.0067  0.001  0.001  0.004  0.001
    2  C -0.0178 -0.001 -0.014 -0.001 -0.002
    3  C  0.0086  0.002  0.002  0.001  0.004
    4  C -0.0001 -0.000 -0.000 -0.001  0.001
    5  C  0.0743  0.008  0.025  0.023  0.018
    6  C -0.0324 -0.008 -0.034 -0.002  0.012
    7  N  0.7718  0.013  0.042  0.287  0.430
    8  C -0.1023 -0.011 -0.015 -0.032 -0.045
    9  O  0.2534  0.007  0.017  0.097  0.132
   10  H -0.0006 -0.001
   11  H -0.0003 -0.000
   12  H -0.0005 -0.000
   13  H -0.0004 -0.000
   14  H -0.0007 -0.001
   15  H  0.0012  0.001
   16  H  0.0000  0.000
   17  H -0.0026 -0.003
   18  H -0.0007 -0.001
   19  H  0.0415  0.041
   20  H  0.0009  0.001

 **********************
 *                    *
 * JOB ENDED NORMALLY *
 *                    *
 **********************



 TOTAL JOB TIME:             2.14 SECONDS

 == MOPAC DONE ==
