 *******************************************************************************
 **                                                                           **
 **                              MOPAC v23.2                                  **
 **                                                                           **
 *******************************************************************************
 **          Digital Object Identifier (DOI): 10.5281/zenodo.6511958          **
 **    Visit the DOI location for information on how to cite this program.    **
 *******************************************************************************

                              PM7 CALCULATION RESULTS

 *******************************************************************************
 *  CALCULATION DONE: (MAX THREADS = 40)             Fri Sep 19 21:34:27 2025  *
 *  PM7        - The PM7 Hamiltonian to be used
 *
 *
 *
 *                 CHARGE ON SYSTEM = +1
 *
 *
 *
 *  1SCF       - DO 1 SCF AND THEN STOP 
 *  T=         - A TIME OF 172800.0 SECONDS REQUESTED
 *  DUMP=N     - RESTART FILE WRITTEN EVERY 7200.0 SECONDS REQUESTED
 *  RELSCF     - DEFAULT SCF CRITERION MULTIPLIED BY 0.0001
 *              (DEFAULT SCF CRITERION = 0.00010)
 *  GRADIENTS  - ALL GRADIENTS TO BE PRINTED
 *  DISP       - PRINT DISPERSION AND HYDROGEN BOND ENERGIES
 *******************************************************************************
PM7 1SCF GRADIENTS DISP RELSCF=0.0001 CHARGE=1
 Title: ASE calculation

   ATOM   CHEMICAL          X               Y               Z
  NUMBER   SYMBOL      (ANGSTROMS)     (ANGSTROMS)     (ANGSTROMS)

     1       C         -1.16878051  *  -1.76523028  *   0.51176805  *
     2       C         -0.97978272  *  -0.67035331  *  -0.52720773  *
     3       C         -1.84942127  *   0.57279183  *  -0.24889570  *
     4       C         -0.95261357  *   1.71114216  *   0.00925041  *
     5       O         -0.88529720  *   2.83420521  *   0.29578032  *
     6       O          0.51427754  *   1.08661382  *  -0.20998488  *
     7       C          0.43513961  *  -0.14541855  *  -0.48598426  *
     8       C          1.66567523  *  -0.92296582  *  -0.72196328  *
     9       C          2.33976200  *  -1.22796545  *   0.55076096  *
    10       H         -1.01234286  *  -1.41853120  *   1.54328377  *
    11       H         -2.18870582  *  -2.18699737  *   0.47381692  *
    12       H         -0.48899574  *  -2.61848669  *   0.35512278  *
    13       H         -1.20847620  *  -1.09094776  *  -1.54705331  *
    14       H         -2.54334815  *   0.79246468  *  -1.10177387  *
    15       H         -2.54569299  *   0.40893541  *   0.61691044  *
    16       H          1.46290029  *  -1.85951552  *  -1.30408365  *
    17       H          2.39714731  *  -0.34361605  *  -1.36789619  *
    18       H          2.23826825  *  -0.61402187  *   1.41848308  *
    19       H          3.01647519  *  -2.05802050  *   0.61511041  *



          CARTESIAN COORDINATES 

    NO.       ATOM           X           Y           Z

     1         C         -1.1688     -1.7652      0.5118
     2         C         -0.9798     -0.6704     -0.5272
     3         C         -1.8494      0.5728     -0.2489
     4         C         -0.9526      1.7111      0.0093
     5         O         -0.8853      2.8342      0.2958
     6         O          0.5143      1.0866     -0.2100
     7         C          0.4351     -0.1454     -0.4860
     8         C          1.6657     -0.9230     -0.7220
     9         C          2.3398     -1.2280      0.5508
    10         H         -1.0123     -1.4185      1.5433
    11         H         -2.1887     -2.1870      0.4738
    12         H         -0.4890     -2.6185      0.3551
    13         H         -1.2085     -1.0909     -1.5471
    14         H         -2.5433      0.7925     -1.1018
    15         H         -2.5457      0.4089      0.6169
    16         H          1.4629     -1.8595     -1.3041
    17         H          2.3971     -0.3436     -1.3679
    18         H          2.2383     -0.6140      1.4185
    19         H          3.0165     -2.0580      0.6151

 General Reference for PM7:
 "Optimization of Parameters for Semiempirical Methods VI: More Modifications to the 
 NDDO Approximations and Re-optimization of Parameters", J. J. P. Stewart, J. Mol. Mod., 1:32, 19 (2013)
 https://link.springer.com/article/10.1007/s00894-012-1667-x

           Empirical Formula: C7 H10 O2  =    19 atoms



      MOLECULAR POINT GROUP   :   C1  


          UHF CALCULATION, NO. OF ALPHA ELECTRONS =   25
                           NO. OF BETA  ELECTRONS =   24
  SCF CRITERION =    0.1000E-07

 -------------------------------------------------------------------------------
 PM7 1SCF GRADIENTS DISP RELSCF=0.0001 CHARGE=1
 Title: ASE calculation



     1SCF WAS SPECIFIED, SO BFGS WAS NOT USED                 
     SCF FIELD WAS ACHIEVED                                   


                              PM7 CALCULATION
                                                       MOPAC v23.2 Linux
                                                       Fri Sep 19 21:34:28 2025




          FINAL HEAT OF FORMATION =        118.17933 KCAL/MOL =     494.46231 KJ/MOL

          TOTAL ENERGY            =     -36362.33443 KCAL/MOL = ELECTRONIC ENERGY + CORE-CORE REPULSION
          ENERGY OF ATOMS         =      36482.50324 KCAL/MOL
                              SUM =        120.16880 KCAL/MOL
          DISPERSION ENERGY       =         -1.98948 KCAL/MOL
                              SUM =        118.17933 KCAL/MOL = FINAL HEAT OF FORMATION



          TOTAL ENERGY            =      -1576.82006 EV
          ELECTRONIC ENERGY       =      -7469.79669 EV 
          CORE-CORE REPULSION     =       5892.97663 EV
          COSMO AREA              =        165.19 SQUARE ANGSTROMS
          COSMO VOLUME            =        164.64 CUBIC ANGSTROMS

          GRADIENT NORM           =          0.90829          =       0.20837 PER ATOM
          IONIZATION POTENTIAL    =         13.651659 EV
          ALPHA SOMO LUMO (EV)    =        -13.652 -5.718
          BETA  SOMO LUMO (EV)    =        -16.258 -5.699
          NO. OF ALPHA ELECTRONS  =         25
          NO. OF BETA  ELECTRONS  =         24
          MOLECULAR WEIGHT        =        126.1548         POINT GROUP:  C1  

          MOLECULAR DIMENSIONS (Angstroms)

            Atom       Atom       Distance
            H    19    H    14     6.47955
            H    11    O     5     5.06445
            H    10    H    17     3.54347


          SCF CALCULATIONS        =          1

          WALL-CLOCK TIME         =      1.258 SECONDS
          COMPUTATION TIME        =      0.747 SECONDS

          LARGEST ATOMIC GRADIENTS

          Atom     Label                     Cartesian Gradients           Cartesian Coordinates       |Gradient|
                                           X          Y          Z        X          Y          Z

             9       C                  -0.171      0.077     -0.349    2.33976   -1.22797    0.55076      0.396
            14       H                   0.169     -0.265      0.097   -2.54335    0.79246   -1.10177      0.329
            16       H                  -0.140      0.065      0.241    1.46290   -1.85952   -1.30408      0.286
             6       O                  -0.072     -0.198      0.142    0.51428    1.08661   -0.20998      0.254
             4       C                   0.004     -0.232     -0.073   -0.95261    1.71114    0.00925      0.243
            12       H                  -0.024      0.078      0.205   -0.48900   -2.61849    0.35512      0.220
             8       C                   0.060      0.098     -0.173    1.66568   -0.92297   -0.72196      0.207
            13       H                  -0.078      0.169     -0.021   -1.20848   -1.09095   -1.54705      0.188
             7       C                   0.139      0.052     -0.108    0.43514   -0.14542   -0.48598      0.183
            10       H                  -0.163      0.000     -0.080   -1.01234   -1.41853    1.54328      0.182



       FINAL  POINT  AND  DERIVATIVES

   PARAMETER     ATOM    TYPE            VALUE        GRADIENT
      1          1  C    CARTESIAN X    -1.168781     -0.031851  KCAL/ANGSTROM
      2          1  C    CARTESIAN Y    -1.765230      0.100120  KCAL/ANGSTROM
      3          1  C    CARTESIAN Z     0.511768     -0.051590  KCAL/ANGSTROM
      4          2  C    CARTESIAN X    -0.979783      0.123355  KCAL/ANGSTROM
      5          2  C    CARTESIAN Y    -0.670353      0.054010  KCAL/ANGSTROM
      6          2  C    CARTESIAN Z    -0.527208     -0.104120  KCAL/ANGSTROM
      7          3  C    CARTESIAN X    -1.849421      0.052712  KCAL/ANGSTROM
      8          3  C    CARTESIAN Y     0.572792      0.024608  KCAL/ANGSTROM
      9          3  C    CARTESIAN Z    -0.248896     -0.091975  KCAL/ANGSTROM
     10          4  C    CARTESIAN X    -0.952614      0.003544  KCAL/ANGSTROM
     11          4  C    CARTESIAN Y     1.711142     -0.232076  KCAL/ANGSTROM
     12          4  C    CARTESIAN Z     0.009250     -0.073387  KCAL/ANGSTROM
     13          5  O    CARTESIAN X    -0.885297     -0.064912  KCAL/ANGSTROM
     14          5  O    CARTESIAN Y     2.834205      0.127522  KCAL/ANGSTROM
     15          5  O    CARTESIAN Z     0.295780      0.075577  KCAL/ANGSTROM
     16          6  O    CARTESIAN X     0.514278     -0.072012  KCAL/ANGSTROM
     17          6  O    CARTESIAN Y     1.086614     -0.198183  KCAL/ANGSTROM
     18          6  O    CARTESIAN Z    -0.209985      0.141766  KCAL/ANGSTROM
     19          7  C    CARTESIAN X     0.435140      0.138762  KCAL/ANGSTROM
     20          7  C    CARTESIAN Y    -0.145419      0.052123  KCAL/ANGSTROM
     21          7  C    CARTESIAN Z    -0.485984     -0.108011  KCAL/ANGSTROM
     22          8  C    CARTESIAN X     1.665675      0.059861  KCAL/ANGSTROM
     23          8  C    CARTESIAN Y    -0.922966      0.098225  KCAL/ANGSTROM
     24          8  C    CARTESIAN Z    -0.721963     -0.172502  KCAL/ANGSTROM
     25          9  C    CARTESIAN X     2.339762     -0.170968  KCAL/ANGSTROM
     26          9  C    CARTESIAN Y    -1.227965      0.076914  KCAL/ANGSTROM
     27          9  C    CARTESIAN Z     0.550761     -0.348678  KCAL/ANGSTROM
     28         10  H    CARTESIAN X    -1.012343     -0.163126  KCAL/ANGSTROM
     29         10  H    CARTESIAN Y    -1.418531      0.000463  KCAL/ANGSTROM
     30         10  H    CARTESIAN Z     1.543284     -0.079623  KCAL/ANGSTROM
     31         11  H    CARTESIAN X    -2.188706     -0.011671  KCAL/ANGSTROM
     32         11  H    CARTESIAN Y    -2.186997     -0.014428  KCAL/ANGSTROM
     33         11  H    CARTESIAN Z     0.473817      0.114873  KCAL/ANGSTROM
     34         12  H    CARTESIAN X    -0.488996     -0.024077  KCAL/ANGSTROM
     35         12  H    CARTESIAN Y    -2.618487      0.077611  KCAL/ANGSTROM
     36         12  H    CARTESIAN Z     0.355123      0.204779  KCAL/ANGSTROM
     37         13  H    CARTESIAN X    -1.208476     -0.077889  KCAL/ANGSTROM
     38         13  H    CARTESIAN Y    -1.090948      0.169381  KCAL/ANGSTROM
     39         13  H    CARTESIAN Z    -1.547053     -0.021459  KCAL/ANGSTROM
     40         14  H    CARTESIAN X    -2.543348      0.168605  KCAL/ANGSTROM
     41         14  H    CARTESIAN Y     0.792465     -0.265328  KCAL/ANGSTROM
     42         14  H    CARTESIAN Z    -1.101774      0.096580  KCAL/ANGSTROM
     43         15  H    CARTESIAN X    -2.545693      0.027246  KCAL/ANGSTROM
     44         15  H    CARTESIAN Y     0.408935     -0.058183  KCAL/ANGSTROM
     45         15  H    CARTESIAN Z     0.616910     -0.032155  KCAL/ANGSTROM
     46         16  H    CARTESIAN X     1.462900     -0.140263  KCAL/ANGSTROM
     47         16  H    CARTESIAN Y    -1.859516      0.064857  KCAL/ANGSTROM
     48         16  H    CARTESIAN Z    -1.304084      0.240502  KCAL/ANGSTROM
     49         17  H    CARTESIAN X     2.397147      0.025626  KCAL/ANGSTROM
     50         17  H    CARTESIAN Y    -0.343616      0.100142  KCAL/ANGSTROM
     51         17  H    CARTESIAN Z    -1.367896      0.051337  KCAL/ANGSTROM
     52         18  H    CARTESIAN X     2.238268      0.104223  KCAL/ANGSTROM
     53         18  H    CARTESIAN Y    -0.614022     -0.034552  KCAL/ANGSTROM
     54         18  H    CARTESIAN Z     1.418483      0.097075  KCAL/ANGSTROM
     55         19  H    CARTESIAN X     3.016475      0.052833  KCAL/ANGSTROM
     56         19  H    CARTESIAN Y    -2.058021     -0.143230  KCAL/ANGSTROM
     57         19  H    CARTESIAN Z     0.615110      0.061009  KCAL/ANGSTROM




   ATOM   CHEMICAL          X               Y               Z
  NUMBER   SYMBOL      (ANGSTROMS)     (ANGSTROMS)     (ANGSTROMS)

     1       C         -1.16878051  *  -1.76523028  *   0.51176805  *
     2       C         -0.97978272  *  -0.67035331  *  -0.52720773  *
     3       C         -1.84942127  *   0.57279183  *  -0.24889570  *
     4       C         -0.95261357  *   1.71114216  *   0.00925041  *
     5       O         -0.88529720  *   2.83420521  *   0.29578032  *
     6       O          0.51427754  *   1.08661382  *  -0.20998488  *
     7       C          0.43513961  *  -0.14541855  *  -0.48598426  *
     8       C          1.66567523  *  -0.92296582  *  -0.72196328  *
     9       C          2.33976200  *  -1.22796545  *   0.55076096  *
    10       H         -1.01234286  *  -1.41853120  *   1.54328377  *
    11       H         -2.18870582  *  -2.18699737  *   0.47381692  *
    12       H         -0.48899574  *  -2.61848669  *   0.35512278  *
    13       H         -1.20847620  *  -1.09094776  *  -1.54705331  *
    14       H         -2.54334815  *   0.79246468  *  -1.10177387  *
    15       H         -2.54569299  *   0.40893541  *   0.61691044  *
    16       H          1.46290029  *  -1.85951552  *  -1.30408365  *
    17       H          2.39714731  *  -0.34361605  *  -1.36789619  *
    18       H          2.23826825  *  -0.61402187  *   1.41848308  *
    19       H          3.01647519  *  -2.05802050  *   0.61511041  *

                             CARTESIAN COORDINATES

   1    C       -1.168780508    -1.765230281     0.511768049
   2    C       -0.979782719    -0.670353308    -0.527207726
   3    C       -1.849421267     0.572791827    -0.248895700
   4    C       -0.952613566     1.711142156     0.009250409
   5    O       -0.885297205     2.834205215     0.295780323
   6    O        0.514277539     1.086613821    -0.209984882
   7    C        0.435139612    -0.145418549    -0.485984255
   8    C        1.665675225    -0.922965823    -0.721963284
   9    C        2.339762005    -1.227965445     0.550760959
  10    H       -1.012342861    -1.418531198     1.543283769
  11    H       -2.188705816    -2.186997371     0.473816923
  12    H       -0.488995742    -2.618486694     0.355122780
  13    H       -1.208476202    -1.090947764    -1.547053307
  14    H       -2.543348151     0.792464678    -1.101773865
  15    H       -2.545692992     0.408935413     0.616910440
  16    H        1.462900286    -1.859515523    -1.304083646
  17    H        2.397147314    -0.343616051    -1.367896188
  18    H        2.238268253    -0.614021873     1.418483077
  19    H        3.016475191    -2.058020502     0.615110407


           Empirical Formula: C7 H10 O2  =    19 atoms



      MOLECULAR POINT GROUP   :   C1  


          ALPHA EIGENVALUES  
 -38.24878 -37.86702 -34.29591 -33.04206 -30.23356 -28.08983 -26.00639 -25.68547
 -24.67430 -22.34437 -21.81743 -21.11947 -20.77369 -19.95221 -19.88823 -19.73399
 -18.93470 -18.74006 -18.26509 -17.66946 -17.51494 -17.48290 -17.08852 -16.27948
 -13.65166  -5.71765  -4.54830  -4.52122  -2.90310  -2.58489  -2.33587  -1.49386
  -1.30616  -1.08122  -0.42001  -0.38949  -0.19315   0.27448   0.34374   0.66916
   1.10472   1.14820   1.20007   2.05774   2.31792   2.34140


           BETA EIGENVALUES 
 -38.24819 -37.87336 -34.29854 -32.95300 -30.19658 -27.98865 -25.99486 -25.54479
 -24.56473 -22.32660 -21.79662 -21.05777 -20.73104 -19.91077 -19.85387 -19.70019
 -18.90838 -18.57123 -18.12242 -17.62903 -17.51459 -17.30149 -17.07940 -16.25827
  -5.69885  -4.54973  -4.52768  -3.63393  -2.89279  -2.58464  -2.31589  -1.46194
  -1.30415  -1.07790  -0.41406  -0.19264  -0.07455   0.28637   0.41677   0.66931
   1.11710   1.14839   1.25993   2.23221   2.33290   2.57939


              NET ATOMIC CHARGES AND DIPOLE CONTRIBUTIONS

  ATOM NO.   TYPE          CHARGE      No. of ELECS.   s-Pop       p-Pop       
    1          C          -0.449332        4.4493     1.05369     3.39564
    2          C          -0.173213        4.1732     1.07818     3.09503
    3          C          -0.366349        4.3663     1.07332     3.29303
    4          C           0.536614        3.4634     1.17705     2.28633
    5          O          -0.119333        6.1193     1.87166     4.24767
    6          O          -0.330933        6.3309     1.87808     4.45285
    7          C           0.506653        3.4933     1.18233     2.31102
    8          C          -0.355114        4.3551     1.05836     3.29675
    9          C          -0.270288        4.2703     1.12125     3.14903
   10          H           0.174237        0.8258     0.82576
   11          H           0.191683        0.8083     0.80832
   12          H           0.182680        0.8173     0.81732
   13          H           0.210932        0.7891     0.78907
   14          H           0.231407        0.7686     0.76859
   15          H           0.236618        0.7634     0.76338
   16          H           0.210887        0.7891     0.78911
   17          H           0.239474        0.7605     0.76053
   18          H           0.162118        0.8379     0.83788
   19          H           0.181258        0.8187     0.81874
 DIPOLE           X         Y         Z       TOTAL
 POINT-CHG.    -2.128    -3.421    -1.635     4.348
 HYBRID         0.153     0.986    -0.014     0.998
 SUM           -1.975    -2.435    -1.649     3.543


          ATOMIC ORBITAL ELECTRON POPULATIONS

     Atom    s        px        py        pz   
    1  C   1.05369   1.22526   1.08027   1.09011
    2  C   1.07818   0.93636   1.01417   1.14449
    3  C   1.07332   1.07161   0.98161   1.23982
    4  C   1.17705   0.74430   0.84226   0.69977
    5  O   1.87166   1.67172   1.21293   1.36302
    6  O   1.87808   1.59863   1.29131   1.56291
    7  C   1.18233   0.97501   0.80547   0.53053
    8  C   1.05836   1.02598   1.14597   1.12480
    9  C   1.12125   1.04808   1.11096   0.98999
   10  H   0.82576
   11  H   0.80832
   12  H   0.81732
   13  H   0.78907
   14  H   0.76859
   15  H   0.76338
   16  H   0.78911
   17  H   0.76053
   18  H   0.83788
   19  H   0.81874


                    (SZ)    =    0.500000
                    (S**2)  =    0.753182


          ATOMIC ORBITAL SPIN POPULATIONS

    Atom   Total    s     px     py     pz   
         Atomic
    1  C  0.0001  0.000  0.000  0.000 -0.000
    2  C  0.0009  0.000  0.001  0.000 -0.000
    3  C  0.0004  0.000  0.000  0.000  0.000
    4  C  0.0003  0.000  0.000  0.000  0.000
    5  O  0.0002  0.000  0.000  0.000 -0.000
    6  O -0.0043 -0.000 -0.000 -0.000 -0.003
    7  C  0.0082  0.002  0.003  0.002  0.001
    8  C -0.0382 -0.006 -0.011  0.001 -0.022
    9  C  1.0436  0.026  0.566  0.342  0.109
   10  H -0.0000 -0.000
   11  H  0.0001  0.000
   12  H -0.0000 -0.000
   13  H -0.0001 -0.000
   14  H -0.0000 -0.000
   15  H -0.0000 -0.000
   16  H  0.0119  0.012
   17  H  0.0349  0.035
   18  H -0.0288 -0.029
   19  H -0.0290 -0.029

 **********************
 *                    *
 * JOB ENDED NORMALLY *
 *                    *
 **********************



 TOTAL JOB TIME:             1.76 SECONDS

 == MOPAC DONE ==
