 *******************************************************************************
 **                                                                           **
 **                              MOPAC v23.2                                  **
 **                                                                           **
 *******************************************************************************
 **          Digital Object Identifier (DOI): 10.5281/zenodo.6511958          **
 **    Visit the DOI location for information on how to cite this program.    **
 *******************************************************************************

                              PM7 CALCULATION RESULTS

 *******************************************************************************
 *  CALCULATION DONE: (MAX THREADS = 40)             Fri Sep 19 21:56:25 2025  *
 *  PM7        - The PM7 Hamiltonian to be used
 *
 *
 *
 *                 CHARGE ON SYSTEM = +1
 *
 *
 *
 *  EPS=37.5   - USE ANDREAS KLAMT'S COSMO IMPLICIT SOLVATION MODEL
 *  1SCF       - DO 1 SCF AND THEN STOP 
 *  T=         - A TIME OF 172800.0 SECONDS REQUESTED
 *  DUMP=N     - RESTART FILE WRITTEN EVERY 7200.0 SECONDS REQUESTED
 *  RELSCF     - DEFAULT SCF CRITERION MULTIPLIED BY 0.0001
 *              (DEFAULT SCF CRITERION = 0.00010)
 *  GRADIENTS  - ALL GRADIENTS TO BE PRINTED
 *  DISP       - PRINT DISPERSION AND HYDROGEN BOND ENERGIES
 *******************************************************************************
PM7 1SCF GRADIENTS EPS=37.5 DISP RELSCF=0.0001 CHARGE=1
 Title: ASE calculation

   ATOM   CHEMICAL          X               Y               Z
  NUMBER   SYMBOL      (ANGSTROMS)     (ANGSTROMS)     (ANGSTROMS)

     1       C         -2.26852661  *  -0.38755200  *   0.60888108  *
     2       C         -0.82209780  *  -0.77856672  *   0.37197400  *
     3       C         -0.35022449  *  -0.53241944  *  -1.08839895  *
     4       C         -0.15575883  *   1.00514227  *  -1.16605680  *
     5       C          0.21021184  *   1.45533207  *   0.25900641  *
     6       C          0.17649735  *   0.13735474  *   1.14205831  *
     7       C          1.53519375  *  -0.35804680  *   1.00545819  *
     8       C          1.95715425  *  -1.09957517  *  -0.16688088  *
     9       C          0.96701648  *  -1.17729238  *  -1.26278789  *
    10       H         -2.48836621  *   0.64722873  *   0.31644701  *
    11       H         -2.95385775  *  -1.02858548  *   0.02981436  *
    12       H         -2.55939136  *  -0.49799299  *   1.66337928  *
    13       H         -0.68724066  *  -1.84539316  *   0.66235071  *
    14       H         -1.09826949  *  -0.88857789  *  -1.83086671  *
    15       H          0.61238250  *   1.28439993  *  -1.90732853  *
    16       H         -1.08646590  *   1.49376474  *  -1.51499932  *
    17       H         -0.54440818  *   2.15426557  *   0.67398963  *
    18       H          1.16966526  *   1.99307056  *   0.30293598  *
    19       H         -0.15668293  *   0.35942010  *   2.17924352  *
    20       H          2.27602497  *  -0.13866843  *   1.79549290  *
    21       H          2.95385775  *  -0.72750381  *  -0.56690397  *
    22       H          2.28038019  *  -2.15426557  *   0.13192186  *
    23       H          1.22116752  *  -1.68133432  *  -2.17924352  *



          CARTESIAN COORDINATES 

    NO.       ATOM           X           Y           Z

     1         C         -2.2685     -0.3876      0.6089
     2         C         -0.8221     -0.7786      0.3720
     3         C         -0.3502     -0.5324     -1.0884
     4         C         -0.1558      1.0051     -1.1661
     5         C          0.2102      1.4553      0.2590
     6         C          0.1765      0.1374      1.1421
     7         C          1.5352     -0.3580      1.0055
     8         C          1.9572     -1.0996     -0.1669
     9         C          0.9670     -1.1773     -1.2628
    10         H         -2.4884      0.6472      0.3164
    11         H         -2.9539     -1.0286      0.0298
    12         H         -2.5594     -0.4980      1.6634
    13         H         -0.6872     -1.8454      0.6624
    14         H         -1.0983     -0.8886     -1.8309
    15         H          0.6124      1.2844     -1.9073
    16         H         -1.0865      1.4938     -1.5150
    17         H         -0.5444      2.1543      0.6740
    18         H          1.1697      1.9931      0.3029
    19         H         -0.1567      0.3594      2.1792
    20         H          2.2760     -0.1387      1.7955
    21         H          2.9539     -0.7275     -0.5669
    22         H          2.2804     -2.1543      0.1319
    23         H          1.2212     -1.6813     -2.1792

 General Reference for PM7:
 "Optimization of Parameters for Semiempirical Methods VI: More Modifications to the 
 NDDO Approximations and Re-optimization of Parameters", J. J. P. Stewart, J. Mol. Mod., 1:32, 19 (2013)
 https://link.springer.com/article/10.1007/s00894-012-1667-x

           Empirical Formula: C9 H14  =    23 atoms



      MOLECULAR POINT GROUP   :   C1  


          UHF CALCULATION, NO. OF ALPHA ELECTRONS =   25
                           NO. OF BETA  ELECTRONS =   24
  SCF CRITERION =    0.1000E-07

 -------------------------------------------------------------------------------
 PM7 1SCF GRADIENTS EPS=37.5 DISP RELSCF=0.0001 CHARGE=1
 Title: ASE calculation



     1SCF WAS SPECIFIED, SO BFGS WAS NOT USED                 
     SCF FIELD WAS ACHIEVED                                   


                              PM7 CALCULATION
                                                       MOPAC v23.2 Linux
                                                       Fri Sep 19 21:56:27 2025




          FINAL HEAT OF FORMATION =        151.48634 KCAL/MOL =     633.81883 KJ/MOL

          TOTAL ENERGY            =     -29698.60240 KCAL/MOL = ELECTRONIC ENERGY + CORE-CORE REPULSION + SOLVATION ENERGY
          ENERGY OF ATOMS         =      29852.41387 KCAL/MOL
                              SUM =        153.81147 KCAL/MOL
          DISPERSION ENERGY       =         -2.32513 KCAL/MOL
                              SUM =        151.48634 KCAL/MOL = FINAL HEAT OF FORMATION

          VAN DER WAALS AREA      =        164.25 SQUARE ANGSTROMS


          TOTAL ENERGY            =      -1287.85329 EV
          ELECTRONIC ENERGY       =      -2375.87271 EV 
          CORE-CORE REPULSION     =       1088.01942 EV

          DIELECTRIC ENERGY       =         -2.40483 EV
          COSMO AREA              =        164.25 SQUARE ANGSTROMS
          COSMO VOLUME            =        171.57 CUBIC ANGSTROMS

          GRADIENT NORM           =         20.63280          =       4.30224 PER ATOM
          IONIZATION POTENTIAL    =          9.397701 EV
          ALPHA SOMO LUMO (EV)    =         -9.398 -2.151
          BETA  SOMO LUMO (EV)    =        -11.604 -2.089
          NO. OF ALPHA ELECTRONS  =         25
          NO. OF BETA  ELECTRONS  =         24
          MOLECULAR WEIGHT        =        122.2096         POINT GROUP:  C1  

          MOLECULAR DIMENSIONS (Angstroms)

            Atom       Atom       Distance
            H    21    H    12     5.95170
            H    14    H    20     4.69877
            H    22    H    17     4.22938


          SCF CALCULATIONS        =          2

          WALL-CLOCK TIME         =      2.414 SECONDS
          COMPUTATION TIME        =      0.439 SECONDS

          LARGEST ATOMIC GRADIENTS

          Atom     Label                     Cartesian Gradients           Cartesian Coordinates       |Gradient|
                                           X          Y          Z        X          Y          Z

             6       C                   8.111     -4.845      6.545    0.17650    0.13735    1.14206     11.493
             8       C                   8.183     -2.888      3.303    1.95715   -1.09958   -0.16688      9.285
             7       C                  -7.019      5.354      2.454    1.53519   -0.35805    1.00546      9.162
             1       C                   5.016      1.399      0.676   -2.26853   -0.38755    0.60888      5.252
             5       C                   3.423      1.508     -2.343    0.21021    1.45533    0.25901      4.414
            22       H                  -2.287     -0.519     -1.926    2.28038   -2.15427    0.13192      3.035
             2       C                  -2.106     -1.091     -1.744   -0.82210   -0.77857    0.37197      2.943
             4       C                   1.523     -1.555      1.549   -0.15576    1.00514   -1.16606      2.671
             3       C                   2.003      0.538      1.556   -0.35022   -0.53242   -1.08840      2.592
            21       H                  -1.291      0.685     -2.133    2.95386   -0.72750   -0.56690      2.586



       FINAL  POINT  AND  DERIVATIVES

   PARAMETER     ATOM    TYPE            VALUE        GRADIENT
      1          1  C    CARTESIAN X    -2.268527      5.016479  KCAL/ANGSTROM
      2          1  C    CARTESIAN Y    -0.387552      1.398723  KCAL/ANGSTROM
      3          1  C    CARTESIAN Z     0.608881      0.675902  KCAL/ANGSTROM
      4          2  C    CARTESIAN X    -0.822098     -2.105707  KCAL/ANGSTROM
      5          2  C    CARTESIAN Y    -0.778567     -1.090779  KCAL/ANGSTROM
      6          2  C    CARTESIAN Z     0.371974     -1.743617  KCAL/ANGSTROM
      7          3  C    CARTESIAN X    -0.350224      2.002682  KCAL/ANGSTROM
      8          3  C    CARTESIAN Y    -0.532419      0.538052  KCAL/ANGSTROM
      9          3  C    CARTESIAN Z    -1.088399      1.555840  KCAL/ANGSTROM
     10          4  C    CARTESIAN X    -0.155759      1.522819  KCAL/ANGSTROM
     11          4  C    CARTESIAN Y     1.005142     -1.554723  KCAL/ANGSTROM
     12          4  C    CARTESIAN Z    -1.166057      1.549409  KCAL/ANGSTROM
     13          5  C    CARTESIAN X     0.210212      3.423134  KCAL/ANGSTROM
     14          5  C    CARTESIAN Y     1.455332      1.507612  KCAL/ANGSTROM
     15          5  C    CARTESIAN Z     0.259006     -2.343470  KCAL/ANGSTROM
     16          6  C    CARTESIAN X     0.176497      8.111413  KCAL/ANGSTROM
     17          6  C    CARTESIAN Y     0.137355     -4.844894  KCAL/ANGSTROM
     18          6  C    CARTESIAN Z     1.142058      6.544501  KCAL/ANGSTROM
     19          7  C    CARTESIAN X     1.535194     -7.018515  KCAL/ANGSTROM
     20          7  C    CARTESIAN Y    -0.358047      5.353986  KCAL/ANGSTROM
     21          7  C    CARTESIAN Z     1.005458      2.454005  KCAL/ANGSTROM
     22          8  C    CARTESIAN X     1.957154      8.182636  KCAL/ANGSTROM
     23          8  C    CARTESIAN Y    -1.099575     -2.888059  KCAL/ANGSTROM
     24          8  C    CARTESIAN Z    -0.166881      3.302686  KCAL/ANGSTROM
     25          9  C    CARTESIAN X     0.967016     -1.464784  KCAL/ANGSTROM
     26          9  C    CARTESIAN Y    -1.177292      1.269097  KCAL/ANGSTROM
     27          9  C    CARTESIAN Z    -1.262788     -0.727714  KCAL/ANGSTROM
     28         10  H    CARTESIAN X    -2.488366     -1.538362  KCAL/ANGSTROM
     29         10  H    CARTESIAN Y     0.647229     -0.131297  KCAL/ANGSTROM
     30         10  H    CARTESIAN Z     0.316447     -0.357394  KCAL/ANGSTROM
     31         11  H    CARTESIAN X    -2.953858     -1.664017  KCAL/ANGSTROM
     32         11  H    CARTESIAN Y    -1.028585     -0.619190  KCAL/ANGSTROM
     33         11  H    CARTESIAN Z     0.029814     -0.235513  KCAL/ANGSTROM
     34         12  H    CARTESIAN X    -2.559391     -1.802500  KCAL/ANGSTROM
     35         12  H    CARTESIAN Y    -0.497993     -0.522613  KCAL/ANGSTROM
     36         12  H    CARTESIAN Z     1.663379      0.208732  KCAL/ANGSTROM
     37         13  H    CARTESIAN X    -0.687241     -1.260949  KCAL/ANGSTROM
     38         13  H    CARTESIAN Y    -1.845393     -0.060910  KCAL/ANGSTROM
     39         13  H    CARTESIAN Z     0.662351     -0.048261  KCAL/ANGSTROM
     40         14  H    CARTESIAN X    -1.098269     -1.037678  KCAL/ANGSTROM
     41         14  H    CARTESIAN Y    -0.888578     -0.698798  KCAL/ANGSTROM
     42         14  H    CARTESIAN Z    -1.830867     -1.127275  KCAL/ANGSTROM
     43         15  H    CARTESIAN X     0.612382     -0.828282  KCAL/ANGSTROM
     44         15  H    CARTESIAN Y     1.284400      0.527743  KCAL/ANGSTROM
     45         15  H    CARTESIAN Z    -1.907329     -1.172773  KCAL/ANGSTROM
     46         16  H    CARTESIAN X    -1.086466     -0.912638  KCAL/ANGSTROM
     47         16  H    CARTESIAN Y     1.493765      0.674907  KCAL/ANGSTROM
     48         16  H    CARTESIAN Z    -1.514999     -1.170712  KCAL/ANGSTROM
     49         17  H    CARTESIAN X    -0.544408     -1.190564  KCAL/ANGSTROM
     50         17  H    CARTESIAN Y     2.154266      0.298677  KCAL/ANGSTROM
     51         17  H    CARTESIAN Z     0.673990      0.598970  KCAL/ANGSTROM
     52         18  H    CARTESIAN X     1.169665     -0.929476  KCAL/ANGSTROM
     53         18  H    CARTESIAN Y     1.993071      0.951152  KCAL/ANGSTROM
     54         18  H    CARTESIAN Z     0.302936     -0.720159  KCAL/ANGSTROM
     55         19  H    CARTESIAN X    -0.156683     -1.446937  KCAL/ANGSTROM
     56         19  H    CARTESIAN Y     0.359420      0.829570  KCAL/ANGSTROM
     57         19  H    CARTESIAN Z     2.179244     -0.210237  KCAL/ANGSTROM
     58         20  H    CARTESIAN X     2.276025     -1.503253  KCAL/ANGSTROM
     59         20  H    CARTESIAN Y    -0.138668     -0.241855  KCAL/ANGSTROM
     60         20  H    CARTESIAN Z     1.795493     -0.978105  KCAL/ANGSTROM
     61         21  H    CARTESIAN X     2.953858     -1.291212  KCAL/ANGSTROM
     62         21  H    CARTESIAN Y    -0.727504      0.685063  KCAL/ANGSTROM
     63         21  H    CARTESIAN Z    -0.566904     -2.133251  KCAL/ANGSTROM
     64         22  H    CARTESIAN X     2.280380     -2.287391  KCAL/ANGSTROM
     65         22  H    CARTESIAN Y    -2.154266     -0.518674  KCAL/ANGSTROM
     66         22  H    CARTESIAN Z     0.131922     -1.926402  KCAL/ANGSTROM
     67         23  H    CARTESIAN X     1.221168      0.023102  KCAL/ANGSTROM
     68         23  H    CARTESIAN Y    -1.681334     -0.862792  KCAL/ANGSTROM
     69         23  H    CARTESIAN Z    -2.179244     -1.995167  KCAL/ANGSTROM




   ATOM   CHEMICAL          X               Y               Z
  NUMBER   SYMBOL      (ANGSTROMS)     (ANGSTROMS)     (ANGSTROMS)

     1       C         -2.26852661  *  -0.38755200  *   0.60888108  *
     2       C         -0.82209780  *  -0.77856672  *   0.37197400  *
     3       C         -0.35022449  *  -0.53241944  *  -1.08839895  *
     4       C         -0.15575883  *   1.00514227  *  -1.16605680  *
     5       C          0.21021184  *   1.45533207  *   0.25900641  *
     6       C          0.17649735  *   0.13735474  *   1.14205831  *
     7       C          1.53519375  *  -0.35804680  *   1.00545819  *
     8       C          1.95715425  *  -1.09957517  *  -0.16688088  *
     9       C          0.96701648  *  -1.17729238  *  -1.26278789  *
    10       H         -2.48836621  *   0.64722873  *   0.31644701  *
    11       H         -2.95385775  *  -1.02858548  *   0.02981436  *
    12       H         -2.55939136  *  -0.49799299  *   1.66337928  *
    13       H         -0.68724066  *  -1.84539316  *   0.66235071  *
    14       H         -1.09826949  *  -0.88857789  *  -1.83086671  *
    15       H          0.61238250  *   1.28439993  *  -1.90732853  *
    16       H         -1.08646590  *   1.49376474  *  -1.51499932  *
    17       H         -0.54440818  *   2.15426557  *   0.67398963  *
    18       H          1.16966526  *   1.99307056  *   0.30293598  *
    19       H         -0.15668293  *   0.35942010  *   2.17924352  *
    20       H          2.27602497  *  -0.13866843  *   1.79549290  *
    21       H          2.95385775  *  -0.72750381  *  -0.56690397  *
    22       H          2.28038019  *  -2.15426557  *   0.13192186  *
    23       H          1.22116752  *  -1.68133432  *  -2.17924352  *

                             CARTESIAN COORDINATES

   1    C       -2.268526614    -0.387552002     0.608881080
   2    C       -0.822097800    -0.778566723     0.371974005
   3    C       -0.350224495    -0.532419443    -1.088398953
   4    C       -0.155758833     1.005142265    -1.166056800
   5    C        0.210211839     1.455332071     0.259006408
   6    C        0.176497355     0.137354738     1.142058314
   7    C        1.535193747    -0.358046795     1.005458190
   8    C        1.957154245    -1.099575166    -0.166880881
   9    C        0.967016485    -1.177292380    -1.262787890
  10    H       -2.488366215     0.647228734     0.316447009
  11    H       -2.953857755    -1.028585476     0.029814362
  12    H       -2.559391358    -0.497992986     1.663379276
  13    H       -0.687240658    -1.845393165     0.662350712
  14    H       -1.098269488    -0.888577894    -1.830866706
  15    H        0.612382495     1.284399934    -1.907328534
  16    H       -1.086465895     1.493764737    -1.514999320
  17    H       -0.544408177     2.154265572     0.673989631
  18    H        1.169665265     1.993070561     0.302935979
  19    H       -0.156682933     0.359420099     2.179243523
  20    H        2.276024967    -0.138668429     1.795492900
  21    H        2.953857755    -0.727503805    -0.566903971
  22    H        2.280380192    -2.154265572     0.131921859
  23    H        1.221167523    -1.681334319    -2.179243523


           Empirical Formula: C9 H14  =    23 atoms



      MOLECULAR POINT GROUP   :   C1  


          ALPHA EIGENVALUES  
 -32.71490 -28.48608 -27.02020 -26.40516 -23.84540 -22.43765 -20.88384 -19.64571
 -18.35669 -18.14429 -16.15121 -16.06834 -15.95016 -15.03036 -14.79574 -14.14441
 -13.91515 -13.68120 -12.96985 -12.85361 -12.43154 -12.06467 -12.00106 -11.66577
  -9.39770  -2.15066   2.28870   2.39377   2.75401   2.92790   3.27686   3.43681
   3.61894   3.91158   4.14590   4.25230   4.39975   4.58080   4.87799   5.14295
   5.27556   5.45111   5.54238   5.58420   5.70877   5.75880   5.85503   5.90271
   6.21967   6.78229


           BETA EIGENVALUES 
 -32.67011 -28.44661 -26.89785 -26.38877 -23.81228 -22.32116 -20.77285 -19.59807
 -18.32835 -18.09317 -16.04740 -15.97991 -15.83784 -14.92269 -14.66922 -14.12648
 -13.88112 -13.64883 -12.90955 -12.68862 -12.38537 -12.04497 -11.93735 -11.60425
  -2.08930   0.11098   2.31956   2.40879   2.76005   2.95403   3.41000   3.63055
   3.71031   3.97547   4.21432   4.29432   4.44506   4.71781   4.89479   5.16473
   5.29206   5.45566   5.56348   5.58836   5.71268   5.80221   5.89810   6.02856
   6.22990   6.78296


              NET ATOMIC CHARGES AND DIPOLE CONTRIBUTIONS

  ATOM NO.   TYPE          CHARGE      No. of ELECS.   s-Pop       p-Pop       
    1          C          -0.462340        4.4623     1.05365     3.40869
    2          C          -0.071135        4.0711     1.07109     3.00005
    3          C          -0.136288        4.1363     1.06650     3.06978
    4          C          -0.277818        4.2778     1.06796     3.20985
    5          C          -0.235893        4.2359     1.07554     3.16035
    6          C          -0.256105        4.2561     1.08688     3.16922
    7          C           0.417308        3.5827     1.20542     2.37727
    8          C          -0.402418        4.4024     1.06108     3.34134
    9          C          -0.177182        4.1772     1.11399     3.06319
   10          H           0.161423        0.8386     0.83858
   11          H           0.163503        0.8365     0.83650
   12          H           0.160839        0.8392     0.83916
   13          H           0.156152        0.8438     0.84385
   14          H           0.167364        0.8326     0.83264
   15          H           0.158744        0.8413     0.84126
   16          H           0.161923        0.8381     0.83808
   17          H           0.179647        0.8204     0.82035
   18          H           0.162566        0.8374     0.83743
   19          H           0.208605        0.7914     0.79140
   20          H           0.201533        0.7985     0.79847
   21          H           0.267317        0.7327     0.73268
   22          H           0.286264        0.7137     0.71374
   23          H           0.165992        0.8340     0.83401
 DIPOLE           X         Y         Z       TOTAL
 POINT-CHG.     5.613    -0.658     3.055     6.424
 HYBRID         0.358     0.028     0.264     0.445
 SUM            5.970    -0.630     3.319     6.860


          ATOMIC ORBITAL ELECTRON POPULATIONS

     Atom    s        px        py        pz   
    1  C   1.05365   1.03427   1.18694   1.18747
    2  C   1.07109   0.96507   1.06790   0.96708
    3  C   1.06650   1.03004   0.99438   1.04536
    4  C   1.06796   1.17726   1.00540   1.02719
    5  C   1.07554   1.18345   0.98773   0.98918
    6  C   1.08688   0.99281   1.03694   1.13947
    7  C   1.20542   1.01163   0.47422   0.89143
    8  C   1.06108   1.14329   1.15835   1.03970
    9  C   1.11399   0.97928   1.04912   1.03479
   10  H   0.83858
   11  H   0.83650
   12  H   0.83916
   13  H   0.84385
   14  H   0.83264
   15  H   0.84126
   16  H   0.83808
   17  H   0.82035
   18  H   0.83743
   19  H   0.79140
   20  H   0.79847
   21  H   0.73268
   22  H   0.71374
   23  H   0.83401


                    (SZ)    =    0.500000
                    (S**2)  =    0.754060


          ATOMIC ORBITAL SPIN POPULATIONS

    Atom   Total    s     px     py     pz   
         Atomic
    1  C -0.0008 -0.000 -0.001 -0.000  0.000
    2  C  0.0241  0.003  0.001  0.001  0.018
    3  C -0.0555 -0.006 -0.023 -0.019 -0.008
    4  C  0.0458  0.008  0.001  0.035  0.002
    5  C  0.0006  0.000  0.000  0.002 -0.001
    6  C -0.0008 -0.000 -0.002  0.001  0.000
    7  C  0.0317  0.001  0.001  0.020  0.009
    8  C -0.0410 -0.006 -0.016 -0.005 -0.014
    9  C  0.9964  0.026  0.143  0.675  0.151
   10  H  0.0000  0.000
   11  H  0.0002  0.000
   12  H  0.0006  0.001
   13  H -0.0011 -0.001
   14  H  0.0039  0.004
   15  H -0.0016 -0.002
   16  H  0.0005  0.000
   17  H  0.0010  0.001
   18  H -0.0000 -0.000
   19  H  0.0000  0.000
   20  H -0.0013 -0.001
   21  H  0.0126  0.013
   22  H  0.0127  0.013
   23  H -0.0281 -0.028

 **********************
 *                    *
 * JOB ENDED NORMALLY *
 *                    *
 **********************



 TOTAL JOB TIME:             2.95 SECONDS

 == MOPAC DONE ==
