 *******************************************************************************
 **                                                                           **
 **                              MOPAC v23.2                                  **
 **                                                                           **
 *******************************************************************************
 **          Digital Object Identifier (DOI): 10.5281/zenodo.6511958          **
 **    Visit the DOI location for information on how to cite this program.    **
 *******************************************************************************

                              PM7 CALCULATION RESULTS

 *******************************************************************************
 *  CALCULATION DONE: (MAX THREADS = 40)             Fri Sep 19 21:31:05 2025  *
 *  PM7        - The PM7 Hamiltonian to be used
 *  1SCF       - DO 1 SCF AND THEN STOP 
 *  T=         - A TIME OF 172800.0 SECONDS REQUESTED
 *  DUMP=N     - RESTART FILE WRITTEN EVERY 7200.0 SECONDS REQUESTED
 *  RELSCF     - DEFAULT SCF CRITERION MULTIPLIED BY 0.0001
 *              (DEFAULT SCF CRITERION = 0.00010)
 *  GRADIENTS  - ALL GRADIENTS TO BE PRINTED
 *  DISP       - PRINT DISPERSION AND HYDROGEN BOND ENERGIES
 *******************************************************************************
PM7 1SCF GRADIENTS DISP RELSCF=0.0001
 Title: ASE calculation

   ATOM   CHEMICAL          X               Y               Z
  NUMBER   SYMBOL      (ANGSTROMS)     (ANGSTROMS)     (ANGSTROMS)

     1       C         -2.18333623  *   0.73639270  *  -0.58153571  *
     2       C         -0.77665908  *   0.47614715  *  -0.17459163  *
     3       C          0.12253318  *   1.45141700  *   0.01661216  *
     4       C          1.52214968  *   1.20726769  *   0.39684985  *
     5       O          2.27893956  *   2.13045106  *   0.59894975  *
     6       C          2.04806731  *  -0.20650475  *   0.54287296  *
     7       C          1.02638583  *  -1.29946645  *   0.36924670  *
     8       N          0.51607610  *  -1.49841795  *  -1.00384270  *
     9       C         -0.41544699  *  -0.95166766  *   0.01314174  *
    10       H         -2.39583865  *   1.80680148  *  -0.72262652  *
    11       H         -2.40932521  *   0.23862654  *  -1.53959800  *
    12       H         -2.90236710  *   0.35947231  *   0.16035622  *
    13       H         -0.12630697  *   2.50653958  *  -0.10848058  *
    14       H          2.86401402  *  -0.33996663  *  -0.20935306  *
    15       H          2.55237564  *  -0.29256005  *   1.52983299  *
    16       H          1.21456343  *  -2.17484748  *   1.00525072  *
    17       H          0.34764412  *  -2.45124038  *  -1.29951358  *
    18       H         -1.22961897  *  -1.57534496  *   0.40296421  *



          CARTESIAN COORDINATES 

    NO.       ATOM           X           Y           Z

     1         C         -2.1833      0.7364     -0.5815
     2         C         -0.7767      0.4761     -0.1746
     3         C          0.1225      1.4514      0.0166
     4         C          1.5221      1.2073      0.3968
     5         O          2.2789      2.1305      0.5989
     6         C          2.0481     -0.2065      0.5429
     7         C          1.0264     -1.2995      0.3692
     8         N          0.5161     -1.4984     -1.0038
     9         C         -0.4154     -0.9517      0.0131
    10         H         -2.3958      1.8068     -0.7226
    11         H         -2.4093      0.2386     -1.5396
    12         H         -2.9024      0.3595      0.1604
    13         H         -0.1263      2.5065     -0.1085
    14         H          2.8640     -0.3400     -0.2094
    15         H          2.5524     -0.2926      1.5298
    16         H          1.2146     -2.1748      1.0053
    17         H          0.3476     -2.4512     -1.2995
    18         H         -1.2296     -1.5753      0.4030

 General Reference for PM7:
 "Optimization of Parameters for Semiempirical Methods VI: More Modifications to the 
 NDDO Approximations and Re-optimization of Parameters", J. J. P. Stewart, J. Mol. Mod., 1:32, 19 (2013)
 https://link.springer.com/article/10.1007/s00894-012-1667-x

           Empirical Formula: C7 H9 N O  =    18 atoms



      MOLECULAR POINT GROUP   :   C1  


      RHF CALCULATION, NO. OF DOUBLY OCCUPIED LEVELS = 24

  SCF CRITERION =    0.1000E-07

 -------------------------------------------------------------------------------
 PM7 1SCF GRADIENTS DISP RELSCF=0.0001
 Title: ASE calculation



     1SCF WAS SPECIFIED, SO BFGS WAS NOT USED                 
     SCF FIELD WAS ACHIEVED                                   


                              PM7 CALCULATION
                                                       MOPAC v23.2 Linux
                                                       Fri Sep 19 21:31:06 2025




          FINAL HEAT OF FORMATION =          6.02158 KCAL/MOL =      25.19430 KJ/MOL

          TOTAL ENERGY            =     -33701.31931 KCAL/MOL = ELECTRONIC ENERGY + CORE-CORE REPULSION
          ENERGY OF ATOMS         =      33709.16394 KCAL/MOL
                              SUM =          7.84463 KCAL/MOL
          DISPERSION ENERGY       =         -1.82305 KCAL/MOL
                              SUM =          6.02158 KCAL/MOL = FINAL HEAT OF FORMATION



          TOTAL ENERGY            =      -1461.42752 EV
          ELECTRONIC ENERGY       =      -6962.03365 EV 
          CORE-CORE REPULSION     =       5500.60613 EV
          COSMO AREA              =        158.02 SQUARE ANGSTROMS
          COSMO VOLUME            =        154.99 CUBIC ANGSTROMS

          GRADIENT NORM           =          1.10909          =       0.26141 PER ATOM
          IONIZATION POTENTIAL    =          9.947643 EV
          HOMO LUMO ENERGIES (EV) =         -9.948 -0.209
          NO. OF FILLED LEVELS    =         24
          MOLECULAR WEIGHT        =        123.1542         POINT GROUP:  C1  

          MOLECULAR DIMENSIONS (Angstroms)

            Atom       Atom       Distance
            H    15    H    11     5.85850
            H    17    H    13     5.11579
            H    12    H    14     3.17805


          SCF CALCULATIONS        =          1

          WALL-CLOCK TIME         =      0.766 SECONDS
          COMPUTATION TIME        =      0.721 SECONDS

          LARGEST ATOMIC GRADIENTS

          Atom     Label                     Cartesian Gradients           Cartesian Coordinates       |Gradient|
                                           X          Y          Z        X          Y          Z

             2       C                  -0.108     -0.308      0.244   -0.77666    0.47615   -0.17459      0.408
             9       C                   0.072     -0.374      0.008   -0.41545   -0.95167    0.01314      0.381
            10       H                  -0.135      0.300     -0.152   -2.39584    1.80680   -0.72263      0.362
             5       O                   0.311      0.111      0.011    2.27894    2.13045    0.59895      0.330
             7       C                   0.204     -0.087     -0.240    1.02639   -1.29947    0.36925      0.327
            14       H                  -0.130     -0.069      0.288    2.86401   -0.33997   -0.20935      0.324
            17       H                  -0.056      0.300      0.037    0.34764   -2.45124   -1.29951      0.307
            13       H                   0.225      0.107     -0.171   -0.12631    2.50654   -0.10848      0.302
             3       C                  -0.137     -0.189      0.045    0.12253    1.45142    0.01661      0.238
            18       H                  -0.012      0.014      0.201   -1.22962   -1.57534    0.40296      0.202



       FINAL  POINT  AND  DERIVATIVES

   PARAMETER     ATOM    TYPE            VALUE        GRADIENT
      1          1  C    CARTESIAN X    -2.183336     -0.142587  KCAL/ANGSTROM
      2          1  C    CARTESIAN Y     0.736393      0.084223  KCAL/ANGSTROM
      3          1  C    CARTESIAN Z    -0.581536      0.014517  KCAL/ANGSTROM
      4          2  C    CARTESIAN X    -0.776659     -0.108407  KCAL/ANGSTROM
      5          2  C    CARTESIAN Y     0.476147     -0.307674  KCAL/ANGSTROM
      6          2  C    CARTESIAN Z    -0.174592      0.244479  KCAL/ANGSTROM
      7          3  C    CARTESIAN X     0.122533     -0.137075  KCAL/ANGSTROM
      8          3  C    CARTESIAN Y     1.451417     -0.188688  KCAL/ANGSTROM
      9          3  C    CARTESIAN Z     0.016612      0.045178  KCAL/ANGSTROM
     10          4  C    CARTESIAN X     1.522150     -0.078013  KCAL/ANGSTROM
     11          4  C    CARTESIAN Y     1.207268      0.067290  KCAL/ANGSTROM
     12          4  C    CARTESIAN Z     0.396850     -0.005953  KCAL/ANGSTROM
     13          5  O    CARTESIAN X     2.278940      0.311161  KCAL/ANGSTROM
     14          5  O    CARTESIAN Y     2.130451      0.110584  KCAL/ANGSTROM
     15          5  O    CARTESIAN Z     0.598950      0.010788  KCAL/ANGSTROM
     16          6  C    CARTESIAN X     2.048067     -0.135229  KCAL/ANGSTROM
     17          6  C    CARTESIAN Y    -0.206505      0.145034  KCAL/ANGSTROM
     18          6  C    CARTESIAN Z     0.542873      0.038277  KCAL/ANGSTROM
     19          7  C    CARTESIAN X     1.026386      0.203766  KCAL/ANGSTROM
     20          7  C    CARTESIAN Y    -1.299466     -0.087240  KCAL/ANGSTROM
     21          7  C    CARTESIAN Z     0.369247     -0.239743  KCAL/ANGSTROM
     22          8  N    CARTESIAN X     0.516076      0.051835  KCAL/ANGSTROM
     23          8  N    CARTESIAN Y    -1.498418     -0.009517  KCAL/ANGSTROM
     24          8  N    CARTESIAN Z    -1.003843      0.034272  KCAL/ANGSTROM
     25          9  C    CARTESIAN X    -0.415447      0.071849  KCAL/ANGSTROM
     26          9  C    CARTESIAN Y    -0.951668     -0.374207  KCAL/ANGSTROM
     27          9  C    CARTESIAN Z     0.013142      0.007829  KCAL/ANGSTROM
     28         10  H    CARTESIAN X    -2.395839     -0.135026  KCAL/ANGSTROM
     29         10  H    CARTESIAN Y     1.806801      0.299811  KCAL/ANGSTROM
     30         10  H    CARTESIAN Z    -0.722627     -0.151656  KCAL/ANGSTROM
     31         11  H    CARTESIAN X    -2.409325      0.132573  KCAL/ANGSTROM
     32         11  H    CARTESIAN Y     0.238627     -0.059119  KCAL/ANGSTROM
     33         11  H    CARTESIAN Z    -1.539598     -0.101779  KCAL/ANGSTROM
     34         12  H    CARTESIAN X    -2.902367     -0.119843  KCAL/ANGSTROM
     35         12  H    CARTESIAN Y     0.359472     -0.059447  KCAL/ANGSTROM
     36         12  H    CARTESIAN Z     0.160356      0.049802  KCAL/ANGSTROM
     37         13  H    CARTESIAN X    -0.126307      0.225116  KCAL/ANGSTROM
     38         13  H    CARTESIAN Y     2.506540      0.107271  KCAL/ANGSTROM
     39         13  H    CARTESIAN Z    -0.108481     -0.170581  KCAL/ANGSTROM
     40         14  H    CARTESIAN X     2.864014     -0.129576  KCAL/ANGSTROM
     41         14  H    CARTESIAN Y    -0.339967     -0.069150  KCAL/ANGSTROM
     42         14  H    CARTESIAN Z    -0.209353      0.288329  KCAL/ANGSTROM
     43         15  H    CARTESIAN X     2.552376      0.029440  KCAL/ANGSTROM
     44         15  H    CARTESIAN Y    -0.292560      0.041284  KCAL/ANGSTROM
     45         15  H    CARTESIAN Z     1.529833     -0.142842  KCAL/ANGSTROM
     46         16  H    CARTESIAN X     1.214563      0.028271  KCAL/ANGSTROM
     47         16  H    CARTESIAN Y    -2.174847     -0.013804  KCAL/ANGSTROM
     48         16  H    CARTESIAN Z     1.005251     -0.159152  KCAL/ANGSTROM
     49         17  H    CARTESIAN X     0.347644     -0.056260  KCAL/ANGSTROM
     50         17  H    CARTESIAN Y    -2.451240      0.299649  KCAL/ANGSTROM
     51         17  H    CARTESIAN Z    -1.299514      0.036871  KCAL/ANGSTROM
     52         18  H    CARTESIAN X    -1.229619     -0.011997  KCAL/ANGSTROM
     53         18  H    CARTESIAN Y    -1.575345      0.013699  KCAL/ANGSTROM
     54         18  H    CARTESIAN Z     0.402964      0.201362  KCAL/ANGSTROM




   ATOM   CHEMICAL          X               Y               Z
  NUMBER   SYMBOL      (ANGSTROMS)     (ANGSTROMS)     (ANGSTROMS)

     1       C         -2.18333623  *   0.73639270  *  -0.58153571  *
     2       C         -0.77665908  *   0.47614715  *  -0.17459163  *
     3       C          0.12253318  *   1.45141700  *   0.01661216  *
     4       C          1.52214968  *   1.20726769  *   0.39684985  *
     5       O          2.27893956  *   2.13045106  *   0.59894975  *
     6       C          2.04806731  *  -0.20650475  *   0.54287296  *
     7       C          1.02638583  *  -1.29946645  *   0.36924670  *
     8       N          0.51607610  *  -1.49841795  *  -1.00384270  *
     9       C         -0.41544699  *  -0.95166766  *   0.01314174  *
    10       H         -2.39583865  *   1.80680148  *  -0.72262652  *
    11       H         -2.40932521  *   0.23862654  *  -1.53959800  *
    12       H         -2.90236710  *   0.35947231  *   0.16035622  *
    13       H         -0.12630697  *   2.50653958  *  -0.10848058  *
    14       H          2.86401402  *  -0.33996663  *  -0.20935306  *
    15       H          2.55237564  *  -0.29256005  *   1.52983299  *
    16       H          1.21456343  *  -2.17484748  *   1.00525072  *
    17       H          0.34764412  *  -2.45124038  *  -1.29951358  *
    18       H         -1.22961897  *  -1.57534496  *   0.40296421  *

                             CARTESIAN COORDINATES

   1    C       -2.183336228     0.736392701    -0.581535706
   2    C       -0.776659082     0.476147154    -0.174591627
   3    C        0.122533184     1.451416995     0.016612160
   4    C        1.522149676     1.207267692     0.396849849
   5    O        2.278939563     2.130451059     0.598949751
   6    C        2.048067307    -0.206504750     0.542872965
   7    C        1.026385825    -1.299466451     0.369246705
   8    N        0.516076101    -1.498417951    -1.003842696
   9    C       -0.415446991    -0.951667661     0.013141741
  10    H       -2.395838649     1.806801475    -0.722626518
  11    H       -2.409325211     0.238626543    -1.539598004
  12    H       -2.902367102     0.359472315     0.160356217
  13    H       -0.126306968     2.506539584    -0.108480581
  14    H        2.864014023    -0.339966633    -0.209353062
  15    H        2.552375644    -0.292560047     1.529832986
  16    H        1.214563427    -2.174847477     1.005250718
  17    H        0.347644121    -2.451240383    -1.299513578
  18    H       -1.229618968    -1.575344956     0.402964206


           Empirical Formula: C7 H9 N O  =    18 atoms



      MOLECULAR POINT GROUP   :   C1  


                  EIGENVALUES  
 -36.96997 -30.84139 -29.16844 -27.15966 -24.72098 -23.76852 -21.40712 -20.29068
 -18.80720 -16.90083 -16.48373 -15.79206 -15.28338 -14.98492 -14.19201 -13.88048
 -13.63007 -13.34936 -12.66121 -12.57582 -12.12651 -10.59820 -10.16302  -9.94764
  -0.20920   1.63191   2.00874   2.56093   3.07200   3.24832   3.40104   3.85636
   4.04791   4.56354   4.81327   4.81859   5.03037   5.17238   5.22828   5.28056
   5.76892   5.96577   6.07433   6.22744   6.38452


              NET ATOMIC CHARGES AND DIPOLE CONTRIBUTIONS

  ATOM NO.   TYPE          CHARGE      No. of ELECS.   s-Pop       p-Pop       
    1          C          -0.468816        4.4688     1.05144     3.41738
    2          C           0.148243        3.8518     1.07662     2.77513
    3          C          -0.335075        4.3351     1.09408     3.24099
    4          C           0.502628        3.4974     1.11042     2.38695
    5          O          -0.470827        6.4708     1.87945     4.59138
    6          C          -0.374595        4.3746     1.06732     3.30728
    7          C          -0.036851        4.0369     1.06567     2.97118
    8          N          -0.468128        5.4681     1.72633     3.74180
    9          C          -0.119740        4.1197     1.06654     3.05320
   10          H           0.166804        0.8332     0.83320
   11          H           0.172510        0.8275     0.82749
   12          H           0.162938        0.8371     0.83706
   13          H           0.182802        0.8172     0.81720
   14          H           0.197080        0.8029     0.80292
   15          H           0.177829        0.8222     0.82217
   16          H           0.147871        0.8521     0.85213
   17          H           0.258932        0.7411     0.74107
   18          H           0.156396        0.8436     0.84360
 DIPOLE           X         Y         Z       TOTAL
 POINT-CHG.    -3.137    -3.261     0.654     4.572
 HYBRID        -0.195    -0.893     0.107     0.920
 SUM           -3.331    -4.154     0.761     5.379


          ATOMIC ORBITAL ELECTRON POPULATIONS

     Atom    s        px        py        pz   
    1  C   1.05144   1.04958   1.19433   1.17347
    2  C   1.07662   0.95637   0.94338   0.87539
    3  C   1.09408   1.02752   1.10155   1.11193
    4  C   1.11042   0.85909   0.85253   0.67533
    5  O   1.87945   1.62271   1.53225   1.43643
    6  C   1.06732   1.09023   1.02774   1.18930
    7  C   1.06567   0.96573   1.06898   0.93647
    8  N   1.72633   1.20190   1.35388   1.18603
    9  C   1.06654   0.98091   1.03825   1.03404
   10  H   0.83320
   11  H   0.82749
   12  H   0.83706
   13  H   0.81720
   14  H   0.80292
   15  H   0.82217
   16  H   0.85213
   17  H   0.74107
   18  H   0.84360

 **********************
 *                    *
 * JOB ENDED NORMALLY *
 *                    *
 **********************



 TOTAL JOB TIME:             1.16 SECONDS

 == MOPAC DONE ==
