 *******************************************************************************
 **                                                                           **
 **                              MOPAC v23.2                                  **
 **                                                                           **
 *******************************************************************************
 **          Digital Object Identifier (DOI): 10.5281/zenodo.6511958          **
 **    Visit the DOI location for information on how to cite this program.    **
 *******************************************************************************

                              PM7 CALCULATION RESULTS

 *******************************************************************************
 *  CALCULATION DONE: (MAX THREADS = 40)             Fri Sep 19 21:32:31 2025  *
 *  PM7        - The PM7 Hamiltonian to be used
 *  1SCF       - DO 1 SCF AND THEN STOP 
 *  T=         - A TIME OF 172800.0 SECONDS REQUESTED
 *  DUMP=N     - RESTART FILE WRITTEN EVERY 7200.0 SECONDS REQUESTED
 *  RELSCF     - DEFAULT SCF CRITERION MULTIPLIED BY 0.0001
 *              (DEFAULT SCF CRITERION = 0.00010)
 *  GRADIENTS  - ALL GRADIENTS TO BE PRINTED
 *  DISP       - PRINT DISPERSION AND HYDROGEN BOND ENERGIES
 *******************************************************************************
PM7 1SCF GRADIENTS DISP RELSCF=0.0001
 Title: ASE calculation

   ATOM   CHEMICAL          X               Y               Z
  NUMBER   SYMBOL      (ANGSTROMS)     (ANGSTROMS)     (ANGSTROMS)

     1       C         -2.68668668  *   0.87547811  *   0.84154784  *
     2       C         -1.53172325  *   0.98311344  *  -0.11849586  *
     3       C         -1.34008811  *  -0.05749748  *  -1.20362125  *
     4       N         -0.49302040  *  -0.06948203  *   0.00930198  *
     5       C          0.89979699  *   0.33520436  *  -0.14878322  *
     6       C          1.83380160  *  -0.88584654  *  -0.42830213  *
     7       C          2.57857468  *  -0.62123307  *   0.90573937  *
     8       C          1.60708740  *   0.54359239  *   1.22912548  *
     9       H         -2.96996360  *  -0.17261849  *   1.01904707  *
    10       H         -3.56940511  *   1.40305834  *   0.46224142  *
    11       H         -2.42721587  *   1.30045376  *   1.82054591  *
    12       H         -1.22600261  *   2.01811057  *  -0.32093865  *
    13       H         -2.02871506  *  -0.90021280  *  -1.29169172  *
    14       H         -0.93213352  *   0.22023397  *  -2.17195283  *
    15       H          1.06128736  *   1.17501630  *  -0.84965707  *
    16       H          1.30289886  *  -1.84352495  *  -0.45905892  *
    17       H          2.44107952  *  -0.79401355  *  -1.32773891  *
    18       H          2.53466228  *  -1.45165205  *   1.61533526  *
    19       H          3.62253698  *  -0.32146337  *   0.78914829  *
    20       H          0.95553482  *   0.35468745  *   2.08906441  *
    21       H          2.07584412  *   1.51917303  *   1.35284123  *



          CARTESIAN COORDINATES 

    NO.       ATOM           X           Y           Z

     1         C         -2.6867      0.8755      0.8415
     2         C         -1.5317      0.9831     -0.1185
     3         C         -1.3401     -0.0575     -1.2036
     4         N         -0.4930     -0.0695      0.0093
     5         C          0.8998      0.3352     -0.1488
     6         C          1.8338     -0.8858     -0.4283
     7         C          2.5786     -0.6212      0.9057
     8         C          1.6071      0.5436      1.2291
     9         H         -2.9700     -0.1726      1.0190
    10         H         -3.5694      1.4031      0.4622
    11         H         -2.4272      1.3005      1.8205
    12         H         -1.2260      2.0181     -0.3209
    13         H         -2.0287     -0.9002     -1.2917
    14         H         -0.9321      0.2202     -2.1720
    15         H          1.0613      1.1750     -0.8497
    16         H          1.3029     -1.8435     -0.4591
    17         H          2.4411     -0.7940     -1.3277
    18         H          2.5347     -1.4517      1.6153
    19         H          3.6225     -0.3215      0.7891
    20         H          0.9555      0.3547      2.0891
    21         H          2.0758      1.5192      1.3528

 General Reference for PM7:
 "Optimization of Parameters for Semiempirical Methods VI: More Modifications to the 
 NDDO Approximations and Re-optimization of Parameters", J. J. P. Stewart, J. Mol. Mod., 1:32, 19 (2013)
 https://link.springer.com/article/10.1007/s00894-012-1667-x

           Empirical Formula: C7 H13 N  =    21 atoms



      MOLECULAR POINT GROUP   :   C1  


      RHF CALCULATION, NO. OF DOUBLY OCCUPIED LEVELS = 23

  SCF CRITERION =    0.1000E-07

 -------------------------------------------------------------------------------
 PM7 1SCF GRADIENTS DISP RELSCF=0.0001
 Title: ASE calculation



     1SCF WAS SPECIFIED, SO BFGS WAS NOT USED                 
     SCF FIELD WAS ACHIEVED                                   


                              PM7 CALCULATION
                                                       MOPAC v23.2 Linux
                                                       Fri Sep 19 21:32:31 2025




          FINAL HEAT OF FORMATION =         30.47318 KCAL/MOL =     127.49981 KJ/MOL

          TOTAL ENERGY            =     -28137.78945 KCAL/MOL = ELECTRONIC ENERGY + CORE-CORE REPULSION
          ENERGY OF ATOMS         =      28170.10828 KCAL/MOL
                              SUM =         32.31883 KCAL/MOL
          DISPERSION ENERGY       =         -1.84564 KCAL/MOL
                              SUM =         30.47318 KCAL/MOL = FINAL HEAT OF FORMATION



          TOTAL ENERGY            =      -1220.17003 EV
          ELECTRONIC ENERGY       =      -6271.93885 EV 
          CORE-CORE REPULSION     =       5051.76882 EV
          COSMO AREA              =        167.76 SQUARE ANGSTROMS
          COSMO VOLUME            =        164.82 CUBIC ANGSTROMS

          GRADIENT NORM           =          1.09623          =       0.23922 PER ATOM
          IONIZATION POTENTIAL    =          9.564485 EV
          HOMO LUMO ENERGIES (EV) =         -9.564  2.493
          NO. OF FILLED LEVELS    =         23
          MOLECULAR WEIGHT        =        111.1864         POINT GROUP:  C1  

          MOLECULAR DIMENSIONS (Angstroms)

            Atom       Atom       Distance
            H    19    H    10     7.40303
            H    20    H    14     4.21602
            H    21    H    16     3.17315


          SCF CALCULATIONS        =          1

          WALL-CLOCK TIME         =      0.773 SECONDS
          COMPUTATION TIME        =      0.777 SECONDS

          LARGEST ATOMIC GRADIENTS

          Atom     Label                     Cartesian Gradients           Cartesian Coordinates       |Gradient|
                                           X          Y          Z        X          Y          Z

             9       H                   0.048     -0.086     -0.384   -2.96996   -0.17262    1.01905      0.397
             8       C                   0.008      0.343      0.077    1.60709    0.54359    1.22913      0.351
            14       H                   0.209     -0.247      0.125   -0.93213    0.22023   -2.17195      0.347
             5       C                  -0.290     -0.076      0.123    0.89980    0.33520   -0.14878      0.324
            17       H                  -0.195      0.072      0.196    2.44108   -0.79401   -1.32774      0.286
            10       H                   0.169      0.047      0.219   -3.56941    1.40306    0.46224      0.281
            19       H                   0.228      0.067     -0.137    3.62254   -0.32146    0.78915      0.274
             6       C                  -0.039      0.081     -0.240    1.83380   -0.88585   -0.42830      0.256
            12       H                   0.144      0.204     -0.012   -1.22600    2.01811   -0.32094      0.250
            21       H                   0.069     -0.156     -0.159    2.07584    1.51917    1.35284      0.233



       FINAL  POINT  AND  DERIVATIVES

   PARAMETER     ATOM    TYPE            VALUE        GRADIENT
      1          1  C    CARTESIAN X    -2.686687      0.030527  KCAL/ANGSTROM
      2          1  C    CARTESIAN Y     0.875478     -0.044652  KCAL/ANGSTROM
      3          1  C    CARTESIAN Z     0.841548     -0.002179  KCAL/ANGSTROM
      4          2  C    CARTESIAN X    -1.531723     -0.031420  KCAL/ANGSTROM
      5          2  C    CARTESIAN Y     0.983113      0.167025  KCAL/ANGSTROM
      6          2  C    CARTESIAN Z    -0.118496     -0.053012  KCAL/ANGSTROM
      7          3  C    CARTESIAN X    -1.340088     -0.162064  KCAL/ANGSTROM
      8          3  C    CARTESIAN Y    -0.057497     -0.037510  KCAL/ANGSTROM
      9          3  C    CARTESIAN Z    -1.203621     -0.011944  KCAL/ANGSTROM
     10          4  N    CARTESIAN X    -0.493020      0.002932  KCAL/ANGSTROM
     11          4  N    CARTESIAN Y    -0.069482      0.013406  KCAL/ANGSTROM
     12          4  N    CARTESIAN Z     0.009302      0.049906  KCAL/ANGSTROM
     13          5  C    CARTESIAN X     0.899797     -0.289968  KCAL/ANGSTROM
     14          5  C    CARTESIAN Y     0.335204     -0.075962  KCAL/ANGSTROM
     15          5  C    CARTESIAN Z    -0.148783      0.123316  KCAL/ANGSTROM
     16          6  C    CARTESIAN X     1.833802     -0.038792  KCAL/ANGSTROM
     17          6  C    CARTESIAN Y    -0.885847      0.081127  KCAL/ANGSTROM
     18          6  C    CARTESIAN Z    -0.428302     -0.239756  KCAL/ANGSTROM
     19          7  C    CARTESIAN X     2.578575      0.149522  KCAL/ANGSTROM
     20          7  C    CARTESIAN Y    -0.621233      0.009925  KCAL/ANGSTROM
     21          7  C    CARTESIAN Z     0.905739      0.051270  KCAL/ANGSTROM
     22          8  C    CARTESIAN X     1.607087      0.008137  KCAL/ANGSTROM
     23          8  C    CARTESIAN Y     0.543592      0.342630  KCAL/ANGSTROM
     24          8  C    CARTESIAN Z     1.229125      0.076699  KCAL/ANGSTROM
     25          9  H    CARTESIAN X    -2.969964      0.047706  KCAL/ANGSTROM
     26          9  H    CARTESIAN Y    -0.172618     -0.086494  KCAL/ANGSTROM
     27          9  H    CARTESIAN Z     1.019047     -0.384022  KCAL/ANGSTROM
     28         10  H    CARTESIAN X    -3.569405      0.168567  KCAL/ANGSTROM
     29         10  H    CARTESIAN Y     1.403058      0.046679  KCAL/ANGSTROM
     30         10  H    CARTESIAN Z     0.462241      0.219484  KCAL/ANGSTROM
     31         11  H    CARTESIAN X    -2.427216     -0.126549  KCAL/ANGSTROM
     32         11  H    CARTESIAN Y     1.300454     -0.099055  KCAL/ANGSTROM
     33         11  H    CARTESIAN Z     1.820546      0.008131  KCAL/ANGSTROM
     34         12  H    CARTESIAN X    -1.226003      0.143694  KCAL/ANGSTROM
     35         12  H    CARTESIAN Y     2.018111      0.204111  KCAL/ANGSTROM
     36         12  H    CARTESIAN Z    -0.320939     -0.012127  KCAL/ANGSTROM
     37         13  H    CARTESIAN X    -2.028715     -0.079578  KCAL/ANGSTROM
     38         13  H    CARTESIAN Y    -0.900213     -0.169802  KCAL/ANGSTROM
     39         13  H    CARTESIAN Z    -1.291692     -0.095840  KCAL/ANGSTROM
     40         14  H    CARTESIAN X    -0.932134      0.208779  KCAL/ANGSTROM
     41         14  H    CARTESIAN Y     0.220234     -0.247223  KCAL/ANGSTROM
     42         14  H    CARTESIAN Z    -2.171953      0.124942  KCAL/ANGSTROM
     43         15  H    CARTESIAN X     1.061287      0.121141  KCAL/ANGSTROM
     44         15  H    CARTESIAN Y     1.175016      0.106599  KCAL/ANGSTROM
     45         15  H    CARTESIAN Z    -0.849657      0.005813  KCAL/ANGSTROM
     46         16  H    CARTESIAN X     1.302899     -0.135550  KCAL/ANGSTROM
     47         16  H    CARTESIAN Y    -1.843525     -0.063106  KCAL/ANGSTROM
     48         16  H    CARTESIAN Z    -0.459059      0.072810  KCAL/ANGSTROM
     49         17  H    CARTESIAN X     2.441080     -0.195083  KCAL/ANGSTROM
     50         17  H    CARTESIAN Y    -0.794014      0.072096  KCAL/ANGSTROM
     51         17  H    CARTESIAN Z    -1.327739      0.195658  KCAL/ANGSTROM
     52         18  H    CARTESIAN X     2.534662     -0.136729  KCAL/ANGSTROM
     53         18  H    CARTESIAN Y    -1.451652     -0.059182  KCAL/ANGSTROM
     54         18  H    CARTESIAN Z     1.615335     -0.021137  KCAL/ANGSTROM
     55         19  H    CARTESIAN X     3.622537      0.227701  KCAL/ANGSTROM
     56         19  H    CARTESIAN Y    -0.321463      0.066907  KCAL/ANGSTROM
     57         19  H    CARTESIAN Z     0.789148     -0.137233  KCAL/ANGSTROM
     58         20  H    CARTESIAN X     0.955535      0.017647  KCAL/ANGSTROM
     59         20  H    CARTESIAN Y     0.354687     -0.071571  KCAL/ANGSTROM
     60         20  H    CARTESIAN Z     2.089064      0.188486  KCAL/ANGSTROM
     61         21  H    CARTESIAN X     2.075844      0.069381  KCAL/ANGSTROM
     62         21  H    CARTESIAN Y     1.519173     -0.155950  KCAL/ANGSTROM
     63         21  H    CARTESIAN Z     1.352841     -0.159268  KCAL/ANGSTROM




   ATOM   CHEMICAL          X               Y               Z
  NUMBER   SYMBOL      (ANGSTROMS)     (ANGSTROMS)     (ANGSTROMS)

     1       C         -2.68668668  *   0.87547811  *   0.84154784  *
     2       C         -1.53172325  *   0.98311344  *  -0.11849586  *
     3       C         -1.34008811  *  -0.05749748  *  -1.20362125  *
     4       N         -0.49302040  *  -0.06948203  *   0.00930198  *
     5       C          0.89979699  *   0.33520436  *  -0.14878322  *
     6       C          1.83380160  *  -0.88584654  *  -0.42830213  *
     7       C          2.57857468  *  -0.62123307  *   0.90573937  *
     8       C          1.60708740  *   0.54359239  *   1.22912548  *
     9       H         -2.96996360  *  -0.17261849  *   1.01904707  *
    10       H         -3.56940511  *   1.40305834  *   0.46224142  *
    11       H         -2.42721587  *   1.30045376  *   1.82054591  *
    12       H         -1.22600261  *   2.01811057  *  -0.32093865  *
    13       H         -2.02871506  *  -0.90021280  *  -1.29169172  *
    14       H         -0.93213352  *   0.22023397  *  -2.17195283  *
    15       H          1.06128736  *   1.17501630  *  -0.84965707  *
    16       H          1.30289886  *  -1.84352495  *  -0.45905892  *
    17       H          2.44107952  *  -0.79401355  *  -1.32773891  *
    18       H          2.53466228  *  -1.45165205  *   1.61533526  *
    19       H          3.62253698  *  -0.32146337  *   0.78914829  *
    20       H          0.95553482  *   0.35468745  *   2.08906441  *
    21       H          2.07584412  *   1.51917303  *   1.35284123  *

                             CARTESIAN COORDINATES

   1    C       -2.686686684     0.875478114     0.841547845
   2    C       -1.531723245     0.983113444    -0.118495858
   3    C       -1.340088111    -0.057497479    -1.203621247
   4    N       -0.493020396    -0.069482035     0.009301976
   5    C        0.899796988     0.335204363    -0.148783219
   6    C        1.833801601    -0.885846541    -0.428302130
   7    C        2.578574677    -0.621233069     0.905739373
   8    C        1.607087396     0.543592392     1.229125476
   9    H       -2.969963596    -0.172618486     1.019047070
  10    H       -3.569405111     1.403058336     0.462241421
  11    H       -2.427215875     1.300453760     1.820545905
  12    H       -1.226002614     2.018110573    -0.320938655
  13    H       -2.028715057    -0.900212804    -1.291691725
  14    H       -0.932133520     0.220233974    -2.171952827
  15    H        1.061287364     1.175016299    -0.849657067
  16    H        1.302898864    -1.843524954    -0.459058922
  17    H        2.441079522    -0.794013545    -1.327738910
  18    H        2.534662279    -1.451652049     1.615335256
  19    H        3.622536977    -0.321463368     0.789148288
  20    H        0.955534824     0.354687447     2.089064406
  21    H        2.075844124     1.519173032     1.352841232


           Empirical Formula: C7 H13 N  =    21 atoms



      MOLECULAR POINT GROUP   :   C1  


                  EIGENVALUES  
 -36.16953 -29.99698 -26.24065 -23.56407 -22.82601 -21.55672 -20.06099 -18.54365
 -17.44875 -16.49942 -14.98632 -14.88995 -14.61540 -13.99848 -13.34266 -13.23194
 -12.54488 -11.99898 -11.98476 -11.32954 -11.10432 -10.85732  -9.56449   2.49283
   2.75558   3.57537   3.58755   3.75362   4.11486   4.52752   5.07290   5.37170
   5.46936   5.57227   5.73635   5.81477   5.86333   5.99136   6.00134   6.17639
   6.41370   6.59744   6.70967   6.77387   6.97111


              NET ATOMIC CHARGES AND DIPOLE CONTRIBUTIONS

  ATOM NO.   TYPE          CHARGE      No. of ELECS.   s-Pop       p-Pop       
    1          C          -0.431551        4.4316     1.04981     3.38174
    2          C          -0.033283        4.0333     1.06235     2.97093
    3          C          -0.240943        4.2409     1.07066     3.17028
    4          N          -0.381169        5.3812     1.74905     3.63212
    5          C           0.016413        3.9836     1.07627     2.90732
    6          C          -0.286989        4.2870     1.07144     3.21555
    7          C          -0.266821        4.2668     1.06403     3.20280
    8          C          -0.285735        4.2857     1.07142     3.21431
    9          H           0.163654        0.8363     0.83635
   10          H           0.148398        0.8516     0.85160
   11          H           0.154658        0.8453     0.84534
   12          H           0.142637        0.8574     0.85736
   13          H           0.169364        0.8306     0.83064
   14          H           0.146067        0.8539     0.85393
   15          H           0.116882        0.8831     0.88312
   16          H           0.158009        0.8420     0.84199
   17          H           0.136148        0.8639     0.86385
   18          H           0.143392        0.8566     0.85661
   19          H           0.136813        0.8632     0.86319
   20          H           0.158172        0.8418     0.84183
   21          H           0.135886        0.8641     0.86411
 DIPOLE           X         Y         Z       TOTAL
 POINT-CHG.    -0.138     0.946    -0.523     1.090
 HYBRID         0.222     0.360    -0.400     0.582
 SUM            0.084     1.306    -0.922     1.601


          ATOMIC ORBITAL ELECTRON POPULATIONS

     Atom    s        px        py        pz   
    1  C   1.04981   1.07656   1.19192   1.11326
    2  C   1.06235   0.97976   0.97813   1.01304
    3  C   1.07066   1.09079   1.11241   0.96708
    4  N   1.74905   1.05794   1.31921   1.25497
    5  C   1.07627   0.85312   1.02635   1.02784
    6  C   1.07144   1.06922   1.09000   1.05634
    7  C   1.06403   1.07148   1.07960   1.05171
    8  C   1.07142   1.07267   1.07960   1.06204
    9  H   0.83635
   10  H   0.85160
   11  H   0.84534
   12  H   0.85736
   13  H   0.83064
   14  H   0.85393
   15  H   0.88312
   16  H   0.84199
   17  H   0.86385
   18  H   0.85661
   19  H   0.86319
   20  H   0.84183
   21  H   0.86411

 **********************
 *                    *
 * JOB ENDED NORMALLY *
 *                    *
 **********************



 TOTAL JOB TIME:             1.28 SECONDS

 == MOPAC DONE ==
