 *******************************************************************************
 **                                                                           **
 **                              MOPAC v23.2                                  **
 **                                                                           **
 *******************************************************************************
 **          Digital Object Identifier (DOI): 10.5281/zenodo.6511958          **
 **    Visit the DOI location for information on how to cite this program.    **
 *******************************************************************************

                              PM7 CALCULATION RESULTS

 *******************************************************************************
 *  CALCULATION DONE: (MAX THREADS = 40)             Fri Sep 19 21:33:42 2025  *
 *  PM7        - The PM7 Hamiltonian to be used
 *
 *
 *
 *                 CHARGE ON SYSTEM = +1
 *
 *
 *
 *  EPS=37.5   - USE ANDREAS KLAMT'S COSMO IMPLICIT SOLVATION MODEL
 *  1SCF       - DO 1 SCF AND THEN STOP 
 *  T=         - A TIME OF 172800.0 SECONDS REQUESTED
 *  DUMP=N     - RESTART FILE WRITTEN EVERY 7200.0 SECONDS REQUESTED
 *  RELSCF     - DEFAULT SCF CRITERION MULTIPLIED BY 0.0001
 *              (DEFAULT SCF CRITERION = 0.00010)
 *  GRADIENTS  - ALL GRADIENTS TO BE PRINTED
 *  DISP       - PRINT DISPERSION AND HYDROGEN BOND ENERGIES
 *******************************************************************************
PM7 1SCF GRADIENTS EPS=37.5 DISP RELSCF=0.0001 CHARGE=1
 Title: ASE calculation

   ATOM   CHEMICAL          X               Y               Z
  NUMBER   SYMBOL      (ANGSTROMS)     (ANGSTROMS)     (ANGSTROMS)

     1       C         -1.14996168  *   1.78913169  *  -0.47742227  *
     2       N         -0.48012055  *   0.51061932  *  -0.28592849  *
     3       C          0.82386492  *   0.28653118  *  -0.63105012  *
     4       C          1.17740873  *  -1.14035108  *  -0.35400206  *
     5       C          2.56980442  *  -1.55025699  *  -0.09190759  *
     6       O          0.33838886  *  -2.01631413  *  -1.11551463  *
     7       C         -0.11756268  *  -1.73638852  *   0.20924195  *
     8       C         -1.10255219  *  -0.61159664  *   0.20920710  *
     9       C         -2.48360226  *  -0.67354454  *   0.65424483  *
    10       H         -1.74566879  *   2.07257557  *   0.41700401  *
    11       H         -0.43050572  *   2.61402170  *  -0.66420763  *
    12       H         -1.84411818  *   1.75086836  *  -1.34799167  *
    13       H          1.49159678  *   1.03878398  *  -1.03058186  *
    14       H          3.20594176  *  -1.45237282  *  -0.99374272  *
    15       H          3.04888622  *  -0.96220763  *   0.70862792  *
    16       H          2.64430112  *  -2.61402170  *   0.20822502  *
    17       H         -0.21658326  *  -2.57646347  *   0.89277179  *
    18       H         -2.77599543  *   0.14056833  *   1.34799167  *
    19       H         -2.72229945  *  -1.62345903  *   1.18079691  *
    20       H         -3.20594176  *  -0.62378107  *  -0.19365481  *



          CARTESIAN COORDINATES 

    NO.       ATOM           X           Y           Z

     1         C         -1.1500      1.7891     -0.4774
     2         N         -0.4801      0.5106     -0.2859
     3         C          0.8239      0.2865     -0.6311
     4         C          1.1774     -1.1404     -0.3540
     5         C          2.5698     -1.5503     -0.0919
     6         O          0.3384     -2.0163     -1.1155
     7         C         -0.1176     -1.7364      0.2092
     8         C         -1.1026     -0.6116      0.2092
     9         C         -2.4836     -0.6735      0.6542
    10         H         -1.7457      2.0726      0.4170
    11         H         -0.4305      2.6140     -0.6642
    12         H         -1.8441      1.7509     -1.3480
    13         H          1.4916      1.0388     -1.0306
    14         H          3.2059     -1.4524     -0.9937
    15         H          3.0489     -0.9622      0.7086
    16         H          2.6443     -2.6140      0.2082
    17         H         -0.2166     -2.5765      0.8928
    18         H         -2.7760      0.1406      1.3480
    19         H         -2.7223     -1.6235      1.1808
    20         H         -3.2059     -0.6238     -0.1937

 General Reference for PM7:
 "Optimization of Parameters for Semiempirical Methods VI: More Modifications to the 
 NDDO Approximations and Re-optimization of Parameters", J. J. P. Stewart, J. Mol. Mod., 1:32, 19 (2013)
 https://link.springer.com/article/10.1007/s00894-012-1667-x

           Empirical Formula: C7 H11 N O  =    20 atoms



      MOLECULAR POINT GROUP   :   C1  


          UHF CALCULATION, NO. OF ALPHA ELECTRONS =   25
                           NO. OF BETA  ELECTRONS =   24
  SCF CRITERION =    0.1000E-07

 -------------------------------------------------------------------------------
 PM7 1SCF GRADIENTS EPS=37.5 DISP RELSCF=0.0001 CHARGE=1
 Title: ASE calculation



     1SCF WAS SPECIFIED, SO BFGS WAS NOT USED                 
     SCF FIELD WAS ACHIEVED                                   


                              PM7 CALCULATION
                                                       MOPAC v23.2 Linux
                                                       Fri Sep 19 21:33:44 2025




          FINAL HEAT OF FORMATION =        121.69640 KCAL/MOL =     509.17774 KJ/MOL

          TOTAL ENERGY            =     -34200.21795 KCAL/MOL = ELECTRONIC ENERGY + CORE-CORE REPULSION + SOLVATION ENERGY
          ENERGY OF ATOMS         =      34323.93363 KCAL/MOL
                              SUM =        123.71569 KCAL/MOL
          DISPERSION ENERGY       =         -2.01929 KCAL/MOL
                              SUM =        121.69640 KCAL/MOL = FINAL HEAT OF FORMATION

          VAN DER WAALS AREA      =        167.72 SQUARE ANGSTROMS


          TOTAL ENERGY            =      -1483.06182 EV
          ELECTRONIC ENERGY       =      -2272.91432 EV 
          CORE-CORE REPULSION     =        789.85251 EV

          DIELECTRIC ENERGY       =         -2.25250 EV
          COSMO AREA              =        167.72 SQUARE ANGSTROMS
          COSMO VOLUME            =        165.12 CUBIC ANGSTROMS

          GRADIENT NORM           =         13.08810          =       2.92659 PER ATOM
          IONIZATION POTENTIAL    =         10.194359 EV
          ALPHA SOMO LUMO (EV)    =        -10.194 -1.387
          BETA  SOMO LUMO (EV)    =        -11.541 -2.178
          NO. OF ALPHA ELECTRONS  =         25
          NO. OF BETA  ELECTRONS  =         24
          MOLECULAR WEIGHT        =        125.1700         POINT GROUP:  C1  

          MOLECULAR DIMENSIONS (Angstroms)

            Atom       Atom       Distance
            H    18    H    14     6.61852
            H    17    H    11     5.34939
            H    20    H    15     3.27425


          SCF CALCULATIONS        =          2

          WALL-CLOCK TIME         =      1.305 SECONDS
          COMPUTATION TIME        =      0.661 SECONDS

          LARGEST ATOMIC GRADIENTS

          Atom     Label                     Cartesian Gradients           Cartesian Coordinates       |Gradient|
                                           X          Y          Z        X          Y          Z

             6       O                   0.850      3.421      4.631    0.33839   -2.01631   -1.11551      5.820
             4       C                   0.079     -3.298     -4.231    1.17741   -1.14035   -0.35400      5.365
             3       C                   4.942      0.481     -0.628    0.82386    0.28653   -0.63105      5.004
             5       C                  -0.664      4.282      2.112    2.56980   -1.55026   -0.09191      4.821
             9       C                  -0.864      3.970     -0.127   -2.48360   -0.67354    0.65424      4.065
             2       N                  -2.603     -0.882      1.096   -0.48012    0.51062   -0.28593      2.959
             8       C                   1.555     -2.407      0.301   -1.10255   -0.61160    0.20921      2.881
             1       C                  -1.156      2.061     -0.674   -1.14996    1.78913   -0.47742      2.457
             7       C                  -1.042     -0.806     -1.403   -0.11756   -1.73639    0.20924      1.924
            14       H                   0.682     -1.413     -0.781    3.20594   -1.45237   -0.99374      1.752



       FINAL  POINT  AND  DERIVATIVES

   PARAMETER     ATOM    TYPE            VALUE        GRADIENT
      1          1  C    CARTESIAN X    -1.149962     -1.155505  KCAL/ANGSTROM
      2          1  C    CARTESIAN Y     1.789132      2.060729  KCAL/ANGSTROM
      3          1  C    CARTESIAN Z    -0.477422     -0.674394  KCAL/ANGSTROM
      4          2  N    CARTESIAN X    -0.480121     -2.602902  KCAL/ANGSTROM
      5          2  N    CARTESIAN Y     0.510619     -0.881525  KCAL/ANGSTROM
      6          2  N    CARTESIAN Z    -0.285928      1.096391  KCAL/ANGSTROM
      7          3  C    CARTESIAN X     0.823865      4.941592  KCAL/ANGSTROM
      8          3  C    CARTESIAN Y     0.286531      0.480822  KCAL/ANGSTROM
      9          3  C    CARTESIAN Z    -0.631050     -0.628082  KCAL/ANGSTROM
     10          4  C    CARTESIAN X     1.177409      0.079160  KCAL/ANGSTROM
     11          4  C    CARTESIAN Y    -1.140351     -3.297665  KCAL/ANGSTROM
     12          4  C    CARTESIAN Z    -0.354002     -4.231036  KCAL/ANGSTROM
     13          5  C    CARTESIAN X     2.569804     -0.664340  KCAL/ANGSTROM
     14          5  C    CARTESIAN Y    -1.550257      4.282243  KCAL/ANGSTROM
     15          5  C    CARTESIAN Z    -0.091908      2.111702  KCAL/ANGSTROM
     16          6  O    CARTESIAN X     0.338389      0.850152  KCAL/ANGSTROM
     17          6  O    CARTESIAN Y    -2.016314      3.420619  KCAL/ANGSTROM
     18          6  O    CARTESIAN Z    -1.115515      4.630728  KCAL/ANGSTROM
     19          7  C    CARTESIAN X    -0.117563     -1.041690  KCAL/ANGSTROM
     20          7  C    CARTESIAN Y    -1.736389     -0.805692  KCAL/ANGSTROM
     21          7  C    CARTESIAN Z     0.209242     -1.402591  KCAL/ANGSTROM
     22          8  C    CARTESIAN X    -1.102552      1.554994  KCAL/ANGSTROM
     23          8  C    CARTESIAN Y    -0.611597     -2.406716  KCAL/ANGSTROM
     24          8  C    CARTESIAN Z     0.209207      0.300720  KCAL/ANGSTROM
     25          9  C    CARTESIAN X    -2.483602     -0.863763  KCAL/ANGSTROM
     26          9  C    CARTESIAN Y    -0.673545      3.970446  KCAL/ANGSTROM
     27          9  C    CARTESIAN Z     0.654245     -0.126984  KCAL/ANGSTROM
     28         10  H    CARTESIAN X    -1.745669      0.069995  KCAL/ANGSTROM
     29         10  H    CARTESIAN Y     2.072576      0.306691  KCAL/ANGSTROM
     30         10  H    CARTESIAN Z     0.417004     -0.143592  KCAL/ANGSTROM
     31         11  H    CARTESIAN X    -0.430506     -0.370630  KCAL/ANGSTROM
     32         11  H    CARTESIAN Y     2.614022      0.894529  KCAL/ANGSTROM
     33         11  H    CARTESIAN Z    -0.664208      0.163569  KCAL/ANGSTROM
     34         12  H    CARTESIAN X    -1.844118     -0.485320  KCAL/ANGSTROM
     35         12  H    CARTESIAN Y     1.750868      0.464840  KCAL/ANGSTROM
     36         12  H    CARTESIAN Z    -1.347992     -0.462699  KCAL/ANGSTROM
     37         13  H    CARTESIAN X     1.491597     -0.465346  KCAL/ANGSTROM
     38         13  H    CARTESIAN Y     1.038784     -1.252163  KCAL/ANGSTROM
     39         13  H    CARTESIAN Z    -1.030582      0.071029  KCAL/ANGSTROM
     40         14  H    CARTESIAN X     3.205942      0.681913  KCAL/ANGSTROM
     41         14  H    CARTESIAN Y    -1.452373     -1.412709  KCAL/ANGSTROM
     42         14  H    CARTESIAN Z    -0.993743     -0.781092  KCAL/ANGSTROM
     43         15  H    CARTESIAN X     3.048886      0.958748  KCAL/ANGSTROM
     44         15  H    CARTESIAN Y    -0.962208     -0.965769  KCAL/ANGSTROM
     45         15  H    CARTESIAN Z     0.708628     -0.079551  KCAL/ANGSTROM
     46         16  H    CARTESIAN X     2.644301      0.592802  KCAL/ANGSTROM
     47         16  H    CARTESIAN Y    -2.614022     -1.327346  KCAL/ANGSTROM
     48         16  H    CARTESIAN Z     0.208225     -0.457547  KCAL/ANGSTROM
     49         17  H    CARTESIAN X    -0.216583      0.030929  KCAL/ANGSTROM
     50         17  H    CARTESIAN Y    -2.576463     -0.026790  KCAL/ANGSTROM
     51         17  H    CARTESIAN Z     0.892772     -0.133472  KCAL/ANGSTROM
     52         18  H    CARTESIAN X    -2.775995     -0.594786  KCAL/ANGSTROM
     53         18  H    CARTESIAN Y     0.140568     -1.002152  KCAL/ANGSTROM
     54         18  H    CARTESIAN Z     1.347992      0.534538  KCAL/ANGSTROM
     55         19  H    CARTESIAN X    -2.722299     -0.701199  KCAL/ANGSTROM
     56         19  H    CARTESIAN Y    -1.623459     -1.319669  KCAL/ANGSTROM
     57         19  H    CARTESIAN Z     1.180797      0.475701  KCAL/ANGSTROM
     58         20  H    CARTESIAN X    -3.205942     -0.814802  KCAL/ANGSTROM
     59         20  H    CARTESIAN Y    -0.623781     -1.182726  KCAL/ANGSTROM
     60         20  H    CARTESIAN Z    -0.193655     -0.263342  KCAL/ANGSTROM




   ATOM   CHEMICAL          X               Y               Z
  NUMBER   SYMBOL      (ANGSTROMS)     (ANGSTROMS)     (ANGSTROMS)

     1       C         -1.14996168  *   1.78913169  *  -0.47742227  *
     2       N         -0.48012055  *   0.51061932  *  -0.28592849  *
     3       C          0.82386492  *   0.28653118  *  -0.63105012  *
     4       C          1.17740873  *  -1.14035108  *  -0.35400206  *
     5       C          2.56980442  *  -1.55025699  *  -0.09190759  *
     6       O          0.33838886  *  -2.01631413  *  -1.11551463  *
     7       C         -0.11756268  *  -1.73638852  *   0.20924195  *
     8       C         -1.10255219  *  -0.61159664  *   0.20920710  *
     9       C         -2.48360226  *  -0.67354454  *   0.65424483  *
    10       H         -1.74566879  *   2.07257557  *   0.41700401  *
    11       H         -0.43050572  *   2.61402170  *  -0.66420763  *
    12       H         -1.84411818  *   1.75086836  *  -1.34799167  *
    13       H          1.49159678  *   1.03878398  *  -1.03058186  *
    14       H          3.20594176  *  -1.45237282  *  -0.99374272  *
    15       H          3.04888622  *  -0.96220763  *   0.70862792  *
    16       H          2.64430112  *  -2.61402170  *   0.20822502  *
    17       H         -0.21658326  *  -2.57646347  *   0.89277179  *
    18       H         -2.77599543  *   0.14056833  *   1.34799167  *
    19       H         -2.72229945  *  -1.62345903  *   1.18079691  *
    20       H         -3.20594176  *  -0.62378107  *  -0.19365481  *

                             CARTESIAN COORDINATES

   1    C       -1.149961677     1.789131695    -0.477422274
   2    N       -0.480120546     0.510619320    -0.285928489
   3    C        0.823864920     0.286531177    -0.631050122
   4    C        1.177408727    -1.140351084    -0.354002061
   5    C        2.569804422    -1.550256993    -0.091907589
   6    O        0.338388857    -2.016314134    -1.115514631
   7    C       -0.117562685    -1.736388522     0.209241950
   8    C       -1.102552188    -0.611596639     0.209207102
   9    C       -2.483602260    -0.673544539     0.654244835
  10    H       -1.745668786     2.072575567     0.417004006
  11    H       -0.430505720     2.614021703    -0.664207633
  12    H       -1.844118178     1.750868360    -1.347991671
  13    H        1.491596781     1.038783978    -1.030581865
  14    H        3.205941756    -1.452372818    -0.993742720
  15    H        3.048886225    -0.962207627     0.708627919
  16    H        2.644301118    -2.614021703     0.208225018
  17    H       -0.216583260    -2.576463469     0.892771793
  18    H       -2.775995431     0.140568329     1.347991671
  19    H       -2.722299446    -1.623459032     1.180796906
  20    H       -3.205941756    -0.623781070    -0.193654810


           Empirical Formula: C7 H11 N O  =    20 atoms



      MOLECULAR POINT GROUP   :   C1  


          ALPHA EIGENVALUES  
 -39.11294 -33.19096 -28.41485 -27.90412 -26.59568 -24.14074 -23.91583 -21.46764
 -20.18718 -18.37690 -17.53542 -17.19688 -16.29367 -16.22521 -15.68079 -14.91462
 -14.87669 -14.50003 -14.20501 -13.84454 -13.54957 -13.37791 -12.02005 -11.55886
 -10.19436  -1.38691   0.38463   0.88029   1.26904   1.81333   2.04278   2.56490
   2.93697   3.12685   3.44778   3.73928   4.61306   4.66544   4.71385   4.84096
   4.89505   4.94138   5.17058   5.22383   5.48257   6.06830   6.33838


           BETA EIGENVALUES 
 -39.53253 -33.08450 -28.29094 -27.76943 -26.60145 -24.00355 -23.89354 -21.45321
 -20.09681 -18.33019 -17.43025 -17.03430 -16.34585 -16.16280 -15.55631 -14.81085
 -14.78501 -14.36647 -14.18089 -13.82659 -13.49501 -13.11560 -12.10819 -11.54093
  -2.17783  -0.46546   0.31118   1.04892   1.51154   1.93945   2.20010   2.68390
   3.06097   3.15300   3.45793   3.77417   4.59237   4.66865   4.79909   4.89131
   4.91986   4.97155   5.17188   5.22406   5.47047   6.09228   6.33844


              NET ATOMIC CHARGES AND DIPOLE CONTRIBUTIONS

  ATOM NO.   TYPE          CHARGE      No. of ELECS.   s-Pop       p-Pop       
    1          C          -0.308365        4.3084     1.07302     3.23535
    2          N          -0.031715        5.0317     1.50866     3.52306
    3          C          -0.001331        4.0013     1.14431     2.85702
    4          C           0.165043        3.8350     1.07554     2.75941
    5          C          -0.467211        4.4672     1.04913     3.41808
    6          O          -0.327731        6.3277     1.92265     4.40508
    7          C          -0.043645        4.0436     1.10643     2.93721
    8          C           0.182373        3.8176     1.11078     2.70685
    9          C          -0.487135        4.4871     1.04901     3.43812
   10          H           0.206425        0.7936     0.79358
   11          H           0.206229        0.7938     0.79377
   12          H           0.211792        0.7882     0.78821
   13          H           0.235302        0.7647     0.76470
   14          H           0.197049        0.8030     0.80295
   15          H           0.192646        0.8074     0.80735
   16          H           0.195079        0.8049     0.80492
   17          H           0.224934        0.7751     0.77507
   18          H           0.214665        0.7853     0.78534
   19          H           0.211934        0.7881     0.78807
   20          H           0.223662        0.7763     0.77634
 DIPOLE           X         Y         Z       TOTAL
 POINT-CHG.    -1.772     5.073     2.563     5.954
 HYBRID        -0.312    -0.032    -0.630     0.704
 SUM           -2.084     5.042     1.933     5.788


          ATOMIC ORBITAL ELECTRON POPULATIONS

     Atom    s        px        py        pz   
    1  C   1.07302   1.13936   0.88130   1.21469
    2  N   1.50866   1.12926   1.13646   1.25734
    3  C   1.14431   0.86420   1.05025   0.94257
    4  C   1.07554   0.93660   0.86426   0.95855
    5  C   1.04913   1.00147   1.20488   1.21173
    6  O   1.92265   1.49137   1.66843   1.24529
    7  C   1.10643   0.96433   1.05376   0.91912
    8  C   1.11078   0.97155   0.85219   0.88311
    9  C   1.04901   0.99846   1.24049   1.19917
   10  H   0.79358
   11  H   0.79377
   12  H   0.78821
   13  H   0.76470
   14  H   0.80295
   15  H   0.80735
   16  H   0.80492
   17  H   0.77507
   18  H   0.78534
   19  H   0.78807
   20  H   0.77634


                    (SZ)    =    0.500000
                    (S**2)  =    0.838076


          ATOMIC ORBITAL SPIN POPULATIONS

    Atom   Total    s     px     py     pz   
         Atomic
    1  C  0.0161  0.002  0.005  0.010 -0.001
    2  N -0.3204 -0.017 -0.044 -0.038 -0.221
    3  C  0.6926  0.019  0.076  0.060  0.538
    4  C -0.0353 -0.004  0.000 -0.019 -0.013
    5  C  0.0047  0.001  0.003  0.001  0.000
    6  O  0.0726  0.001  0.037  0.016  0.019
    7  C -0.0284 -0.003 -0.003 -0.007 -0.015
    8  C  0.6049  0.017  0.063  0.056  0.469
    9  C -0.0152 -0.004 -0.016 -0.002  0.007
   10  H -0.0069 -0.007
   11  H -0.0017 -0.002
   12  H -0.0116 -0.012
   13  H -0.0183 -0.018
   14  H  0.0002  0.000
   15  H -0.0007 -0.001
   16  H -0.0006 -0.001
   17  H  0.0033  0.003
   18  H  0.0165  0.017
   19  H  0.0021  0.002
   20  H  0.0259  0.026

 **********************
 *                    *
 * JOB ENDED NORMALLY *
 *                    *
 **********************



 TOTAL JOB TIME:             1.67 SECONDS

 == MOPAC DONE ==
