 *******************************************************************************
 **                                                                           **
 **                              MOPAC v23.2                                  **
 **                                                                           **
 *******************************************************************************
 **          Digital Object Identifier (DOI): 10.5281/zenodo.6511958          **
 **    Visit the DOI location for information on how to cite this program.    **
 *******************************************************************************

                              PM7 CALCULATION RESULTS

 *******************************************************************************
 *  CALCULATION DONE: (MAX THREADS = 40)             Fri Sep 19 21:38:55 2025  *
 *  PM7        - The PM7 Hamiltonian to be used
 *
 *
 *
 *                 CHARGE ON SYSTEM = +1
 *
 *
 *
 *  EPS=37.5   - USE ANDREAS KLAMT'S COSMO IMPLICIT SOLVATION MODEL
 *  1SCF       - DO 1 SCF AND THEN STOP 
 *  T=         - A TIME OF 172800.0 SECONDS REQUESTED
 *  DUMP=N     - RESTART FILE WRITTEN EVERY 7200.0 SECONDS REQUESTED
 *  RELSCF     - DEFAULT SCF CRITERION MULTIPLIED BY 0.0001
 *              (DEFAULT SCF CRITERION = 0.00010)
 *  GRADIENTS  - ALL GRADIENTS TO BE PRINTED
 *  DISP       - PRINT DISPERSION AND HYDROGEN BOND ENERGIES
 *******************************************************************************
PM7 1SCF GRADIENTS EPS=37.5 DISP RELSCF=0.0001 CHARGE=1
 Title: ASE calculation

   ATOM   CHEMICAL          X               Y               Z
  NUMBER   SYMBOL      (ANGSTROMS)     (ANGSTROMS)     (ANGSTROMS)

     1       C          2.59917394  *   0.03498086  *   0.43952986  *
     2       C          1.07496440  *  -0.08960063  *   0.39350066  *
     3       C          0.66659661  *  -1.23503382  *  -0.45544952  *
     4       C         -0.58293772  *  -1.79210395  *  -0.50003804  *
     5       C         -1.71436774  *  -1.36504929  *   0.36924055  *
     6       O         -2.12779828  *  -0.46456400  *  -0.65207551  *
     7       C         -2.07070099  *   0.93941847  *  -0.43177851  *
     8       C         -0.94904728  *   1.48558632  *   0.42520299  *
     9       C          0.44257043  *   1.21411511  *  -0.14575431  *
    10       H          3.07535385  *  -0.87659227  *   0.82768722  *
    11       H          2.91801942  *   0.85106078  *   1.10655416  *
    12       H          3.03867500  *   0.24313462  *  -0.54461728  *
    13       H          0.71837799  *  -0.25383222  *   1.45043165  *
    14       H          1.46851105  *  -1.68624679  *  -1.06941953  *
    15       H         -0.81529930  *  -2.59478516  *  -1.21156186  *
    16       H         -1.48012038  *  -0.92477906  *   1.34979097  *
    17       H         -2.52720737  *  -2.11673593  *   0.48746056  *
    18       H         -3.07535385  *   1.17717804  *   0.00240828  *
    19       H         -2.03885720  *   1.33144162  *  -1.47641718  *
    20       H         -1.02644157  *   1.13815036  *   1.47641718  *
    21       H         -1.09101263  *   2.59478516  *   0.51318182  *
    22       H          0.43476116  *   1.22051841  *  -1.25357556  *
    23       H          1.11480853  *   2.06431619  *   0.12196020  *



          CARTESIAN COORDINATES 

    NO.       ATOM           X           Y           Z

     1         C          2.5992      0.0350      0.4395
     2         C          1.0750     -0.0896      0.3935
     3         C          0.6666     -1.2350     -0.4554
     4         C         -0.5829     -1.7921     -0.5000
     5         C         -1.7144     -1.3650      0.3692
     6         O         -2.1278     -0.4646     -0.6521
     7         C         -2.0707      0.9394     -0.4318
     8         C         -0.9490      1.4856      0.4252
     9         C          0.4426      1.2141     -0.1458
    10         H          3.0754     -0.8766      0.8277
    11         H          2.9180      0.8511      1.1066
    12         H          3.0387      0.2431     -0.5446
    13         H          0.7184     -0.2538      1.4504
    14         H          1.4685     -1.6862     -1.0694
    15         H         -0.8153     -2.5948     -1.2116
    16         H         -1.4801     -0.9248      1.3498
    17         H         -2.5272     -2.1167      0.4875
    18         H         -3.0754      1.1772      0.0024
    19         H         -2.0389      1.3314     -1.4764
    20         H         -1.0264      1.1382      1.4764
    21         H         -1.0910      2.5948      0.5132
    22         H          0.4348      1.2205     -1.2536
    23         H          1.1148      2.0643      0.1220

 General Reference for PM7:
 "Optimization of Parameters for Semiempirical Methods VI: More Modifications to the 
 NDDO Approximations and Re-optimization of Parameters", J. J. P. Stewart, J. Mol. Mod., 1:32, 19 (2013)
 https://link.springer.com/article/10.1007/s00894-012-1667-x

           Empirical Formula: C8 H14 O  =    23 atoms



      MOLECULAR POINT GROUP   :   C1  


          UHF CALCULATION, NO. OF ALPHA ELECTRONS =   26
                           NO. OF BETA  ELECTRONS =   25
  SCF CRITERION =    0.1000E-07

 -------------------------------------------------------------------------------
 PM7 1SCF GRADIENTS EPS=37.5 DISP RELSCF=0.0001 CHARGE=1
 Title: ASE calculation



     1SCF WAS SPECIFIED, SO BFGS WAS NOT USED                 
     SCF FIELD WAS ACHIEVED                                   


                              PM7 CALCULATION
                                                       MOPAC v23.2 Linux
                                                       Fri Sep 19 21:39:04 2025




          FINAL HEAT OF FORMATION =        113.83400 KCAL/MOL =     476.28144 KJ/MOL

          TOTAL ENERGY            =     -33665.93918 KCAL/MOL = ELECTRONIC ENERGY + CORE-CORE REPULSION + SOLVATION ENERGY
          ENERGY OF ATOMS         =      33782.22825 KCAL/MOL
                              SUM =        116.28907 KCAL/MOL
          DISPERSION ENERGY       =         -2.45507 KCAL/MOL
                              SUM =        113.83400 KCAL/MOL = FINAL HEAT OF FORMATION

          VAN DER WAALS AREA      =        168.44 SQUARE ANGSTROMS


          TOTAL ENERGY            =      -1459.89330 EV
          ELECTRONIC ENERGY       =      -2419.32469 EV 
          CORE-CORE REPULSION     =        959.43139 EV

          DIELECTRIC ENERGY       =         -2.08999 EV
          COSMO AREA              =        168.44 SQUARE ANGSTROMS
          COSMO VOLUME            =        173.74 CUBIC ANGSTROMS

          GRADIENT NORM           =         20.18799          =       4.20949 PER ATOM
          IONIZATION POTENTIAL    =         10.867351 EV
          ALPHA SOMO LUMO (EV)    =        -10.963 -1.032
          BETA  SOMO LUMO (EV)    =        -10.867 -3.481
          NO. OF ALPHA ELECTRONS  =         26
          NO. OF BETA  ELECTRONS  =         25
          MOLECULAR WEIGHT        =        126.1980         POINT GROUP:  C1  

          MOLECULAR DIMENSIONS (Angstroms)

            Atom       Atom       Distance
            H    18    H    10     6.53684
            H    21    H    15     5.21405
            H    16    H    22     3.51651


          SCF CALCULATIONS        =          2

          WALL-CLOCK TIME         =      9.469 SECONDS
          COMPUTATION TIME        =      1.800 SECONDS

          LARGEST ATOMIC GRADIENTS

          Atom     Label                     Cartesian Gradients           Cartesian Coordinates       |Gradient|
                                           X          Y          Z        X          Y          Z

             4       C                 -12.092     -1.683      0.452   -0.58294   -1.79210   -0.50004     12.217
             3       C                   9.680      6.516      1.281    0.66660   -1.23503   -0.45545     11.739
             6       O                   2.734     -3.787     -2.765   -2.12780   -0.46456   -0.65208      5.428
             7       C                  -3.398      2.780      1.040   -2.07070    0.93942   -0.43178      4.512
             1       C                  -3.840     -1.436     -1.578    2.59917    0.03498    0.43953      4.393
             5       C                  -0.877     -2.941      2.777   -1.71437   -1.36505    0.36924      4.139
             9       C                  -2.264     -1.099     -0.983    0.44257    1.21412   -0.14575      2.702
            14       H                   1.692     -0.652     -0.109    1.46851   -1.68625   -1.06942      1.816
             2       C                   0.102     -1.480     -0.914    1.07496   -0.08960    0.39350      1.742
            10       H                   1.365      0.478      0.955    3.07535   -0.87659    0.82769      1.733



       FINAL  POINT  AND  DERIVATIVES

   PARAMETER     ATOM    TYPE            VALUE        GRADIENT
      1          1  C    CARTESIAN X     2.599174     -3.839559  KCAL/ANGSTROM
      2          1  C    CARTESIAN Y     0.034981     -1.435601  KCAL/ANGSTROM
      3          1  C    CARTESIAN Z     0.439530     -1.578295  KCAL/ANGSTROM
      4          2  C    CARTESIAN X     1.074964      0.102376  KCAL/ANGSTROM
      5          2  C    CARTESIAN Y    -0.089601     -1.479742  KCAL/ANGSTROM
      6          2  C    CARTESIAN Z     0.393501     -0.913681  KCAL/ANGSTROM
      7          3  C    CARTESIAN X     0.666597      9.679571  KCAL/ANGSTROM
      8          3  C    CARTESIAN Y    -1.235034      6.516149  KCAL/ANGSTROM
      9          3  C    CARTESIAN Z    -0.455450      1.281042  KCAL/ANGSTROM
     10          4  C    CARTESIAN X    -0.582938    -12.092246  KCAL/ANGSTROM
     11          4  C    CARTESIAN Y    -1.792104     -1.682774  KCAL/ANGSTROM
     12          4  C    CARTESIAN Z    -0.500038      0.452478  KCAL/ANGSTROM
     13          5  C    CARTESIAN X    -1.714368     -0.876719  KCAL/ANGSTROM
     14          5  C    CARTESIAN Y    -1.365049     -2.941206  KCAL/ANGSTROM
     15          5  C    CARTESIAN Z     0.369241      2.777222  KCAL/ANGSTROM
     16          6  O    CARTESIAN X    -2.127798      2.734217  KCAL/ANGSTROM
     17          6  O    CARTESIAN Y    -0.464564     -3.786770  KCAL/ANGSTROM
     18          6  O    CARTESIAN Z    -0.652076     -2.764700  KCAL/ANGSTROM
     19          7  C    CARTESIAN X    -2.070701     -3.397878  KCAL/ANGSTROM
     20          7  C    CARTESIAN Y     0.939418      2.779914  KCAL/ANGSTROM
     21          7  C    CARTESIAN Z    -0.431779      1.039618  KCAL/ANGSTROM
     22          8  C    CARTESIAN X    -0.949047      0.027387  KCAL/ANGSTROM
     23          8  C    CARTESIAN Y     1.485586     -0.673276  KCAL/ANGSTROM
     24          8  C    CARTESIAN Z     0.425203      0.516978  KCAL/ANGSTROM
     25          9  C    CARTESIAN X     0.442570     -2.264477  KCAL/ANGSTROM
     26          9  C    CARTESIAN Y     1.214115     -1.099026  KCAL/ANGSTROM
     27          9  C    CARTESIAN Z    -0.145754     -0.983337  KCAL/ANGSTROM
     28         10  H    CARTESIAN X     3.075354      1.365169  KCAL/ANGSTROM
     29         10  H    CARTESIAN Y    -0.876592      0.477523  KCAL/ANGSTROM
     30         10  H    CARTESIAN Z     0.827687      0.954950  KCAL/ANGSTROM
     31         11  H    CARTESIAN X     2.918019      1.397377  KCAL/ANGSTROM
     32         11  H    CARTESIAN Y     0.851061      0.267113  KCAL/ANGSTROM
     33         11  H    CARTESIAN Z     1.106554      0.672425  KCAL/ANGSTROM
     34         12  H    CARTESIAN X     3.038675      1.574055  KCAL/ANGSTROM
     35         12  H    CARTESIAN Y     0.243135      0.479963  KCAL/ANGSTROM
     36         12  H    CARTESIAN Z    -0.544617      0.416225  KCAL/ANGSTROM
     37         13  H    CARTESIAN X     0.718378      0.636154  KCAL/ANGSTROM
     38         13  H    CARTESIAN Y    -0.253832      0.357701  KCAL/ANGSTROM
     39         13  H    CARTESIAN Z     1.450432      0.098993  KCAL/ANGSTROM
     40         14  H    CARTESIAN X     1.468511      1.691594  KCAL/ANGSTROM
     41         14  H    CARTESIAN Y    -1.686247     -0.651853  KCAL/ANGSTROM
     42         14  H    CARTESIAN Z    -1.069420     -0.109372  KCAL/ANGSTROM
     43         15  H    CARTESIAN X    -0.815299     -0.969923  KCAL/ANGSTROM
     44         15  H    CARTESIAN Y    -2.594785     -0.491923  KCAL/ANGSTROM
     45         15  H    CARTESIAN Z    -1.211562     -1.155571  KCAL/ANGSTROM
     46         16  H    CARTESIAN X    -1.480120     -0.137968  KCAL/ANGSTROM
     47         16  H    CARTESIAN Y    -0.924779     -0.015834  KCAL/ANGSTROM
     48         16  H    CARTESIAN Z     1.349791     -0.765241  KCAL/ANGSTROM
     49         17  H    CARTESIAN X    -2.527207      0.178445  KCAL/ANGSTROM
     50         17  H    CARTESIAN Y    -2.116736     -0.526391  KCAL/ANGSTROM
     51         17  H    CARTESIAN Z     0.487461      0.122334  KCAL/ANGSTROM
     52         18  H    CARTESIAN X    -3.075354      0.980528  KCAL/ANGSTROM
     53         18  H    CARTESIAN Y     1.177178      0.396877  KCAL/ANGSTROM
     54         18  H    CARTESIAN Z     0.002408     -0.141169  KCAL/ANGSTROM
     55         19  H    CARTESIAN X    -2.038857      0.152089  KCAL/ANGSTROM
     56         19  H    CARTESIAN Y     1.331442      0.018002  KCAL/ANGSTROM
     57         19  H    CARTESIAN Z    -1.476417      0.071547  KCAL/ANGSTROM
     58         20  H    CARTESIAN X    -1.026442      0.287125  KCAL/ANGSTROM
     59         20  H    CARTESIAN Y     1.138150      0.623036  KCAL/ANGSTROM
     60         20  H    CARTESIAN Z     1.476417     -0.107634  KCAL/ANGSTROM
     61         21  H    CARTESIAN X    -1.091013      0.774219  KCAL/ANGSTROM
     62         21  H    CARTESIAN Y     2.594785      1.271894  KCAL/ANGSTROM
     63         21  H    CARTESIAN Z     0.513182      0.237132  KCAL/ANGSTROM
     64         22  H    CARTESIAN X     0.434761      0.657703  KCAL/ANGSTROM
     65         22  H    CARTESIAN Y     1.220518      0.731690  KCAL/ANGSTROM
     66         22  H    CARTESIAN Z    -1.253576     -0.295123  KCAL/ANGSTROM
     67         23  H    CARTESIAN X     1.114809      1.340758  KCAL/ANGSTROM
     68         23  H    CARTESIAN Y     2.064316      0.864534  KCAL/ANGSTROM
     69         23  H    CARTESIAN Z     0.121960      0.173176  KCAL/ANGSTROM




   ATOM   CHEMICAL          X               Y               Z
  NUMBER   SYMBOL      (ANGSTROMS)     (ANGSTROMS)     (ANGSTROMS)

     1       C          2.59917394  *   0.03498086  *   0.43952986  *
     2       C          1.07496440  *  -0.08960063  *   0.39350066  *
     3       C          0.66659661  *  -1.23503382  *  -0.45544952  *
     4       C         -0.58293772  *  -1.79210395  *  -0.50003804  *
     5       C         -1.71436774  *  -1.36504929  *   0.36924055  *
     6       O         -2.12779828  *  -0.46456400  *  -0.65207551  *
     7       C         -2.07070099  *   0.93941847  *  -0.43177851  *
     8       C         -0.94904728  *   1.48558632  *   0.42520299  *
     9       C          0.44257043  *   1.21411511  *  -0.14575431  *
    10       H          3.07535385  *  -0.87659227  *   0.82768722  *
    11       H          2.91801942  *   0.85106078  *   1.10655416  *
    12       H          3.03867500  *   0.24313462  *  -0.54461728  *
    13       H          0.71837799  *  -0.25383222  *   1.45043165  *
    14       H          1.46851105  *  -1.68624679  *  -1.06941953  *
    15       H         -0.81529930  *  -2.59478516  *  -1.21156186  *
    16       H         -1.48012038  *  -0.92477906  *   1.34979097  *
    17       H         -2.52720737  *  -2.11673593  *   0.48746056  *
    18       H         -3.07535385  *   1.17717804  *   0.00240828  *
    19       H         -2.03885720  *   1.33144162  *  -1.47641718  *
    20       H         -1.02644157  *   1.13815036  *   1.47641718  *
    21       H         -1.09101263  *   2.59478516  *   0.51318182  *
    22       H          0.43476116  *   1.22051841  *  -1.25357556  *
    23       H          1.11480853  *   2.06431619  *   0.12196020  *

                             CARTESIAN COORDINATES

   1    C        2.599173940     0.034980857     0.439529862
   2    C        1.074964397    -0.089600631     0.393500658
   3    C        0.666596605    -1.235033819    -0.455449518
   4    C       -0.582937715    -1.792103952    -0.500038038
   5    C       -1.714367745    -1.365049293     0.369240549
   6    O       -2.127798280    -0.464563999    -0.652075511
   7    C       -2.070700990     0.939418465    -0.431778509
   8    C       -0.949047284     1.485586318     0.425202994
   9    C        0.442570426     1.214115106    -0.145754310
  10    H        3.075353854    -0.876592267     0.827687219
  11    H        2.918019423     0.851060777     1.106554159
  12    H        3.038675000     0.243134621    -0.544617282
  13    H        0.718377986    -0.253832219     1.450431646
  14    H        1.468511051    -1.686246789    -1.069419526
  15    H       -0.815299302    -2.594785163    -1.211561858
  16    H       -1.480120377    -0.924779060     1.349790970
  17    H       -2.527207373    -2.116735930     0.487460561
  18    H       -3.075353854     1.177178037     0.002408280
  19    H       -2.038857204     1.331441622    -1.476417185
  20    H       -1.026441572     1.138150364     1.476417185
  21    H       -1.091012630     2.594785163     0.513181825
  22    H        0.434761159     1.220518406    -1.253575565
  23    H        1.114808528     2.064316187     0.121960197


           Empirical Formula: C8 H14 O  =    23 atoms



      MOLECULAR POINT GROUP   :   C1  


          ALPHA EIGENVALUES  
 -33.92215 -30.50337 -28.72490 -27.13045 -25.36179 -23.87922 -21.74191 -20.85515
 -19.25886 -18.43513 -18.26003 -17.20413 -16.36358 -15.68875 -15.51663 -15.05174
 -14.30978 -13.80307 -13.59321 -13.17278 -13.05534 -12.77417 -12.32657 -12.03843
 -11.94129 -10.96305  -1.03238   0.45133   2.24190   2.87805   3.10178   3.26738
   3.37146   3.63377   3.87282   4.13761   4.55447   4.64043   4.87650   4.96702
   5.00208   5.14940   5.19513   5.31507   5.45982   5.53148   5.65246   5.91181
   6.08801   6.70422


           BETA EIGENVALUES 
 -32.01440 -30.05595 -28.61801 -26.79324 -25.20981 -23.68340 -21.65029 -20.74365
 -19.10393 -18.27974 -17.73097 -16.94085 -16.17180 -15.54866 -15.22606 -14.79606
 -14.15485 -13.61029 -13.53122 -13.01405 -12.90410 -12.40960 -12.20939 -11.91065
 -10.86735  -3.48053  -0.30412   0.75798   2.41814   2.94994   3.16344   3.32535
   3.43803   3.67122   3.90851   4.17714   4.57558   4.68639   4.89502   5.00204
   5.05653   5.16390   5.21072   5.32236   5.47290   5.53222   5.66066   5.91361
   6.09048   6.70428


              NET ATOMIC CHARGES AND DIPOLE CONTRIBUTIONS

  ATOM NO.   TYPE          CHARGE      No. of ELECS.   s-Pop       p-Pop       
    1          C          -0.459292        4.4593     1.05674     3.40255
    2          C          -0.150318        4.1503     1.06072     3.08960
    3          C           0.058031        3.9420     1.14083     2.80114
    4          C          -0.217248        4.2172     1.10835     3.10890
    5          C          -0.120342        4.1203     1.11634     3.00401
    6          O           0.057651        5.9423     1.90004     4.04231
    7          C          -0.160628        4.1606     1.11637     3.04426
    8          C          -0.313482        4.3135     1.06303     3.25046
    9          C          -0.277200        4.2772     1.06320     3.21400
   10          H           0.162748        0.8373     0.83725
   11          H           0.164869        0.8351     0.83513
   12          H           0.162907        0.8371     0.83709
   13          H           0.183371        0.8166     0.81663
   14          H           0.191164        0.8088     0.80884
   15          H           0.202451        0.7975     0.79755
   16          H           0.188430        0.8116     0.81157
   17          H           0.214554        0.7854     0.78545
   18          H           0.211696        0.7883     0.78830
   19          H           0.196830        0.8032     0.80317
   20          H           0.174057        0.8259     0.82594
   21          H           0.192336        0.8077     0.80766
   22          H           0.163371        0.8366     0.83663
   23          H           0.174043        0.8260     0.82596
 DIPOLE           X         Y         Z       TOTAL
 POINT-CHG.    -2.675    -0.482     0.292     2.734
 HYBRID        -0.222     0.008    -0.166     0.277
 SUM           -2.897    -0.474     0.125     2.939


          ATOMIC ORBITAL ELECTRON POPULATIONS

     Atom    s        px        py        pz   
    1  C   1.05674   1.00894   1.19690   1.19671
    2  C   1.06072   1.02300   0.97529   1.09131
    3  C   1.14083   1.02235   0.90329   0.87550
    4  C   1.10835   0.94120   1.05242   1.11529
    5  C   1.11634   1.02396   0.97055   1.00949
    6  O   1.90004   1.37392   1.24380   1.42459
    7  C   1.11637   1.10072   0.78356   1.15997
    8  C   1.06303   0.97728   1.17387   1.09931
    9  C   1.06320   1.02324   1.04865   1.14210
   10  H   0.83725
   11  H   0.83513
   12  H   0.83709
   13  H   0.81663
   14  H   0.80884
   15  H   0.79755
   16  H   0.81157
   17  H   0.78545
   18  H   0.78830
   19  H   0.80317
   20  H   0.82594
   21  H   0.80766
   22  H   0.83663
   23  H   0.82596


                    (SZ)    =    0.500000
                    (S**2)  =    0.780371


          ATOMIC ORBITAL SPIN POPULATIONS

    Atom   Total    s     px     py     pz   
         Atomic
    1  C  0.0005  0.000  0.000  0.000  0.000
    2  C -0.0094 -0.002 -0.001 -0.008  0.001
    3  C  0.2790  0.006  0.012  0.095  0.165
    4  C  0.0371  0.005  0.051  0.039 -0.058
    5  C -0.0037 -0.003  0.023 -0.018 -0.005
    6  O  0.6330  0.014  0.566  0.035  0.018
    7  C -0.0281 -0.005  0.008 -0.031 -0.000
    8  C  0.0175  0.002  0.010  0.002  0.004
    9  C  0.0163  0.004  0.000  0.012  0.001
   10  H -0.0001 -0.000
   11  H -0.0001 -0.000
   12  H  0.0000  0.000
   13  H  0.0107  0.011
   14  H -0.0044 -0.004
   15  H  0.0007  0.001
   16  H -0.0011 -0.001
   17  H  0.0132  0.013
   18  H  0.0394  0.039
   19  H  0.0010  0.001
   20  H -0.0009 -0.001
   21  H -0.0022 -0.002
   22  H -0.0005 -0.001
   23  H  0.0022  0.002

 **********************
 *                    *
 * JOB ENDED NORMALLY *
 *                    *
 **********************



 TOTAL JOB TIME:             9.87 SECONDS

 == MOPAC DONE ==
