 *******************************************************************************
 **                                                                           **
 **                              MOPAC v23.2                                  **
 **                                                                           **
 *******************************************************************************
 **          Digital Object Identifier (DOI): 10.5281/zenodo.6511958          **
 **    Visit the DOI location for information on how to cite this program.    **
 *******************************************************************************

                              PM7 CALCULATION RESULTS

 *******************************************************************************
 *  CALCULATION DONE: (MAX THREADS = 40)             Fri Sep 19 21:34:39 2025  *
 *  PM7        - The PM7 Hamiltonian to be used
 *
 *
 *
 *                 CHARGE ON SYSTEM = +1
 *
 *
 *
 *  EPS=37.5   - USE ANDREAS KLAMT'S COSMO IMPLICIT SOLVATION MODEL
 *  1SCF       - DO 1 SCF AND THEN STOP 
 *  T=         - A TIME OF 172800.0 SECONDS REQUESTED
 *  DUMP=N     - RESTART FILE WRITTEN EVERY 7200.0 SECONDS REQUESTED
 *  RELSCF     - DEFAULT SCF CRITERION MULTIPLIED BY 0.0001
 *              (DEFAULT SCF CRITERION = 0.00010)
 *  GRADIENTS  - ALL GRADIENTS TO BE PRINTED
 *  DISP       - PRINT DISPERSION AND HYDROGEN BOND ENERGIES
 *******************************************************************************
PM7 1SCF GRADIENTS EPS=37.5 DISP RELSCF=0.0001 CHARGE=1
 Title: ASE calculation

   ATOM   CHEMICAL          X               Y               Z
  NUMBER   SYMBOL      (ANGSTROMS)     (ANGSTROMS)     (ANGSTROMS)

     1       C         -3.09807257  *  -0.26649053  *   0.43011897  *
     2       C         -2.41739854  *   0.94813356  *  -0.18655745  *
     3       C         -0.98088490  *   1.09592259  *   0.26486328  *
     4       O         -0.33537180  *  -0.03945689  *  -0.44766898  *
     5       C          0.92744033  *  -0.21790175  *  -0.28353984  *
     6       C          2.01097511  *   0.45436403  *   0.43446791  *
     7       C          3.14348884  *  -0.28574046  *   0.16213869  *
     8       N          2.82538947  *  -1.37461309  *  -0.67515591  *
     9       N          1.51968077  *  -1.32299093  *  -0.93041892  *
    10       H         -3.01670284  *  -0.28534794  *   1.52454582  *
    11       H         -2.69516248  *  -1.21127249  *   0.04844182  *
    12       H         -4.17646066  *  -0.27391419  *   0.19941523  *
    13       H         -2.97292330  *   1.87808544  *   0.09169955  *
    14       H         -2.48581257  *   0.90737590  *  -1.29775684  *
    15       H         -0.83055150  *   0.93511389  *   1.34723812  *
    16       H         -0.49543243  *   2.02523936  *  -0.08090351  *
    17       H          1.91404639  *   1.34149515  *   1.03852283  *
    18       H          4.17646066  *  -0.14969910  *   0.48421357  *
    19       H          1.07601850  *  -2.02523936  *  -1.52454582  *



          CARTESIAN COORDINATES 

    NO.       ATOM           X           Y           Z

     1         C         -3.0981     -0.2665      0.4301
     2         C         -2.4174      0.9481     -0.1866
     3         C         -0.9809      1.0959      0.2649
     4         O         -0.3354     -0.0395     -0.4477
     5         C          0.9274     -0.2179     -0.2835
     6         C          2.0110      0.4544      0.4345
     7         C          3.1435     -0.2857      0.1621
     8         N          2.8254     -1.3746     -0.6752
     9         N          1.5197     -1.3230     -0.9304
    10         H         -3.0167     -0.2853      1.5245
    11         H         -2.6952     -1.2113      0.0484
    12         H         -4.1765     -0.2739      0.1994
    13         H         -2.9729      1.8781      0.0917
    14         H         -2.4858      0.9074     -1.2978
    15         H         -0.8306      0.9351      1.3472
    16         H         -0.4954      2.0252     -0.0809
    17         H          1.9140      1.3415      1.0385
    18         H          4.1765     -0.1497      0.4842
    19         H          1.0760     -2.0252     -1.5245

 General Reference for PM7:
 "Optimization of Parameters for Semiempirical Methods VI: More Modifications to the 
 NDDO Approximations and Re-optimization of Parameters", J. J. P. Stewart, J. Mol. Mod., 1:32, 19 (2013)
 https://link.springer.com/article/10.1007/s00894-012-1667-x

           Empirical Formula: C6 H10 N2 O  =    19 atoms



      MOLECULAR POINT GROUP   :   C1  


          UHF CALCULATION, NO. OF ALPHA ELECTRONS =   25
                           NO. OF BETA  ELECTRONS =   24
  SCF CRITERION =    0.1000E-07

 -------------------------------------------------------------------------------
 PM7 1SCF GRADIENTS EPS=37.5 DISP RELSCF=0.0001 CHARGE=1
 Title: ASE calculation



     1SCF WAS SPECIFIED, SO BFGS WAS NOT USED                 
     SCF FIELD WAS ACHIEVED                                   


                              PM7 CALCULATION
                                                       MOPAC v23.2 Linux
                                                       Fri Sep 19 21:34:41 2025




          FINAL HEAT OF FORMATION =        136.87522 KCAL/MOL =     572.68590 KJ/MOL

          TOTAL ENERGY            =     -35341.65751 KCAL/MOL = ELECTRONIC ENERGY + CORE-CORE REPULSION + SOLVATION ENERGY
          ENERGY OF ATOMS         =      35480.40871 KCAL/MOL
                              SUM =        138.75120 KCAL/MOL
          DISPERSION ENERGY       =         -1.87619 KCAL/MOL
          MM CORR. FOR -CO-NH-    =          0.00020 KCAL/MOL
                              SUM =        136.87522 KCAL/MOL = FINAL HEAT OF FORMATION

          VAN DER WAALS AREA      =        170.04 SQUARE ANGSTROMS


          TOTAL ENERGY            =      -1532.55932 EV
          ELECTRONIC ENERGY       =      -2147.03486 EV 
          CORE-CORE REPULSION     =        614.47554 EV

          DIELECTRIC ENERGY       =         -2.38034 EV
          COSMO AREA              =        170.04 SQUARE ANGSTROMS
          COSMO VOLUME            =        162.56 CUBIC ANGSTROMS

          GRADIENT NORM           =         12.98421          =       2.97878 PER ATOM
          IONIZATION POTENTIAL    =         10.950037 EV
          ALPHA SOMO LUMO (EV)    =        -10.950 -1.300
          BETA  SOMO LUMO (EV)    =        -11.663 -3.437
          NO. OF ALPHA ELECTRONS  =         25
          NO. OF BETA  ELECTRONS  =         24
          MOLECULAR WEIGHT        =        126.1578         POINT GROUP:  C1  

          MOLECULAR DIMENSIONS (Angstroms)

            Atom       Atom       Distance
            H    18    H    12     8.35870
            H    19    H    16     4.33883
            H    10    H    14     3.07366


          SCF CALCULATIONS        =          2

          WALL-CLOCK TIME         =      2.766 SECONDS
          COMPUTATION TIME        =      1.319 SECONDS

          LARGEST ATOMIC GRADIENTS

          Atom     Label                     Cartesian Gradients           Cartesian Coordinates       |Gradient|
                                           X          Y          Z        X          Y          Z

             8       N                   5.672     -2.003     -0.138    2.82539   -1.37461   -0.67516      6.017
             1       C                   5.174      0.875      0.087   -3.09807   -0.26649    0.43012      5.248
             9       N                  -4.650     -1.450     -1.690    1.51968   -1.32299   -0.93042      5.155
             3       C                  -1.545      3.154      1.516   -0.98088    1.09592    0.26486      3.825
             6       C                  -3.483     -0.351     -1.068    2.01098    0.45436    0.43447      3.660
             5       C                  -0.886      2.752      1.769    0.92744   -0.21790   -0.28354      3.389
            19       H                   2.476      1.433      1.724    1.07602   -2.02524   -1.52455      3.340
            18       H                   2.032     -0.699     -0.138    4.17646   -0.14970    0.48421      2.153
             2       C                   1.809     -0.868     -0.434   -2.41740    0.94813   -0.18656      2.053
            11       H                  -1.997     -0.253     -0.276   -2.69516   -1.21127    0.04844      2.032



       FINAL  POINT  AND  DERIVATIVES

   PARAMETER     ATOM    TYPE            VALUE        GRADIENT
      1          1  C    CARTESIAN X    -3.098073      5.173753  KCAL/ANGSTROM
      2          1  C    CARTESIAN Y    -0.266491      0.875243  KCAL/ANGSTROM
      3          1  C    CARTESIAN Z     0.430119      0.087146  KCAL/ANGSTROM
      4          2  C    CARTESIAN X    -2.417399      1.809286  KCAL/ANGSTROM
      5          2  C    CARTESIAN Y     0.948134     -0.867516  KCAL/ANGSTROM
      6          2  C    CARTESIAN Z    -0.186557     -0.434268  KCAL/ANGSTROM
      7          3  C    CARTESIAN X    -0.980885     -1.545208  KCAL/ANGSTROM
      8          3  C    CARTESIAN Y     1.095923      3.154037  KCAL/ANGSTROM
      9          3  C    CARTESIAN Z     0.264863      1.515541  KCAL/ANGSTROM
     10          4  O    CARTESIAN X    -0.335372      1.304091  KCAL/ANGSTROM
     11          4  O    CARTESIAN Y    -0.039457     -0.192273  KCAL/ANGSTROM
     12          4  O    CARTESIAN Z    -0.447669     -0.217670  KCAL/ANGSTROM
     13          5  C    CARTESIAN X     0.927440     -0.885951  KCAL/ANGSTROM
     14          5  C    CARTESIAN Y    -0.217902      2.751993  KCAL/ANGSTROM
     15          5  C    CARTESIAN Z    -0.283540      1.769243  KCAL/ANGSTROM
     16          6  C    CARTESIAN X     2.010975     -3.483484  KCAL/ANGSTROM
     17          6  C    CARTESIAN Y     0.454364     -0.350983  KCAL/ANGSTROM
     18          6  C    CARTESIAN Z     0.434468     -1.068251  KCAL/ANGSTROM
     19          7  C    CARTESIAN X     3.143489     -0.238806  KCAL/ANGSTROM
     20          7  C    CARTESIAN Y    -0.285740     -0.078088  KCAL/ANGSTROM
     21          7  C    CARTESIAN Z     0.162139     -0.236769  KCAL/ANGSTROM
     22          8  N    CARTESIAN X     2.825389      5.672394  KCAL/ANGSTROM
     23          8  N    CARTESIAN Y    -1.374613     -2.003360  KCAL/ANGSTROM
     24          8  N    CARTESIAN Z    -0.675156     -0.137665  KCAL/ANGSTROM
     25          9  N    CARTESIAN X     1.519681     -4.649512  KCAL/ANGSTROM
     26          9  N    CARTESIAN Y    -1.322991     -1.450264  KCAL/ANGSTROM
     27          9  N    CARTESIAN Z    -0.930419     -1.690068  KCAL/ANGSTROM
     28         10  H    CARTESIAN X    -3.016703     -1.562316  KCAL/ANGSTROM
     29         10  H    CARTESIAN Y    -0.285348     -0.415704  KCAL/ANGSTROM
     30         10  H    CARTESIAN Z     1.524546      0.382738  KCAL/ANGSTROM
     31         11  H    CARTESIAN X    -2.695162     -1.997281  KCAL/ANGSTROM
     32         11  H    CARTESIAN Y    -1.211272     -0.253392  KCAL/ANGSTROM
     33         11  H    CARTESIAN Z     0.048442     -0.276365  KCAL/ANGSTROM
     34         12  H    CARTESIAN X    -4.176461     -1.578475  KCAL/ANGSTROM
     35         12  H    CARTESIAN Y    -0.273914     -0.217846  KCAL/ANGSTROM
     36         12  H    CARTESIAN Z     0.199415      0.069084  KCAL/ANGSTROM
     37         13  H    CARTESIAN X    -2.972923     -1.328883  KCAL/ANGSTROM
     38         13  H    CARTESIAN Y     1.878085      0.208703  KCAL/ANGSTROM
     39         13  H    CARTESIAN Z     0.091700      0.336213  KCAL/ANGSTROM
     40         14  H    CARTESIAN X    -2.485813     -1.025384  KCAL/ANGSTROM
     41         14  H    CARTESIAN Y     0.907376      0.110734  KCAL/ANGSTROM
     42         14  H    CARTESIAN Z    -1.297757     -0.655477  KCAL/ANGSTROM
     43         15  H    CARTESIAN X    -0.830552     -0.797970  KCAL/ANGSTROM
     44         15  H    CARTESIAN Y     0.935114     -0.637106  KCAL/ANGSTROM
     45         15  H    CARTESIAN Z     1.347238     -0.103045  KCAL/ANGSTROM
     46         16  H    CARTESIAN X    -0.495432     -0.432820  KCAL/ANGSTROM
     47         16  H    CARTESIAN Y     2.025239     -0.331934  KCAL/ANGSTROM
     48         16  H    CARTESIAN Z    -0.080904     -0.419207  KCAL/ANGSTROM
     49         17  H    CARTESIAN X     1.914046      1.059180  KCAL/ANGSTROM
     50         17  H    CARTESIAN Y     1.341495     -1.036383  KCAL/ANGSTROM
     51         17  H    CARTESIAN Z     1.038523     -0.507965  KCAL/ANGSTROM
     52         18  H    CARTESIAN X     4.176461      2.031654  KCAL/ANGSTROM
     53         18  H    CARTESIAN Y    -0.149699     -0.699343  KCAL/ANGSTROM
     54         18  H    CARTESIAN Z     0.484214     -0.137617  KCAL/ANGSTROM
     55         19  H    CARTESIAN X     1.076019      2.475731  KCAL/ANGSTROM
     56         19  H    CARTESIAN Y    -2.025239      1.433480  KCAL/ANGSTROM
     57         19  H    CARTESIAN Z    -1.524546      1.724400  KCAL/ANGSTROM




   ATOM   CHEMICAL          X               Y               Z
  NUMBER   SYMBOL      (ANGSTROMS)     (ANGSTROMS)     (ANGSTROMS)

     1       C         -3.09807257  *  -0.26649053  *   0.43011897  *
     2       C         -2.41739854  *   0.94813356  *  -0.18655745  *
     3       C         -0.98088490  *   1.09592259  *   0.26486328  *
     4       O         -0.33537180  *  -0.03945689  *  -0.44766898  *
     5       C          0.92744033  *  -0.21790175  *  -0.28353984  *
     6       C          2.01097511  *   0.45436403  *   0.43446791  *
     7       C          3.14348884  *  -0.28574046  *   0.16213869  *
     8       N          2.82538947  *  -1.37461309  *  -0.67515591  *
     9       N          1.51968077  *  -1.32299093  *  -0.93041892  *
    10       H         -3.01670284  *  -0.28534794  *   1.52454582  *
    11       H         -2.69516248  *  -1.21127249  *   0.04844182  *
    12       H         -4.17646066  *  -0.27391419  *   0.19941523  *
    13       H         -2.97292330  *   1.87808544  *   0.09169955  *
    14       H         -2.48581257  *   0.90737590  *  -1.29775684  *
    15       H         -0.83055150  *   0.93511389  *   1.34723812  *
    16       H         -0.49543243  *   2.02523936  *  -0.08090351  *
    17       H          1.91404639  *   1.34149515  *   1.03852283  *
    18       H          4.17646066  *  -0.14969910  *   0.48421357  *
    19       H          1.07601850  *  -2.02523936  *  -1.52454582  *

                             CARTESIAN COORDINATES

   1    C       -3.098072567    -0.266490532     0.430118972
   2    C       -2.417398538     0.948133558    -0.186557453
   3    C       -0.980884902     1.095922592     0.264863280
   4    O       -0.335371804    -0.039456894    -0.447668980
   5    C        0.927440335    -0.217901751    -0.283539841
   6    C        2.010975106     0.454364027     0.434467911
   7    C        3.143488838    -0.285740464     0.162138689
   8    N        2.825389467    -1.374613091    -0.675155915
   9    N        1.519680773    -1.322990932    -0.930418917
  10    H       -3.016702837    -0.285347935     1.524545820
  11    H       -2.695162484    -1.211272489     0.048441818
  12    H       -4.176460661    -0.273914191     0.199415228
  13    H       -2.972923303     1.878085442     0.091699548
  14    H       -2.485812573     0.907375902    -1.297756842
  15    H       -0.830551504     0.935113886     1.347238119
  16    H       -0.495432431     2.025239357    -0.080903506
  17    H        1.914046390     1.341495154     1.038522830
  18    H        4.176460661    -0.149699098     0.484213568
  19    H        1.076018501    -2.025239357    -1.524545820


           Empirical Formula: C6 H10 N2 O  =    19 atoms



      MOLECULAR POINT GROUP   :   C1  


          ALPHA EIGENVALUES  
 -41.81437 -33.88571 -31.45415 -29.04493 -28.52896 -24.78930 -22.83132 -22.29332
 -20.66543 -20.31065 -18.14549 -17.81035 -16.81800 -16.50363 -16.09420 -15.25339
 -15.23699 -14.57015 -14.04851 -13.41170 -12.80320 -12.55813 -12.14548 -11.85803
 -10.95004  -1.30044  -0.83103  -0.42744   0.71639   1.35106   1.66434   2.53786
   3.29897   3.58621   3.76976   3.96819   4.77752   4.85631   4.90759   4.98871
   5.15395   5.20077   5.61184   5.78590   6.05818   6.83234


           BETA EIGENVALUES 
 -41.43511 -33.08480 -30.98805 -28.95173 -28.15975 -24.74438 -22.71037 -22.17952
 -20.60451 -20.11753 -17.75047 -17.51759 -16.61350 -16.13264 -15.91726 -15.20593
 -14.96366 -14.17163 -13.62467 -12.98333 -12.59787 -12.51155 -12.12802 -11.66258
  -3.43666  -0.63896  -0.13778   0.18141   0.89517   1.48186   1.82401   2.67199
   3.33260   3.67108   3.90987   4.00086   4.78879   4.87045   4.89133   5.03534
   5.15549   5.21345   5.61192   5.78577   6.05755   6.83236


              NET ATOMIC CHARGES AND DIPOLE CONTRIBUTIONS

  ATOM NO.   TYPE          CHARGE      No. of ELECS.   s-Pop       p-Pop       
    1          C          -0.443373        4.4434     1.05134     3.39204
    2          C          -0.286812        4.2868     1.05809     3.22872
    3          C          -0.030773        4.0308     1.13134     2.89944
    4          O          -0.157464        6.1575     1.86438     4.29309
    5          C           0.364269        3.6357     1.12506     2.51067
    6          C          -0.205043        4.2050     1.11171     3.09333
    7          C          -0.007805        4.0078     1.11986     2.88795
    8          N          -0.114852        5.1149     1.79686     3.31799
    9          N          -0.178205        5.1782     1.53047     3.64773
   10          H           0.156706        0.8433     0.84329
   11          H           0.152517        0.8475     0.84748
   12          H           0.160234        0.8398     0.83977
   13          H           0.188107        0.8119     0.81189
   14          H           0.175829        0.8242     0.82417
   15          H           0.175305        0.8247     0.82470
   16          H           0.174256        0.8257     0.82574
   17          H           0.233454        0.7665     0.76655
   18          H           0.236298        0.7637     0.76370
   19          H           0.407353        0.5926     0.59265
 DIPOLE           X         Y         Z       TOTAL
 POINT-CHG.     1.066     1.758     0.683     2.167
 HYBRID        -0.716    -0.155    -0.296     0.790
 SUM            0.350     1.603     0.388     1.686


          ATOMIC ORBITAL ELECTRON POPULATIONS

     Atom    s        px        py        pz   
    1  C   1.05134   1.15414   1.07763   1.16026
    2  C   1.05809   0.97533   1.10141   1.15198
    3  C   1.13134   0.96016   0.88218   1.05710
    4  O   1.86438   1.21276   1.51131   1.56901
    5  C   1.12506   0.84449   0.83134   0.83485
    6  C   1.11171   0.95388   1.08873   1.05072
    7  C   1.11986   1.07941   0.88286   0.92568
    8  N   1.79686   0.95430   1.22838   1.13531
    9  N   1.53047   1.04874   1.24193   1.35707
   10  H   0.84329
   11  H   0.84748
   12  H   0.83977
   13  H   0.81189
   14  H   0.82417
   15  H   0.82470
   16  H   0.82574
   17  H   0.76655
   18  H   0.76370
   19  H   0.59265


                    (SZ)    =    0.500000
                    (S**2)  =    0.816141


          ATOMIC ORBITAL SPIN POPULATIONS

    Atom   Total    s     px     py     pz   
         Atomic
    1  C  0.0000 -0.000 -0.000  0.000  0.000
    2  C -0.0002  0.000 -0.000 -0.000  0.000
    3  C -0.0159 -0.001 -0.004 -0.008 -0.003
    4  O  0.2392  0.008  0.009  0.084  0.138
    5  C  0.1563 -0.002  0.000  0.053  0.106
    6  C  0.3147  0.008  0.017  0.100  0.191
    7  C -0.2126 -0.010 -0.015 -0.071 -0.117
    8  N  0.5444  0.009  0.033  0.174  0.329
    9  N -0.0296 -0.004 -0.016 -0.005 -0.005
   10  H  0.0000  0.000
   11  H -0.0000 -0.000
   12  H  0.0000  0.000
   13  H -0.0011 -0.001
   14  H -0.0003 -0.000
   15  H  0.0046  0.005
   16  H  0.0044  0.004
   17  H -0.0087 -0.009
   18  H  0.0050  0.005
   19  H -0.0002 -0.000

 **********************
 *                    *
 * JOB ENDED NORMALLY *
 *                    *
 **********************



 TOTAL JOB TIME:             3.17 SECONDS

 == MOPAC DONE ==
