 *******************************************************************************
 **                                                                           **
 **                              MOPAC v23.2                                  **
 **                                                                           **
 *******************************************************************************
 **          Digital Object Identifier (DOI): 10.5281/zenodo.6511958          **
 **    Visit the DOI location for information on how to cite this program.    **
 *******************************************************************************

                              PM7 CALCULATION RESULTS

 *******************************************************************************
 *  CALCULATION DONE: (MAX THREADS = 40)             Fri Sep 19 21:51:16 2025  *
 *  PM7        - The PM7 Hamiltonian to be used
 *  EPS=37.5   - USE ANDREAS KLAMT'S COSMO IMPLICIT SOLVATION MODEL
 *  1SCF       - DO 1 SCF AND THEN STOP 
 *  T=         - A TIME OF 172800.0 SECONDS REQUESTED
 *  DUMP=N     - RESTART FILE WRITTEN EVERY 7200.0 SECONDS REQUESTED
 *  RELSCF     - DEFAULT SCF CRITERION MULTIPLIED BY 0.0001
 *              (DEFAULT SCF CRITERION = 0.00010)
 *  GRADIENTS  - ALL GRADIENTS TO BE PRINTED
 *  DISP       - PRINT DISPERSION AND HYDROGEN BOND ENERGIES
 *******************************************************************************
PM7 1SCF GRADIENTS EPS=37.5 DISP RELSCF=0.0001
 Title: ASE calculation

   ATOM   CHEMICAL          X               Y               Z
  NUMBER   SYMBOL      (ANGSTROMS)     (ANGSTROMS)     (ANGSTROMS)

     1       C          1.94780244  *  -0.44553011  *  -1.64513470  *
     2       O          0.88616288  *   0.42302355  *  -1.27496709  *
     3       C          0.21803932  *   0.01093480  *  -0.14523093  *
     4       C          0.86620982  *   0.31908167  *   1.22213113  *
     5       C         -0.39103838  *   1.14458016  *   1.63825355  *
     6       C         -1.06339847  *   0.88518246  *   0.27122129  *
     7       C         -1.90235040  *  -0.39724939  *   0.20286166  *
     8       C         -1.82226732  *  -1.02421110  *  -1.17001745  *
     9       C         -0.66915726  *  -1.24181640  *  -0.21600168  *
    10       H          2.66761490  *  -0.55503665  *  -0.82888892  *
    11       H          2.40428301  *   0.07253561  *  -2.49700477  *
    12       H          1.55175572  *  -1.41996363  *  -1.94839607  *
    13       H          1.07195924  *  -0.55025184  *   1.84834932  *
    14       H          1.78041417  *   0.91518977  *   1.14221746  *
    15       H         -0.93181689  *   0.73845501  *   2.49700477  *
    16       H         -0.18172054  *   2.20064492  *   1.83206000  *
    17       H         -1.38649827  *   1.73959900  *  -0.30531449  *
    18       H         -2.66761490  *  -0.61476297  *   0.91779699  *
    19       H         -2.47503132  *  -1.86188983  *  -1.40057552  *
    20       H         -1.68404387  *  -0.39934987  *  -2.05128404  *
    21       H         -0.33835944  *  -2.20064492  *   0.11625027  *



          CARTESIAN COORDINATES 

    NO.       ATOM           X           Y           Z

     1         C          1.9478     -0.4455     -1.6451
     2         O          0.8862      0.4230     -1.2750
     3         C          0.2180      0.0109     -0.1452
     4         C          0.8662      0.3191      1.2221
     5         C         -0.3910      1.1446      1.6383
     6         C         -1.0634      0.8852      0.2712
     7         C         -1.9024     -0.3972      0.2029
     8         C         -1.8223     -1.0242     -1.1700
     9         C         -0.6692     -1.2418     -0.2160
    10         H          2.6676     -0.5550     -0.8289
    11         H          2.4043      0.0725     -2.4970
    12         H          1.5518     -1.4200     -1.9484
    13         H          1.0720     -0.5503      1.8483
    14         H          1.7804      0.9152      1.1422
    15         H         -0.9318      0.7385      2.4970
    16         H         -0.1817      2.2006      1.8321
    17         H         -1.3865      1.7396     -0.3053
    18         H         -2.6676     -0.6148      0.9178
    19         H         -2.4750     -1.8619     -1.4006
    20         H         -1.6840     -0.3993     -2.0513
    21         H         -0.3384     -2.2006      0.1163

 General Reference for PM7:
 "Optimization of Parameters for Semiempirical Methods VI: More Modifications to the 
 NDDO Approximations and Re-optimization of Parameters", J. J. P. Stewart, J. Mol. Mod., 1:32, 19 (2013)
 https://link.springer.com/article/10.1007/s00894-012-1667-x

           Empirical Formula: C8 H12 O  =    21 atoms



      MOLECULAR POINT GROUP   :   C1  


      RHF CALCULATION, NO. OF DOUBLY OCCUPIED LEVELS = 25

  SCF CRITERION =    0.1000E-07

 -------------------------------------------------------------------------------
 PM7 1SCF GRADIENTS EPS=37.5 DISP RELSCF=0.0001
 Title: ASE calculation



     1SCF WAS SPECIFIED, SO BFGS WAS NOT USED                 
     SCF FIELD WAS ACHIEVED                                   


                              PM7 CALCULATION
                                                       MOPAC v23.2 Linux
                                                       Fri Sep 19 21:51:17 2025




          FINAL HEAT OF FORMATION =         12.25361 KCAL/MOL =      51.26911 KJ/MOL

          TOTAL ENERGY            =     -33153.22880 KCAL/MOL = ELECTRONIC ENERGY + CORE-CORE REPULSION + SOLVATION ENERGY
          ENERGY OF ATOMS         =      33167.45855 KCAL/MOL
                              SUM =         14.22975 KCAL/MOL
          DISPERSION ENERGY       =         -1.97614 KCAL/MOL
                              SUM =         12.25361 KCAL/MOL = FINAL HEAT OF FORMATION

          VAN DER WAALS AREA      =        164.70 SQUARE ANGSTROMS


          TOTAL ENERGY            =      -1437.66007 EV
          ELECTRONIC ENERGY       =      -2440.64305 EV 
          CORE-CORE REPULSION     =       1002.98298 EV

          DIELECTRIC ENERGY       =         -0.19385 EV
          COSMO AREA              =        164.70 SQUARE ANGSTROMS
          COSMO VOLUME            =        167.84 CUBIC ANGSTROMS

          GRADIENT NORM           =          6.68624          =       1.45906 PER ATOM
          IONIZATION POTENTIAL    =         10.174455 EV
          HOMO LUMO ENERGIES (EV) =        -10.174  1.887
          NO. OF FILLED LEVELS    =         25
          MOLECULAR WEIGHT        =        124.1822         POINT GROUP:  C1  

          MOLECULAR DIMENSIONS (Angstroms)

            Atom       Atom       Distance
            H    18    H    11     6.15284
            H    19    H    16     5.64896
            H    17    H    13     3.91357


          SCF CALCULATIONS        =          2

          WALL-CLOCK TIME         =      1.039 SECONDS
          COMPUTATION TIME        =      0.321 SECONDS

          LARGEST ATOMIC GRADIENTS

          Atom     Label                     Cartesian Gradients           Cartesian Coordinates       |Gradient|
                                           X          Y          Z        X          Y          Z

             3       C                   2.024      0.434     -3.151    0.21804    0.01093   -0.14523      3.770
             4       C                   0.951     -1.226      1.696    0.86621    0.31908    1.22213      2.299
             9       C                   0.202     -1.598      1.478   -0.66916   -1.24182   -0.21600      2.186
             1       C                  -0.582     -0.823      1.584    1.94780   -0.44553   -1.64513      1.878
             5       C                  -0.309      0.494      1.489   -0.39104    1.14458    1.63825      1.599
             8       C                  -0.811     -1.192     -0.514   -1.82227   -1.02421   -1.17002      1.531
             7       C                  -0.610     -0.811      0.957   -1.90235   -0.39725    0.20286      1.395
            21       H                  -0.644      0.928     -0.713   -0.33836   -2.20064    0.11625      1.336
             2       O                   0.026      0.733     -1.028    0.88616    0.42302   -1.27497      1.263
            11       H                  -0.800      0.552      0.715    2.40428    0.07254   -2.49700      1.207



       FINAL  POINT  AND  DERIVATIVES

   PARAMETER     ATOM    TYPE            VALUE        GRADIENT
      1          1  C    CARTESIAN X     1.947802     -0.581894  KCAL/ANGSTROM
      2          1  C    CARTESIAN Y    -0.445530     -0.822761  KCAL/ANGSTROM
      3          1  C    CARTESIAN Z    -1.645135      1.584178  KCAL/ANGSTROM
      4          2  O    CARTESIAN X     0.886163      0.025512  KCAL/ANGSTROM
      5          2  O    CARTESIAN Y     0.423024      0.732768  KCAL/ANGSTROM
      6          2  O    CARTESIAN Z    -1.274967     -1.027778  KCAL/ANGSTROM
      7          3  C    CARTESIAN X     0.218039      2.023648  KCAL/ANGSTROM
      8          3  C    CARTESIAN Y     0.010935      0.434458  KCAL/ANGSTROM
      9          3  C    CARTESIAN Z    -0.145231     -3.150547  KCAL/ANGSTROM
     10          4  C    CARTESIAN X     0.866210      0.951349  KCAL/ANGSTROM
     11          4  C    CARTESIAN Y     0.319082     -1.226229  KCAL/ANGSTROM
     12          4  C    CARTESIAN Z     1.222131      1.695885  KCAL/ANGSTROM
     13          5  C    CARTESIAN X    -0.391038     -0.309173  KCAL/ANGSTROM
     14          5  C    CARTESIAN Y     1.144580      0.494209  KCAL/ANGSTROM
     15          5  C    CARTESIAN Z     1.638254      1.488685  KCAL/ANGSTROM
     16          6  C    CARTESIAN X    -1.063398      0.081011  KCAL/ANGSTROM
     17          6  C    CARTESIAN Y     0.885182     -0.042675  KCAL/ANGSTROM
     18          6  C    CARTESIAN Z     0.271221     -0.186506  KCAL/ANGSTROM
     19          7  C    CARTESIAN X    -1.902350     -0.609618  KCAL/ANGSTROM
     20          7  C    CARTESIAN Y    -0.397249     -0.810950  KCAL/ANGSTROM
     21          7  C    CARTESIAN Z     0.202862      0.957448  KCAL/ANGSTROM
     22          8  C    CARTESIAN X    -1.822267     -0.811253  KCAL/ANGSTROM
     23          8  C    CARTESIAN Y    -1.024211     -1.192498  KCAL/ANGSTROM
     24          8  C    CARTESIAN Z    -1.170017     -0.513750  KCAL/ANGSTROM
     25          9  C    CARTESIAN X    -0.669157      0.201799  KCAL/ANGSTROM
     26          9  C    CARTESIAN Y    -1.241816     -1.598362  KCAL/ANGSTROM
     27          9  C    CARTESIAN Z    -0.216002      1.478268  KCAL/ANGSTROM
     28         10  H    CARTESIAN X     2.667615     -0.375474  KCAL/ANGSTROM
     29         10  H    CARTESIAN Y    -0.555037      0.220450  KCAL/ANGSTROM
     30         10  H    CARTESIAN Z    -0.828889     -0.303982  KCAL/ANGSTROM
     31         11  H    CARTESIAN X     2.404283     -0.800218  KCAL/ANGSTROM
     32         11  H    CARTESIAN Y     0.072536      0.551921  KCAL/ANGSTROM
     33         11  H    CARTESIAN Z    -2.497005      0.715004  KCAL/ANGSTROM
     34         12  H    CARTESIAN X     1.551756     -0.096412  KCAL/ANGSTROM
     35         12  H    CARTESIAN Y    -1.419964      0.354676  KCAL/ANGSTROM
     36         12  H    CARTESIAN Z    -1.948396     -0.116122  KCAL/ANGSTROM
     37         13  H    CARTESIAN X     1.071959     -0.447972  KCAL/ANGSTROM
     38         13  H    CARTESIAN Y    -0.550252      0.485101  KCAL/ANGSTROM
     39         13  H    CARTESIAN Z     1.848349      0.082565  KCAL/ANGSTROM
     40         14  H    CARTESIAN X     1.780414     -0.555294  KCAL/ANGSTROM
     41         14  H    CARTESIAN Y     0.915190      0.395393  KCAL/ANGSTROM
     42         14  H    CARTESIAN Z     1.142217     -0.580638  KCAL/ANGSTROM
     43         15  H    CARTESIAN X    -0.931817      0.229086  KCAL/ANGSTROM
     44         15  H    CARTESIAN Y     0.738455     -0.098127  KCAL/ANGSTROM
     45         15  H    CARTESIAN Z     2.497005     -0.345684  KCAL/ANGSTROM
     46         16  H    CARTESIAN X    -0.181721      0.134570  KCAL/ANGSTROM
     47         16  H    CARTESIAN Y     2.200645     -0.225400  KCAL/ANGSTROM
     48         16  H    CARTESIAN Z     1.832060     -0.549455  KCAL/ANGSTROM
     49         17  H    CARTESIAN X    -1.386498      0.444089  KCAL/ANGSTROM
     50         17  H    CARTESIAN Y     1.739599      0.025300  KCAL/ANGSTROM
     51         17  H    CARTESIAN Z    -0.305314     -0.173344  KCAL/ANGSTROM
     52         18  H    CARTESIAN X    -2.667615      0.416027  KCAL/ANGSTROM
     53         18  H    CARTESIAN Y    -0.614763      0.174474  KCAL/ANGSTROM
     54         18  H    CARTESIAN Z     0.917797     -0.978163  KCAL/ANGSTROM
     55         19  H    CARTESIAN X    -2.475031      0.442774  KCAL/ANGSTROM
     56         19  H    CARTESIAN Y    -1.861890      0.910774  KCAL/ANGSTROM
     57         19  H    CARTESIAN Z    -1.400576      0.602513  KCAL/ANGSTROM
     58         20  H    CARTESIAN X    -1.684044      0.281913  KCAL/ANGSTROM
     59         20  H    CARTESIAN Y    -0.399350      0.309030  KCAL/ANGSTROM
     60         20  H    CARTESIAN Z    -2.051284      0.034122  KCAL/ANGSTROM
     61         21  H    CARTESIAN X    -0.338359     -0.644468  KCAL/ANGSTROM
     62         21  H    CARTESIAN Y    -2.200645      0.928444  KCAL/ANGSTROM
     63         21  H    CARTESIAN Z     0.116250     -0.712699  KCAL/ANGSTROM




   ATOM   CHEMICAL          X               Y               Z
  NUMBER   SYMBOL      (ANGSTROMS)     (ANGSTROMS)     (ANGSTROMS)

     1       C          1.94780244  *  -0.44553011  *  -1.64513470  *
     2       O          0.88616288  *   0.42302355  *  -1.27496709  *
     3       C          0.21803932  *   0.01093480  *  -0.14523093  *
     4       C          0.86620982  *   0.31908167  *   1.22213113  *
     5       C         -0.39103838  *   1.14458016  *   1.63825355  *
     6       C         -1.06339847  *   0.88518246  *   0.27122129  *
     7       C         -1.90235040  *  -0.39724939  *   0.20286166  *
     8       C         -1.82226732  *  -1.02421110  *  -1.17001745  *
     9       C         -0.66915726  *  -1.24181640  *  -0.21600168  *
    10       H          2.66761490  *  -0.55503665  *  -0.82888892  *
    11       H          2.40428301  *   0.07253561  *  -2.49700477  *
    12       H          1.55175572  *  -1.41996363  *  -1.94839607  *
    13       H          1.07195924  *  -0.55025184  *   1.84834932  *
    14       H          1.78041417  *   0.91518977  *   1.14221746  *
    15       H         -0.93181689  *   0.73845501  *   2.49700477  *
    16       H         -0.18172054  *   2.20064492  *   1.83206000  *
    17       H         -1.38649827  *   1.73959900  *  -0.30531449  *
    18       H         -2.66761490  *  -0.61476297  *   0.91779699  *
    19       H         -2.47503132  *  -1.86188983  *  -1.40057552  *
    20       H         -1.68404387  *  -0.39934987  *  -2.05128404  *
    21       H         -0.33835944  *  -2.20064492  *   0.11625027  *

                             CARTESIAN COORDINATES

   1    C        1.947802437    -0.445530110    -1.645134697
   2    O        0.886162884     0.423023546    -1.274967085
   3    C        0.218039324     0.010934797    -0.145230926
   4    C        0.866209816     0.319081666     1.222131132
   5    C       -0.391038378     1.144580164     1.638253546
   6    C       -1.063398469     0.885182462     0.271221291
   7    C       -1.902350401    -0.397249390     0.202861663
   8    C       -1.822267323    -1.024211100    -1.170017454
   9    C       -0.669157260    -1.241816396    -0.216001683
  10    H        2.667614899    -0.555036652    -0.828888919
  11    H        2.404283012     0.072535608    -2.497004774
  12    H        1.551755715    -1.419963633    -1.948396066
  13    H        1.071959245    -0.550251837     1.848349322
  14    H        1.780414166     0.915189775     1.142217457
  15    H       -0.931816892     0.738455007     2.497004774
  16    H       -0.181720542     2.200644922     1.832059996
  17    H       -1.386498268     1.739599001    -0.305314493
  18    H       -2.667614899    -0.614762969     0.917796995
  19    H       -2.475031322    -1.861889832    -1.400575517
  20    H       -1.684043872    -0.399349867    -2.051284039
  21    H       -0.338359436    -2.200644922     0.116250267


           Empirical Formula: C8 H12 O  =    21 atoms



      MOLECULAR POINT GROUP   :   C1  


                  EIGENVALUES  
 -32.81905 -29.72844 -28.38685 -24.43415 -23.24940 -22.48895 -20.36995 -20.21743
 -17.87131 -17.24170 -16.79155 -16.48474 -15.37121 -15.01962 -14.31162 -13.70291
 -13.05505 -12.91073 -12.58953 -12.51513 -11.57407 -11.35225 -11.02916 -10.44764
 -10.17445   1.88653   2.18977   2.84570   3.35309   3.39363   3.46274   3.65621
   4.39387   4.69001   4.83619   5.19683   5.50858   5.67773   5.69603   5.74431
   5.99441   6.13267   6.19551   6.26735   6.33274   6.38463   6.45437   6.54821


              NET ATOMIC CHARGES AND DIPOLE CONTRIBUTIONS

  ATOM NO.   TYPE          CHARGE      No. of ELECS.   s-Pop       p-Pop       
    1          C          -0.189714        4.1897     1.08538     3.10433
    2          O          -0.427782        6.4278     1.86546     4.56232
    3          C           0.244828        3.7552     1.09480     2.66038
    4          C          -0.333877        4.3339     1.07695     3.25693
    5          C          -0.280910        4.2809     1.06813     3.21278
    6          C          -0.164695        4.1647     1.08977     3.07492
    7          C          -0.176765        4.1768     1.06660     3.11016
    8          C          -0.312631        4.3126     1.05746     3.25517
    9          C          -0.238211        4.2382     1.07352     3.16469
   10          H           0.136932        0.8631     0.86307
   11          H           0.152433        0.8476     0.84757
   12          H           0.137986        0.8620     0.86201
   13          H           0.155405        0.8446     0.84459
   14          H           0.160106        0.8399     0.83989
   15          H           0.153628        0.8464     0.84637
   16          H           0.152516        0.8475     0.84748
   17          H           0.156262        0.8437     0.84374
   18          H           0.169470        0.8305     0.83053
   19          H           0.166792        0.8332     0.83321
   20          H           0.168924        0.8311     0.83108
   21          H           0.169302        0.8307     0.83070
 DIPOLE           X         Y         Z       TOTAL
 POINT-CHG.     0.813    -1.513     0.999     1.987
 HYBRID        -0.021    -0.013    -0.058     0.063
 SUM            0.792    -1.526     0.941     1.960


          ATOMIC ORBITAL ELECTRON POPULATIONS

     Atom    s        px        py        pz   
    1  C   1.08538   0.94213   1.04327   1.11893
    2  O   1.86546   1.52484   1.53401   1.50347
    3  C   1.09480   0.89383   0.94150   0.82504
    4  C   1.07695   1.06994   1.13159   1.05540
    5  C   1.06813   1.03522   1.12754   1.05002
    6  C   1.08977   1.00265   1.03768   1.03459
    7  C   1.06660   1.05341   0.99822   1.05853
    8  C   1.05746   1.08350   1.15149   1.02019
    9  C   1.07352   0.96130   1.07296   1.13043
   10  H   0.86307
   11  H   0.84757
   12  H   0.86201
   13  H   0.84459
   14  H   0.83989
   15  H   0.84637
   16  H   0.84748
   17  H   0.84374
   18  H   0.83053
   19  H   0.83321
   20  H   0.83108
   21  H   0.83070

 **********************
 *                    *
 * JOB ENDED NORMALLY *
 *                    *
 **********************



 TOTAL JOB TIME:             1.59 SECONDS

 == MOPAC DONE ==
