 *******************************************************************************
 **                                                                           **
 **                              MOPAC v23.2                                  **
 **                                                                           **
 *******************************************************************************
 **          Digital Object Identifier (DOI): 10.5281/zenodo.6511958          **
 **    Visit the DOI location for information on how to cite this program.    **
 *******************************************************************************

                              PM7 CALCULATION RESULTS

 *******************************************************************************
 *  CALCULATION DONE: (MAX THREADS = 40)             Fri Sep 19 21:31:12 2025  *
 *  PM7        - The PM7 Hamiltonian to be used
 *  EPS=37.5   - USE ANDREAS KLAMT'S COSMO IMPLICIT SOLVATION MODEL
 *  1SCF       - DO 1 SCF AND THEN STOP 
 *  T=         - A TIME OF 172800.0 SECONDS REQUESTED
 *  DUMP=N     - RESTART FILE WRITTEN EVERY 7200.0 SECONDS REQUESTED
 *  RELSCF     - DEFAULT SCF CRITERION MULTIPLIED BY 0.0001
 *              (DEFAULT SCF CRITERION = 0.00010)
 *  GRADIENTS  - ALL GRADIENTS TO BE PRINTED
 *  DISP       - PRINT DISPERSION AND HYDROGEN BOND ENERGIES
 *******************************************************************************
PM7 1SCF GRADIENTS EPS=37.5 DISP RELSCF=0.0001
 Title: ASE calculation

   ATOM   CHEMICAL          X               Y               Z
  NUMBER   SYMBOL      (ANGSTROMS)     (ANGSTROMS)     (ANGSTROMS)

     1       C         -2.16415969  *   0.70874310  *  -0.57665320  *
     2       C         -0.75748254  *   0.44849755  *  -0.16970912  *
     3       C          0.14170972  *   1.42376740  *   0.02149467  *
     4       C          1.54132622  *   1.17961809  *   0.40173236  *
     5       O          2.29811610  *   2.10280146  *   0.60383226  *
     6       C          2.06724385  *  -0.23415435  *   0.54775547  *
     7       C          1.04556236  *  -1.32711605  *   0.37412921  *
     8       N          0.53525264  *  -1.52606755  *  -0.99896019  *
     9       C         -0.39627045  *  -0.97931726  *   0.01802425  *
    10       H         -2.37666211  *   1.77915188  *  -0.71774401  *
    11       H         -2.39014867  *   0.21097694  *  -1.53471549  *
    12       H         -2.88319056  *   0.33182271  *   0.16523873  *
    13       H         -0.10713043  *   2.47888998  *  -0.10359807  *
    14       H          2.88319056  *  -0.36761623  *  -0.20447055  *
    15       H          2.57155218  *  -0.32020965  *   1.53471549  *
    16       H          1.23373997  *  -2.20249708  *   1.01013323  *
    17       H          0.36682066  *  -2.47888998  *  -1.29463107  *
    18       H         -1.21044243  *  -1.60299456  *   0.40784672  *



          CARTESIAN COORDINATES 

    NO.       ATOM           X           Y           Z

     1         C         -2.1642      0.7087     -0.5767
     2         C         -0.7575      0.4485     -0.1697
     3         C          0.1417      1.4238      0.0215
     4         C          1.5413      1.1796      0.4017
     5         O          2.2981      2.1028      0.6038
     6         C          2.0672     -0.2342      0.5478
     7         C          1.0456     -1.3271      0.3741
     8         N          0.5353     -1.5261     -0.9990
     9         C         -0.3963     -0.9793      0.0180
    10         H         -2.3767      1.7792     -0.7177
    11         H         -2.3901      0.2110     -1.5347
    12         H         -2.8832      0.3318      0.1652
    13         H         -0.1071      2.4789     -0.1036
    14         H          2.8832     -0.3676     -0.2045
    15         H          2.5716     -0.3202      1.5347
    16         H          1.2337     -2.2025      1.0101
    17         H          0.3668     -2.4789     -1.2946
    18         H         -1.2104     -1.6030      0.4078

 General Reference for PM7:
 "Optimization of Parameters for Semiempirical Methods VI: More Modifications to the 
 NDDO Approximations and Re-optimization of Parameters", J. J. P. Stewart, J. Mol. Mod., 1:32, 19 (2013)
 https://link.springer.com/article/10.1007/s00894-012-1667-x

           Empirical Formula: C7 H9 N O  =    18 atoms



      MOLECULAR POINT GROUP   :   C1  


      RHF CALCULATION, NO. OF DOUBLY OCCUPIED LEVELS = 24

  SCF CRITERION =    0.1000E-07

 -------------------------------------------------------------------------------
 PM7 1SCF GRADIENTS EPS=37.5 DISP RELSCF=0.0001
 Title: ASE calculation



     1SCF WAS SPECIFIED, SO BFGS WAS NOT USED                 
     SCF FIELD WAS ACHIEVED                                   


                              PM7 CALCULATION
                                                       MOPAC v23.2 Linux
                                                       Fri Sep 19 21:31:13 2025




          FINAL HEAT OF FORMATION =         -7.15132 KCAL/MOL =     -29.92111 KJ/MOL

          TOTAL ENERGY            =     -33714.49221 KCAL/MOL = ELECTRONIC ENERGY + CORE-CORE REPULSION + SOLVATION ENERGY
          ENERGY OF ATOMS         =      33709.16394 KCAL/MOL
                              SUM =         -5.32827 KCAL/MOL
          DISPERSION ENERGY       =         -1.82305 KCAL/MOL
                              SUM =         -7.15132 KCAL/MOL = FINAL HEAT OF FORMATION

          VAN DER WAALS AREA      =        158.02 SQUARE ANGSTROMS


          TOTAL ENERGY            =      -1461.99875 EV
          ELECTRONIC ENERGY       =      -2112.05725 EV 
          CORE-CORE REPULSION     =        650.05850 EV

          DIELECTRIC ENERGY       =         -0.70200 EV
          COSMO AREA              =        158.02 SQUARE ANGSTROMS
          COSMO VOLUME            =        154.98 CUBIC ANGSTROMS

          GRADIENT NORM           =         35.30506          =       8.32148 PER ATOM
          IONIZATION POTENTIAL    =         10.325145 EV
          HOMO LUMO ENERGIES (EV) =        -10.325 -0.538
          NO. OF FILLED LEVELS    =         24
          MOLECULAR WEIGHT        =        123.1542         POINT GROUP:  C1  

          MOLECULAR DIMENSIONS (Angstroms)

            Atom       Atom       Distance
            H    15    H    11     5.85850
            H    13    H    17     5.11579
            H    14    H    12     3.17805


          SCF CALCULATIONS        =          2

          WALL-CLOCK TIME         =      0.742 SECONDS
          COMPUTATION TIME        =      0.417 SECONDS

          LARGEST ATOMIC GRADIENTS

          Atom     Label                     Cartesian Gradients           Cartesian Coordinates       |Gradient|
                                           X          Y          Z        X          Y          Z

             4       C                  16.001     18.263      2.785    1.54133    1.17962    0.40173     24.440
             5       O                  -8.906    -11.926     -1.876    2.29812    2.10280    0.60383     15.002
             3       C                 -11.552     -5.042     -1.641    0.14171    1.42377    0.02149     12.710
             6       C                   2.824     -6.979      2.871    2.06724   -0.23415    0.54776      8.058
             1       C                  -7.013     -1.501     -0.294   -2.16416    0.70874   -0.57665      7.178
             2       C                   6.051      3.280      1.729   -0.75748    0.44850   -0.16971      7.097
            17       H                   1.261      4.938     -0.049    0.36682   -2.47889   -1.29463      5.097
             8       N                  -0.948     -4.184      0.831    0.53525   -1.52607   -0.99896      4.370
             9       C                  -2.293     -2.021     -0.250   -0.39627   -0.97932    0.01802      3.067
             7       C                   0.632     -2.677      0.019    1.04556   -1.32712    0.37413      2.750



       FINAL  POINT  AND  DERIVATIVES

   PARAMETER     ATOM    TYPE            VALUE        GRADIENT
      1          1  C    CARTESIAN X    -2.164160     -7.013435  KCAL/ANGSTROM
      2          1  C    CARTESIAN Y     0.708743     -1.500713  KCAL/ANGSTROM
      3          1  C    CARTESIAN Z    -0.576653     -0.294352  KCAL/ANGSTROM
      4          2  C    CARTESIAN X    -0.757483      6.051287  KCAL/ANGSTROM
      5          2  C    CARTESIAN Y     0.448498      3.280264  KCAL/ANGSTROM
      6          2  C    CARTESIAN Z    -0.169709      1.728750  KCAL/ANGSTROM
      7          3  C    CARTESIAN X     0.141710    -11.551651  KCAL/ANGSTROM
      8          3  C    CARTESIAN Y     1.423767     -5.042126  KCAL/ANGSTROM
      9          3  C    CARTESIAN Z     0.021495     -1.641063  KCAL/ANGSTROM
     10          4  C    CARTESIAN X     1.541326     16.000742  KCAL/ANGSTROM
     11          4  C    CARTESIAN Y     1.179618     18.262833  KCAL/ANGSTROM
     12          4  C    CARTESIAN Z     0.401732      2.784551  KCAL/ANGSTROM
     13          5  O    CARTESIAN X     2.298116     -8.905822  KCAL/ANGSTROM
     14          5  O    CARTESIAN Y     2.102801    -11.925718  KCAL/ANGSTROM
     15          5  O    CARTESIAN Z     0.603832     -1.876348  KCAL/ANGSTROM
     16          6  C    CARTESIAN X     2.067244      2.824039  KCAL/ANGSTROM
     17          6  C    CARTESIAN Y    -0.234154     -6.979386  KCAL/ANGSTROM
     18          6  C    CARTESIAN Z     0.547755      2.870906  KCAL/ANGSTROM
     19          7  C    CARTESIAN X     1.045562      0.631608  KCAL/ANGSTROM
     20          7  C    CARTESIAN Y    -1.327116     -2.676747  KCAL/ANGSTROM
     21          7  C    CARTESIAN Z     0.374129      0.019278  KCAL/ANGSTROM
     22          8  N    CARTESIAN X     0.535253     -0.947512  KCAL/ANGSTROM
     23          8  N    CARTESIAN Y    -1.526068     -4.184064  KCAL/ANGSTROM
     24          8  N    CARTESIAN Z    -0.998960      0.830701  KCAL/ANGSTROM
     25          9  C    CARTESIAN X    -0.396270     -2.293336  KCAL/ANGSTROM
     26          9  C    CARTESIAN Y    -0.979317     -2.021439  KCAL/ANGSTROM
     27          9  C    CARTESIAN Z     0.018024     -0.249610  KCAL/ANGSTROM
     28         10  H    CARTESIAN X    -2.376662      1.072513  KCAL/ANGSTROM
     29         10  H    CARTESIAN Y     1.779152     -0.324880  KCAL/ANGSTROM
     30         10  H    CARTESIAN Z    -0.717744     -0.165375  KCAL/ANGSTROM
     31         11  H    CARTESIAN X    -2.390149      1.624534  KCAL/ANGSTROM
     32         11  H    CARTESIAN Y     0.210977      0.859582  KCAL/ANGSTROM
     33         11  H    CARTESIAN Z    -1.534715      0.015741  KCAL/ANGSTROM
     34         12  H    CARTESIAN X    -2.883191      1.215129  KCAL/ANGSTROM
     35         12  H    CARTESIAN Y     0.331823      0.960126  KCAL/ANGSTROM
     36         12  H    CARTESIAN Z     0.165239     -0.414831  KCAL/ANGSTROM
     37         13  H    CARTESIAN X    -0.107130      1.684891  KCAL/ANGSTROM
     38         13  H    CARTESIAN Y     2.478890     -0.102987  KCAL/ANGSTROM
     39         13  H    CARTESIAN Z    -0.103598     -0.229283  KCAL/ANGSTROM
     40         14  H    CARTESIAN X     2.883191     -1.983197  KCAL/ANGSTROM
     41         14  H    CARTESIAN Y    -0.367616      1.049551  KCAL/ANGSTROM
     42         14  H    CARTESIAN Z    -0.204471     -0.296714  KCAL/ANGSTROM
     43         15  H    CARTESIAN X     2.571552     -1.119964  KCAL/ANGSTROM
     44         15  H    CARTESIAN Y    -0.320210      1.331858  KCAL/ANGSTROM
     45         15  H    CARTESIAN Z     1.534715     -1.726627  KCAL/ANGSTROM
     46         16  H    CARTESIAN X     1.233740     -0.269870  KCAL/ANGSTROM
     47         16  H    CARTESIAN Y    -2.202497      2.141160  KCAL/ANGSTROM
     48         16  H    CARTESIAN Z     1.010133     -0.955547  KCAL/ANGSTROM
     49         17  H    CARTESIAN X     0.366821      1.261234  KCAL/ANGSTROM
     50         17  H    CARTESIAN Y    -2.478890      4.938215  KCAL/ANGSTROM
     51         17  H    CARTESIAN Z    -1.294631     -0.048935  KCAL/ANGSTROM
     52         18  H    CARTESIAN X    -1.210442      1.718808  KCAL/ANGSTROM
     53         18  H    CARTESIAN Y    -1.602995      1.934469  KCAL/ANGSTROM
     54         18  H    CARTESIAN Z     0.407847     -0.351245  KCAL/ANGSTROM




   ATOM   CHEMICAL          X               Y               Z
  NUMBER   SYMBOL      (ANGSTROMS)     (ANGSTROMS)     (ANGSTROMS)

     1       C         -2.16415969  *   0.70874310  *  -0.57665320  *
     2       C         -0.75748254  *   0.44849755  *  -0.16970912  *
     3       C          0.14170972  *   1.42376740  *   0.02149467  *
     4       C          1.54132622  *   1.17961809  *   0.40173236  *
     5       O          2.29811610  *   2.10280146  *   0.60383226  *
     6       C          2.06724385  *  -0.23415435  *   0.54775547  *
     7       C          1.04556236  *  -1.32711605  *   0.37412921  *
     8       N          0.53525264  *  -1.52606755  *  -0.99896019  *
     9       C         -0.39627045  *  -0.97931726  *   0.01802425  *
    10       H         -2.37666211  *   1.77915188  *  -0.71774401  *
    11       H         -2.39014867  *   0.21097694  *  -1.53471549  *
    12       H         -2.88319056  *   0.33182271  *   0.16523873  *
    13       H         -0.10713043  *   2.47888998  *  -0.10359807  *
    14       H          2.88319056  *  -0.36761623  *  -0.20447055  *
    15       H          2.57155218  *  -0.32020965  *   1.53471549  *
    16       H          1.23373997  *  -2.20249708  *   1.01013323  *
    17       H          0.36682066  *  -2.47888998  *  -1.29463107  *
    18       H         -1.21044243  *  -1.60299456  *   0.40784672  *

                             CARTESIAN COORDINATES

   1    C       -2.164159688     0.708743101    -0.576653196
   2    C       -0.757482542     0.448497554    -0.169709118
   3    C        0.141709723     1.423767395     0.021494670
   4    C        1.541326216     1.179618092     0.401732358
   5    O        2.298116103     2.102801459     0.603832260
   6    C        2.067243846    -0.234154350     0.547755474
   7    C        1.045562365    -1.327116051     0.374129214
   8    N        0.535252640    -1.526067551    -0.998960187
   9    C       -0.396270451    -0.979317261     0.018024250
  10    H       -2.376662109     1.779151875    -0.717744009
  11    H       -2.390148672     0.210976943    -1.534715495
  12    H       -2.883190563     0.331822715     0.165238726
  13    H       -0.107130429     2.478889984    -0.103598072
  14    H        2.883190563    -0.367616234    -0.204470553
  15    H        2.571552184    -0.320209647     1.534715495
  16    H        1.233739966    -2.202497077     1.010133227
  17    H        0.366820661    -2.478889984    -1.294631068
  18    H       -1.210442429    -1.602994556     0.407846716


           Empirical Formula: C7 H9 N O  =    18 atoms



      MOLECULAR POINT GROUP   :   C1  


                  EIGENVALUES  
 -36.97532 -31.30855 -29.29884 -27.22980 -24.75231 -23.71214 -21.42781 -20.45464
 -18.63352 -16.92315 -16.70011 -16.02406 -15.49129 -14.96616 -14.28781 -13.92637
 -13.76491 -13.56583 -12.76735 -12.66593 -12.15456 -10.78207 -10.67403 -10.32515
  -0.53774   1.28405   2.02763   2.63632   2.92546   3.17591   3.31403   3.76810
   3.94680   4.37367   4.52732   5.06796   5.17810   5.31909   5.43923   5.47933
   5.60985   5.95809   6.09016   6.32452   6.64656


              NET ATOMIC CHARGES AND DIPOLE CONTRIBUTIONS

  ATOM NO.   TYPE          CHARGE      No. of ELECS.   s-Pop       p-Pop       
    1          C          -0.490373        4.4904     1.05397     3.43640
    2          C           0.201171        3.7988     1.08662     2.71221
    3          C          -0.406802        4.4068     1.08968     3.31712
    4          C           0.574677        3.4253     1.11438     2.31095
    5          O          -0.611763        6.6118     1.87211     4.73966
    6          C          -0.392782        4.3928     1.06961     3.32317
    7          C          -0.019341        4.0193     1.06808     2.95126
    8          N          -0.534036        5.5340     1.72530     3.80873
    9          C          -0.122709        4.1227     1.07015     3.05256
   10          H           0.177414        0.8226     0.82259
   11          H           0.185566        0.8144     0.81443
   12          H           0.184724        0.8153     0.81528
   13          H           0.192004        0.8080     0.80800
   14          H           0.209429        0.7906     0.79057
   15          H           0.199840        0.8002     0.80016
   16          H           0.175259        0.8247     0.82474
   17          H           0.293132        0.7069     0.70687
   18          H           0.184591        0.8154     0.81541
 DIPOLE           X         Y         Z       TOTAL
 POINT-CHG.    -4.509    -5.042     0.699     6.800
 HYBRID        -0.078    -0.689     0.093     0.700
 SUM           -4.586    -5.731     0.792     7.383


          ATOMIC ORBITAL ELECTRON POPULATIONS

     Atom    s        px        py        pz   
    1  C   1.05397   1.04307   1.20643   1.18690
    2  C   1.08662   0.95730   0.94612   0.80878
    3  C   1.08968   1.02919   1.11462   1.17330
    4  C   1.11438   0.84680   0.84530   0.61884
    5  O   1.87211   1.65380   1.56602   1.51984
    6  C   1.06961   1.10067   1.01489   1.20761
    7  C   1.06808   0.95344   1.07115   0.92666
    8  N   1.72530   1.22020   1.38570   1.20284
    9  C   1.07015   0.99477   1.02993   1.02786
   10  H   0.82259
   11  H   0.81443
   12  H   0.81528
   13  H   0.80800
   14  H   0.79057
   15  H   0.80016
   16  H   0.82474
   17  H   0.70687
   18  H   0.81541

 **********************
 *                    *
 * JOB ENDED NORMALLY *
 *                    *
 **********************



 TOTAL JOB TIME:             1.09 SECONDS

 == MOPAC DONE ==
