 *******************************************************************************
 **                                                                           **
 **                              MOPAC v23.2                                  **
 **                                                                           **
 *******************************************************************************
 **          Digital Object Identifier (DOI): 10.5281/zenodo.6511958          **
 **    Visit the DOI location for information on how to cite this program.    **
 *******************************************************************************

                              PM7 CALCULATION RESULTS

 *******************************************************************************
 *  CALCULATION DONE: (MAX THREADS = 40)             Fri Sep 19 22:04:35 2025  *
 *  PM7        - The PM7 Hamiltonian to be used
 *
 *
 *
 *                 CHARGE ON SYSTEM = +1
 *
 *
 *
 *  EPS=37.5   - USE ANDREAS KLAMT'S COSMO IMPLICIT SOLVATION MODEL
 *  1SCF       - DO 1 SCF AND THEN STOP 
 *  T=         - A TIME OF 172800.0 SECONDS REQUESTED
 *  DUMP=N     - RESTART FILE WRITTEN EVERY 7200.0 SECONDS REQUESTED
 *  RELSCF     - DEFAULT SCF CRITERION MULTIPLIED BY 0.0001
 *              (DEFAULT SCF CRITERION = 0.00010)
 *  GRADIENTS  - ALL GRADIENTS TO BE PRINTED
 *  DISP       - PRINT DISPERSION AND HYDROGEN BOND ENERGIES
 *******************************************************************************
PM7 1SCF GRADIENTS EPS=37.5 DISP RELSCF=0.0001 CHARGE=1
 Title: ASE calculation

   ATOM   CHEMICAL          X               Y               Z
  NUMBER   SYMBOL      (ANGSTROMS)     (ANGSTROMS)     (ANGSTROMS)

     1       C         -1.06307980  *  -1.82670549  *   0.21872242  *
     2       N         -0.36817819  *  -0.63979138  *  -0.03186412  *
     3       C         -0.50526649  *   0.68580497  *  -0.56227093  *
     4       C         -1.76140737  *   1.46169963  *  -0.21199029  *
     5       O         -2.18639722  *   0.90223641  *   1.01499528  *
     6       C          0.53342854  *   0.31986093  *   0.54277328  *
     7       C          2.00205252  *   0.23944635  *   0.16182204  *
     8       O          1.99255865  *  -0.03055007  *  -1.22371568  *
     9       H         -2.03284610  *  -1.61258303  *   0.75871325  *
    10       H         -1.35456509  *  -2.34078323  *  -0.73358838  *
    11       H         -0.47604326  *  -2.54296828  *   0.83959267  *
    12       H         -0.12273696  *   0.87012524  *  -1.59616603  *
    13       H         -1.53387020  *   2.54296828  *  -0.09025206  *
    14       H         -2.56234126  *   1.32843149  *  -0.97019309  *
    15       H         -2.90834054  *   1.43760540  *   1.42123100  *
    16       H          0.35348007  *   0.62786877  *   1.59616603  *
    17       H          2.51375313  *   1.20663362  *   0.35721871  *
    18       H          2.52155609  *  -0.58263917  *   0.69817620  *
    19       H          2.90834054  *  -0.05431559  *  -1.58835503  *



          CARTESIAN COORDINATES 

    NO.       ATOM           X           Y           Z

     1         C         -1.0631     -1.8267      0.2187
     2         N         -0.3682     -0.6398     -0.0319
     3         C         -0.5053      0.6858     -0.5623
     4         C         -1.7614      1.4617     -0.2120
     5         O         -2.1864      0.9022      1.0150
     6         C          0.5334      0.3199      0.5428
     7         C          2.0021      0.2394      0.1618
     8         O          1.9926     -0.0306     -1.2237
     9         H         -2.0328     -1.6126      0.7587
    10         H         -1.3546     -2.3408     -0.7336
    11         H         -0.4760     -2.5430      0.8396
    12         H         -0.1227      0.8701     -1.5962
    13         H         -1.5339      2.5430     -0.0903
    14         H         -2.5623      1.3284     -0.9702
    15         H         -2.9083      1.4376      1.4212
    16         H          0.3535      0.6279      1.5962
    17         H          2.5138      1.2066      0.3572
    18         H          2.5216     -0.5826      0.6982
    19         H          2.9083     -0.0543     -1.5884

 General Reference for PM7:
 "Optimization of Parameters for Semiempirical Methods VI: More Modifications to the 
 NDDO Approximations and Re-optimization of Parameters", J. J. P. Stewart, J. Mol. Mod., 1:32, 19 (2013)
 https://link.springer.com/article/10.1007/s00894-012-1667-x

           Empirical Formula: C5 H11 N O2  =    19 atoms



      MOLECULAR POINT GROUP   :   C1  


          UHF CALCULATION, NO. OF ALPHA ELECTRONS =   24
                           NO. OF BETA  ELECTRONS =   23
  SCF CRITERION =    0.1000E-07

 -------------------------------------------------------------------------------
 PM7 1SCF GRADIENTS EPS=37.5 DISP RELSCF=0.0001 CHARGE=1
 Title: ASE calculation



     1SCF WAS SPECIFIED, SO BFGS WAS NOT USED                 
     SCF FIELD WAS ACHIEVED                                   


                              PM7 CALCULATION
                                                       MOPAC v23.2 Linux
                                                       Fri Sep 19 22:04:36 2025




          FINAL HEAT OF FORMATION =         71.31742 KCAL/MOL =     298.39208 KJ/MOL

          TOTAL ENERGY            =     -35341.90180 KCAL/MOL = ELECTRONIC ENERGY + CORE-CORE REPULSION + SOLVATION ENERGY
          ENERGY OF ATOMS         =      35414.96735 KCAL/MOL
                              SUM =         73.06554 KCAL/MOL
          DISPERSION ENERGY       =         -1.74812 KCAL/MOL
                              SUM =         71.31742 KCAL/MOL = FINAL HEAT OF FORMATION

          VAN DER WAALS AREA      =        154.51 SQUARE ANGSTROMS


          TOTAL ENERGY            =      -1532.56991 EV
          ELECTRONIC ENERGY       =      -2171.85768 EV 
          CORE-CORE REPULSION     =        639.28776 EV

          DIELECTRIC ENERGY       =         -2.27192 EV
          COSMO AREA              =        154.51 SQUARE ANGSTROMS
          COSMO VOLUME            =        148.83 CUBIC ANGSTROMS

          GRADIENT NORM           =          8.59161          =       1.97105 PER ATOM
          IONIZATION POTENTIAL    =         11.207656 EV
          ALPHA SOMO LUMO (EV)    =        -11.208 -0.249
          BETA  SOMO LUMO (EV)    =        -11.272 -2.078
          NO. OF ALPHA ELECTRONS  =         24
          NO. OF BETA  ELECTRONS  =         23
          MOLECULAR WEIGHT        =        117.1474         POINT GROUP:  C1  

          MOLECULAR DIMENSIONS (Angstroms)

            Atom       Atom       Distance
            H    19    H    15     6.71693
            H    11    H    13     5.01961
            H    17    H    10     3.72535


          SCF CALCULATIONS        =          2

          WALL-CLOCK TIME         =      0.500 SECONDS
          COMPUTATION TIME        =      1.642 SECONDS

          LARGEST ATOMIC GRADIENTS

          Atom     Label                     Cartesian Gradients           Cartesian Coordinates       |Gradient|
                                           X          Y          Z        X          Y          Z

             7       C                   3.452     -0.466     -2.435    2.00205    0.23945    0.16182      4.250
             8       O                  -1.131      0.969      3.311    1.99256   -0.03055   -1.22372      3.631
             1       C                  -1.567     -2.277      0.431   -1.06308   -1.82671    0.21872      2.797
             4       C                  -2.099      0.602      1.085   -1.76141    1.46170   -0.21199      2.438
            12       H                   1.818      0.049     -0.866   -0.12274    0.87013   -1.59617      2.014
            19       H                  -1.704     -0.371     -0.733    2.90834   -0.05432   -1.58836      1.892
             6       C                   0.144     -0.040      1.882    0.53343    0.31986    0.54277      1.888
             5       O                   0.791      0.320     -1.595   -2.18640    0.90224    1.01500      1.808
             2       N                   0.598      1.628     -0.385   -0.36818   -0.63979   -0.03186      1.776
            15       H                   0.756     -1.504      0.564   -2.90834    1.43761    1.42123      1.775



       FINAL  POINT  AND  DERIVATIVES

   PARAMETER     ATOM    TYPE            VALUE        GRADIENT
      1          1  C    CARTESIAN X    -1.063080     -1.567170  KCAL/ANGSTROM
      2          1  C    CARTESIAN Y    -1.826705     -2.276814  KCAL/ANGSTROM
      3          1  C    CARTESIAN Z     0.218722      0.431158  KCAL/ANGSTROM
      4          2  N    CARTESIAN X    -0.368178      0.597645  KCAL/ANGSTROM
      5          2  N    CARTESIAN Y    -0.639791      1.627818  KCAL/ANGSTROM
      6          2  N    CARTESIAN Z    -0.031864     -0.385431  KCAL/ANGSTROM
      7          3  C    CARTESIAN X    -0.505266     -0.369974  KCAL/ANGSTROM
      8          3  C    CARTESIAN Y     0.685805     -0.157428  KCAL/ANGSTROM
      9          3  C    CARTESIAN Z    -0.562271     -0.704126  KCAL/ANGSTROM
     10          4  C    CARTESIAN X    -1.761407     -2.098761  KCAL/ANGSTROM
     11          4  C    CARTESIAN Y     1.461700      0.601930  KCAL/ANGSTROM
     12          4  C    CARTESIAN Z    -0.211990      1.085264  KCAL/ANGSTROM
     13          5  O    CARTESIAN X    -2.186397      0.790530  KCAL/ANGSTROM
     14          5  O    CARTESIAN Y     0.902236      0.320043  KCAL/ANGSTROM
     15          5  O    CARTESIAN Z     1.014995     -1.594632  KCAL/ANGSTROM
     16          6  C    CARTESIAN X     0.533429      0.144001  KCAL/ANGSTROM
     17          6  C    CARTESIAN Y     0.319861     -0.040462  KCAL/ANGSTROM
     18          6  C    CARTESIAN Z     0.542773      1.882058  KCAL/ANGSTROM
     19          7  C    CARTESIAN X     2.002053      3.452032  KCAL/ANGSTROM
     20          7  C    CARTESIAN Y     0.239446     -0.465891  KCAL/ANGSTROM
     21          7  C    CARTESIAN Z     0.161822     -2.434802  KCAL/ANGSTROM
     22          8  O    CARTESIAN X     1.992559     -1.131021  KCAL/ANGSTROM
     23          8  O    CARTESIAN Y    -0.030550      0.969359  KCAL/ANGSTROM
     24          8  O    CARTESIAN Z    -1.223716      3.311475  KCAL/ANGSTROM
     25          9  H    CARTESIAN X    -2.032846     -0.812266  KCAL/ANGSTROM
     26          9  H    CARTESIAN Y    -1.612583      0.950311  KCAL/ANGSTROM
     27          9  H    CARTESIAN Z     0.758713      0.630285  KCAL/ANGSTROM
     28         10  H    CARTESIAN X    -1.354565      0.392719  KCAL/ANGSTROM
     29         10  H    CARTESIAN Y    -2.340783     -0.662258  KCAL/ANGSTROM
     30         10  H    CARTESIAN Z    -0.733588     -0.440836  KCAL/ANGSTROM
     31         11  H    CARTESIAN X    -0.476043      0.536263  KCAL/ANGSTROM
     32         11  H    CARTESIAN Y    -2.542968     -0.621735  KCAL/ANGSTROM
     33         11  H    CARTESIAN Z     0.839593     -0.135401  KCAL/ANGSTROM
     34         12  H    CARTESIAN X    -0.122737      1.818176  KCAL/ANGSTROM
     35         12  H    CARTESIAN Y     0.870125      0.049006  KCAL/ANGSTROM
     36         12  H    CARTESIAN Z    -1.596166     -0.865657  KCAL/ANGSTROM
     37         13  H    CARTESIAN X    -1.533870      0.481738  KCAL/ANGSTROM
     38         13  H    CARTESIAN Y     2.542968      0.764179  KCAL/ANGSTROM
     39         13  H    CARTESIAN Z    -0.090252      0.119482  KCAL/ANGSTROM
     40         14  H    CARTESIAN X    -2.562341     -0.671760  KCAL/ANGSTROM
     41         14  H    CARTESIAN Y     1.328431      0.127390  KCAL/ANGSTROM
     42         14  H    CARTESIAN Z    -0.970193     -0.707937  KCAL/ANGSTROM
     43         15  H    CARTESIAN X    -2.908341      0.756308  KCAL/ANGSTROM
     44         15  H    CARTESIAN Y     1.437605     -1.504064  KCAL/ANGSTROM
     45         15  H    CARTESIAN Z     1.421231      0.564020  KCAL/ANGSTROM
     46         16  H    CARTESIAN X     0.353480     -0.870982  KCAL/ANGSTROM
     47         16  H    CARTESIAN Y     0.627869      0.577805  KCAL/ANGSTROM
     48         16  H    CARTESIAN Z     1.596166     -0.397430  KCAL/ANGSTROM
     49         17  H    CARTESIAN X     2.513753      0.144664  KCAL/ANGSTROM
     50         17  H    CARTESIAN Y     1.206634      0.658443  KCAL/ANGSTROM
     51         17  H    CARTESIAN Z     0.357219      0.049870  KCAL/ANGSTROM
     52         18  H    CARTESIAN X     2.521556      0.111627  KCAL/ANGSTROM
     53         18  H    CARTESIAN Y    -0.582639     -0.546420  KCAL/ANGSTROM
     54         18  H    CARTESIAN Z     0.698176      0.325561  KCAL/ANGSTROM
     55         19  H    CARTESIAN X     2.908341     -1.703770  KCAL/ANGSTROM
     56         19  H    CARTESIAN Y    -0.054316     -0.371216  KCAL/ANGSTROM
     57         19  H    CARTESIAN Z    -1.588355     -0.732926  KCAL/ANGSTROM




   ATOM   CHEMICAL          X               Y               Z
  NUMBER   SYMBOL      (ANGSTROMS)     (ANGSTROMS)     (ANGSTROMS)

     1       C         -1.06307980  *  -1.82670549  *   0.21872242  *
     2       N         -0.36817819  *  -0.63979138  *  -0.03186412  *
     3       C         -0.50526649  *   0.68580497  *  -0.56227093  *
     4       C         -1.76140737  *   1.46169963  *  -0.21199029  *
     5       O         -2.18639722  *   0.90223641  *   1.01499528  *
     6       C          0.53342854  *   0.31986093  *   0.54277328  *
     7       C          2.00205252  *   0.23944635  *   0.16182204  *
     8       O          1.99255865  *  -0.03055007  *  -1.22371568  *
     9       H         -2.03284610  *  -1.61258303  *   0.75871325  *
    10       H         -1.35456509  *  -2.34078323  *  -0.73358838  *
    11       H         -0.47604326  *  -2.54296828  *   0.83959267  *
    12       H         -0.12273696  *   0.87012524  *  -1.59616603  *
    13       H         -1.53387020  *   2.54296828  *  -0.09025206  *
    14       H         -2.56234126  *   1.32843149  *  -0.97019309  *
    15       H         -2.90834054  *   1.43760540  *   1.42123100  *
    16       H          0.35348007  *   0.62786877  *   1.59616603  *
    17       H          2.51375313  *   1.20663362  *   0.35721871  *
    18       H          2.52155609  *  -0.58263917  *   0.69817620  *
    19       H          2.90834054  *  -0.05431559  *  -1.58835503  *

                             CARTESIAN COORDINATES

   1    C       -1.063079803    -1.826705492     0.218722419
   2    N       -0.368178187    -0.639791379    -0.031864120
   3    C       -0.505266492     0.685804966    -0.562270926
   4    C       -1.761407366     1.461699632    -0.211990288
   5    O       -2.186397216     0.902236410     1.014995281
   6    C        0.533428543     0.319860929     0.542773278
   7    C        2.002052520     0.239446348     0.161822037
   8    O        1.992558653    -0.030550071    -1.223715677
   9    H       -2.032846104    -1.612583032     0.758713253
  10    H       -1.354565095    -2.340783233    -0.733588376
  11    H       -0.476043257    -2.542968283     0.839592666
  12    H       -0.122736960     0.870125237    -1.596166033
  13    H       -1.533870202     2.542968283    -0.090252064
  14    H       -2.562341259     1.328431491    -0.970193092
  15    H       -2.908340540     1.437605403     1.421231004
  16    H        0.353480069     0.627868771     1.596166033
  17    H        2.513753126     1.206633621     0.357218713
  18    H        2.521556093    -0.582639174     0.698176201
  19    H        2.908340540    -0.054315593    -1.588355033


           Empirical Formula: C5 H11 N O2  =    19 atoms



      MOLECULAR POINT GROUP   :   C1  


          ALPHA EIGENVALUES  
 -39.39151 -30.13698 -29.95122 -28.62651 -26.09763 -24.91157 -21.40507 -21.19650
 -19.29154 -18.31195 -17.52789 -17.11111 -16.86479 -16.32786 -15.71209 -14.92101
 -14.15277 -13.88821 -13.37833 -13.12739 -12.80990 -11.73825 -11.45895 -11.20766
  -0.24925   0.83381   1.86265   2.15768   2.34207   2.81542   2.93370   3.71195
   4.35175   4.47505   4.63580   4.74522   4.95713   4.98753   5.21571   5.22283
   5.31860   5.60001   5.63662


           BETA EIGENVALUES 
 -37.89770 -30.01742 -29.92826 -28.39237 -26.04588 -24.73692 -20.96409 -20.93371
 -18.94669 -18.24961 -17.37120 -16.70042 -16.49204 -16.15897 -15.63326 -14.56116
 -14.05624 -13.78997 -13.27017 -12.89554 -12.75315 -11.44275 -11.27197  -2.07768
   0.41315   0.97293   2.00031   2.18424   2.45719   2.92663   2.95805   4.23184
   4.48832   4.64434   4.70798   4.78403   4.96930   4.99753   5.21592   5.22373
   5.40524   5.60977   5.64484


              NET ATOMIC CHARGES AND DIPOLE CONTRIBUTIONS

  ATOM NO.   TYPE          CHARGE      No. of ELECS.   s-Pop       p-Pop       
    1          C          -0.285096        4.2851     1.07057     3.21452
    2          N           0.016543        4.9835     1.54857     3.43489
    3          C          -0.047417        4.0474     1.10682     2.94060
    4          C           0.010858        3.9891     1.09075     2.89839
    5          O          -0.623917        6.6239     1.84524     4.77867
    6          C          -0.057600        4.0576     1.10667     2.95093
    7          C           0.020319        3.9797     1.08984     2.88984
    8          O          -0.619728        6.6197     1.84480     4.77493
    9          H           0.242343        0.7577     0.75766
   10          H           0.227345        0.7727     0.77265
   11          H           0.213644        0.7864     0.78636
   12          H           0.241211        0.7588     0.75879
   13          H           0.170359        0.8296     0.82964
   14          H           0.167353        0.8326     0.83265
   15          H           0.379716        0.6203     0.62028
   16          H           0.232216        0.7678     0.76778
   17          H           0.169199        0.8308     0.83080
   18          H           0.165648        0.8344     0.83435
   19          H           0.377004        0.6230     0.62300
 DIPOLE           X         Y         Z       TOTAL
 POINT-CHG.    -0.426    -0.127     0.917     1.019
 HYBRID        -0.174    -0.396    -0.012     0.433
 SUM           -0.599    -0.523     0.905     1.205


          ATOMIC ORBITAL ELECTRON POPULATIONS

     Atom    s        px        py        pz   
    1  C   1.07057   1.10374   0.90802   1.20276
    2  N   1.54857   1.17189   1.07602   1.18698
    3  C   1.10682   1.02624   0.82222   1.09214
    4  C   1.09075   0.98108   1.05147   0.86584
    5  O   1.84524   1.68083   1.63762   1.46022
    6  C   1.10667   0.96240   0.89543   1.09311
    7  C   1.08984   0.95053   1.15084   0.78846
    8  O   1.84480   1.48349   1.96337   1.32806
    9  H   0.75766
   10  H   0.77265
   11  H   0.78636
   12  H   0.75879
   13  H   0.82964
   14  H   0.83265
   15  H   0.62028
   16  H   0.76778
   17  H   0.83080
   18  H   0.83435
   19  H   0.62300


                    (SZ)    =    0.500000
                    (S**2)  =    0.762613


          ATOMIC ORBITAL SPIN POPULATIONS

    Atom   Total    s     px     py     pz   
         Atomic
    1  C -0.0262 -0.006  0.001 -0.031  0.009
    2  N  0.9412  0.053  0.332  0.138  0.418
    3  C -0.0587 -0.005 -0.012 -0.044  0.003
    4  C  0.0324  0.004  0.014  0.012  0.002
    5  O -0.0016  0.000  0.000 -0.001 -0.001
    6  C -0.0567 -0.005 -0.015 -0.034 -0.003
    7  C  0.0310  0.004  0.024  0.001  0.001
    8  O -0.0001  0.000  0.000  0.001 -0.001
    9  H  0.0641  0.064
   10  H  0.0279  0.028
   11  H  0.0041  0.004
   12  H  0.0224  0.022
   13  H  0.0001  0.000
   14  H -0.0012 -0.001
   15  H  0.0005  0.001
   16  H  0.0227  0.023
   17  H -0.0029 -0.003
   18  H -0.0001 -0.000
   19  H  0.0009  0.001

 **********************
 *                    *
 * JOB ENDED NORMALLY *
 *                    *
 **********************



 TOTAL JOB TIME:             0.81 SECONDS

 == MOPAC DONE ==
