 *******************************************************************************
 **                                                                           **
 **                              MOPAC v23.2                                  **
 **                                                                           **
 *******************************************************************************
 **          Digital Object Identifier (DOI): 10.5281/zenodo.6511958          **
 **    Visit the DOI location for information on how to cite this program.    **
 *******************************************************************************

                              PM7 CALCULATION RESULTS

 *******************************************************************************
 *  CALCULATION DONE: (MAX THREADS = 40)             Fri Sep 19 21:30:12 2025  *
 *  PM7        - The PM7 Hamiltonian to be used
 *
 *
 *
 *                 CHARGE ON SYSTEM = +1
 *
 *
 *
 *  1SCF       - DO 1 SCF AND THEN STOP 
 *  T=         - A TIME OF 172800.0 SECONDS REQUESTED
 *  DUMP=N     - RESTART FILE WRITTEN EVERY 7200.0 SECONDS REQUESTED
 *  RELSCF     - DEFAULT SCF CRITERION MULTIPLIED BY 0.0001
 *              (DEFAULT SCF CRITERION = 0.00010)
 *  GRADIENTS  - ALL GRADIENTS TO BE PRINTED
 *  DISP       - PRINT DISPERSION AND HYDROGEN BOND ENERGIES
 *******************************************************************************
PM7 1SCF GRADIENTS DISP RELSCF=0.0001 CHARGE=1
 Title: ASE calculation

   ATOM   CHEMICAL          X               Y               Z
  NUMBER   SYMBOL      (ANGSTROMS)     (ANGSTROMS)     (ANGSTROMS)

     1       C         -1.22573546  *  -0.94272015  *  -1.34420801  *
     2       N         -0.76439412  *  -0.46505990  *  -0.07530518  *
     3       C         -1.64087777  *   0.29457221  *   0.76395367  *
     4       C          0.53734118  *  -0.86298190  *   0.41085178  *
     5       C          0.42938927  *  -2.10611510  *   1.25509713  *
     6       C          1.75560388  *  -0.62080992  *  -0.45801645  *
     7       C          1.57051884  *   0.21850982  *   0.78714205  *
     8       C          1.25680197  *   1.60636135  *   0.65839580  *
     9       N          1.01568628  *   2.73334582  *   0.57229643  *
    10       H         -1.75268425  *  -1.92709539  *  -1.22847859  *
    11       H         -1.95368763  *  -0.25271568  *  -1.83010351  *
    12       H         -0.39721721  *  -1.12085648  *  -2.06727362  *
    13       H         -2.33284596  *   0.95249209  *   0.18777229  *
    14       H         -2.28762386  *  -0.38007105  *   1.38363410  *
    15       H         -1.09498631  *   0.94553532  *   1.48691678  *
    16       H          0.01203256  *  -2.96090725  *   0.69868726  *
    17       H         -0.18452169  *  -1.95871712  *   2.15835696  *
    18       H          1.42076390  *  -2.44504981  *   1.61177403  *
    19       H          2.54978406  *  -1.37658934  *  -0.49145185  *
    20       H          1.67394750  *  -0.15719862  *  -1.44468942  *
    21       H          2.21713104  *   0.00937564  *   1.67129762  *



          CARTESIAN COORDINATES 

    NO.       ATOM           X           Y           Z

     1         C         -1.2257     -0.9427     -1.3442
     2         N         -0.7644     -0.4651     -0.0753
     3         C         -1.6409      0.2946      0.7640
     4         C          0.5373     -0.8630      0.4109
     5         C          0.4294     -2.1061      1.2551
     6         C          1.7556     -0.6208     -0.4580
     7         C          1.5705      0.2185      0.7871
     8         C          1.2568      1.6064      0.6584
     9         N          1.0157      2.7333      0.5723
    10         H         -1.7527     -1.9271     -1.2285
    11         H         -1.9537     -0.2527     -1.8301
    12         H         -0.3972     -1.1209     -2.0673
    13         H         -2.3328      0.9525      0.1878
    14         H         -2.2876     -0.3801      1.3836
    15         H         -1.0950      0.9455      1.4869
    16         H          0.0120     -2.9609      0.6987
    17         H         -0.1845     -1.9587      2.1584
    18         H          1.4208     -2.4450      1.6118
    19         H          2.5498     -1.3766     -0.4915
    20         H          1.6739     -0.1572     -1.4447
    21         H          2.2171      0.0094      1.6713

 General Reference for PM7:
 "Optimization of Parameters for Semiempirical Methods VI: More Modifications to the 
 NDDO Approximations and Re-optimization of Parameters", J. J. P. Stewart, J. Mol. Mod., 1:32, 19 (2013)
 https://link.springer.com/article/10.1007/s00894-012-1667-x

           Empirical Formula: C7 H12 N2  =    21 atoms



      MOLECULAR POINT GROUP   :   C1  


          UHF CALCULATION, NO. OF ALPHA ELECTRONS =   25
                           NO. OF BETA  ELECTRONS =   24
  SCF CRITERION =    0.1000E-07

 -------------------------------------------------------------------------------
 PM7 1SCF GRADIENTS DISP RELSCF=0.0001 CHARGE=1
 Title: ASE calculation



     1SCF WAS SPECIFIED, SO BFGS WAS NOT USED                 
     SCF FIELD WAS ACHIEVED                                   


                              PM7 CALCULATION
                                                       MOPAC v23.2 Linux
                                                       Fri Sep 19 21:30:13 2025




          FINAL HEAT OF FORMATION =        219.13151 KCAL/MOL =     916.84624 KJ/MOL

          TOTAL ENERGY            =     -31943.73248 KCAL/MOL = ELECTRONIC ENERGY + CORE-CORE REPULSION
          ENERGY OF ATOMS         =      32165.36403 KCAL/MOL
                              SUM =        221.63155 KCAL/MOL
          DISPERSION ENERGY       =         -2.50004 KCAL/MOL
                              SUM =        219.13151 KCAL/MOL = FINAL HEAT OF FORMATION



          TOTAL ENERGY            =      -1385.21135 EV
          ELECTRONIC ENERGY       =      -7278.34651 EV 
          CORE-CORE REPULSION     =       5893.13517 EV
          COSMO AREA              =        173.06 SQUARE ANGSTROMS
          COSMO VOLUME            =        179.78 CUBIC ANGSTROMS

          GRADIENT NORM           =          1.44043          =       0.31433 PER ATOM
          IONIZATION POTENTIAL    =         15.717284 EV
          ALPHA SOMO LUMO (EV)    =        -15.717 -4.519
          BETA  SOMO LUMO (EV)    =        -15.861 -6.499
          NO. OF ALPHA ELECTRONS  =         25
          NO. OF BETA  ELECTRONS  =         24
          MOLECULAR WEIGHT        =        124.1852         POINT GROUP:  C1  

          MOLECULAR DIMENSIONS (Angstroms)

            Atom       Atom       Distance
            H    16    N     9     5.78341
            H    21    H    11     5.37630
            H    19    H    14     4.65291


          SCF CALCULATIONS        =          1

          WALL-CLOCK TIME         =      1.016 SECONDS
          COMPUTATION TIME        =      0.683 SECONDS

          LARGEST ATOMIC GRADIENTS

          Atom     Label                     Cartesian Gradients           Cartesian Coordinates       |Gradient|
                                           X          Y          Z        X          Y          Z

             9       N                  -0.024     -0.003      0.438    1.01569    2.73335    0.57230      0.439
            17       H                  -0.420      0.124      0.015   -0.18452   -1.95872    2.15836      0.438
            19       H                  -0.336      0.083      0.245    2.54978   -1.37659   -0.49145      0.424
             4       C                   0.351     -0.154      0.148    0.53734   -0.86298    0.41085      0.412
            18       H                  -0.069     -0.309     -0.245    1.42076   -2.44505    1.61177      0.400
            20       H                  -0.094     -0.080     -0.371    1.67395   -0.15720   -1.44469      0.391
             8       C                  -0.183      0.024     -0.343    1.25680    1.60636    0.65840      0.389
             2       N                   0.341     -0.137     -0.041   -0.76439   -0.46506   -0.07531      0.370
            10       H                  -0.008     -0.243      0.273   -1.75268   -1.92710   -1.22848      0.366
             6       C                   0.015      0.259     -0.165    1.75560   -0.62081   -0.45802      0.307



       FINAL  POINT  AND  DERIVATIVES

   PARAMETER     ATOM    TYPE            VALUE        GRADIENT
      1          1  C    CARTESIAN X    -1.225735      0.046038  KCAL/ANGSTROM
      2          1  C    CARTESIAN Y    -0.942720     -0.080124  KCAL/ANGSTROM
      3          1  C    CARTESIAN Z    -1.344208      0.050133  KCAL/ANGSTROM
      4          2  N    CARTESIAN X    -0.764394      0.340977  KCAL/ANGSTROM
      5          2  N    CARTESIAN Y    -0.465060     -0.137047  KCAL/ANGSTROM
      6          2  N    CARTESIAN Z    -0.075305     -0.040551  KCAL/ANGSTROM
      7          3  C    CARTESIAN X    -1.640878      0.200349  KCAL/ANGSTROM
      8          3  C    CARTESIAN Y     0.294572     -0.035929  KCAL/ANGSTROM
      9          3  C    CARTESIAN Z     0.763954     -0.134430  KCAL/ANGSTROM
     10          4  C    CARTESIAN X     0.537341      0.351438  KCAL/ANGSTROM
     11          4  C    CARTESIAN Y    -0.862982     -0.154298  KCAL/ANGSTROM
     12          4  C    CARTESIAN Z     0.410852      0.148442  KCAL/ANGSTROM
     13          5  C    CARTESIAN X     0.429389      0.027881  KCAL/ANGSTROM
     14          5  C    CARTESIAN Y    -2.106115      0.059951  KCAL/ANGSTROM
     15          5  C    CARTESIAN Z     1.255097      0.176520  KCAL/ANGSTROM
     16          6  C    CARTESIAN X     1.755604      0.015279  KCAL/ANGSTROM
     17          6  C    CARTESIAN Y    -0.620810      0.258522  KCAL/ANGSTROM
     18          6  C    CARTESIAN Z    -0.458016     -0.165377  KCAL/ANGSTROM
     19          7  C    CARTESIAN X     1.570519     -0.036146  KCAL/ANGSTROM
     20          7  C    CARTESIAN Y     0.218510     -0.109670  KCAL/ANGSTROM
     21          7  C    CARTESIAN Z     0.787142     -0.002209  KCAL/ANGSTROM
     22          8  C    CARTESIAN X     1.256802     -0.182536  KCAL/ANGSTROM
     23          8  C    CARTESIAN Y     1.606361      0.023851  KCAL/ANGSTROM
     24          8  C    CARTESIAN Z     0.658396     -0.342515  KCAL/ANGSTROM
     25          9  N    CARTESIAN X     1.015686     -0.023762  KCAL/ANGSTROM
     26          9  N    CARTESIAN Y     2.733346     -0.003339  KCAL/ANGSTROM
     27          9  N    CARTESIAN Z     0.572296      0.438093  KCAL/ANGSTROM
     28         10  H    CARTESIAN X    -1.752684     -0.008322  KCAL/ANGSTROM
     29         10  H    CARTESIAN Y    -1.927095     -0.243399  KCAL/ANGSTROM
     30         10  H    CARTESIAN Z    -1.228479      0.272659  KCAL/ANGSTROM
     31         11  H    CARTESIAN X    -1.953688     -0.064567  KCAL/ANGSTROM
     32         11  H    CARTESIAN Y    -0.252716      0.028723  KCAL/ANGSTROM
     33         11  H    CARTESIAN Z    -1.830104      0.004470  KCAL/ANGSTROM
     34         12  H    CARTESIAN X    -0.397217      0.045665  KCAL/ANGSTROM
     35         12  H    CARTESIAN Y    -1.120856      0.191633  KCAL/ANGSTROM
     36         12  H    CARTESIAN Z    -2.067274      0.054699  KCAL/ANGSTROM
     37         13  H    CARTESIAN X    -2.332846      0.013536  KCAL/ANGSTROM
     38         13  H    CARTESIAN Y     0.952492      0.093071  KCAL/ANGSTROM
     39         13  H    CARTESIAN Z     0.187772     -0.039664  KCAL/ANGSTROM
     40         14  H    CARTESIAN X    -2.287624      0.232494  KCAL/ANGSTROM
     41         14  H    CARTESIAN Y    -0.380071     -0.040758  KCAL/ANGSTROM
     42         14  H    CARTESIAN Z     1.383634      0.173894  KCAL/ANGSTROM
     43         15  H    CARTESIAN X    -1.094986      0.101228  KCAL/ANGSTROM
     44         15  H    CARTESIAN Y     0.945535      0.092716  KCAL/ANGSTROM
     45         15  H    CARTESIAN Z     1.486917     -0.264250  KCAL/ANGSTROM
     46         16  H    CARTESIAN X     0.012033      0.106109  KCAL/ANGSTROM
     47         16  H    CARTESIAN Y    -2.960907      0.230616  KCAL/ANGSTROM
     48         16  H    CARTESIAN Z     0.698687     -0.119792  KCAL/ANGSTROM
     49         17  H    CARTESIAN X    -0.184522     -0.419736  KCAL/ANGSTROM
     50         17  H    CARTESIAN Y    -1.958717      0.124183  KCAL/ANGSTROM
     51         17  H    CARTESIAN Z     2.158357      0.014531  KCAL/ANGSTROM
     52         18  H    CARTESIAN X     1.420764     -0.069134  KCAL/ANGSTROM
     53         18  H    CARTESIAN Y    -2.445050     -0.308658  KCAL/ANGSTROM
     54         18  H    CARTESIAN Z     1.611774     -0.245318  KCAL/ANGSTROM
     55         19  H    CARTESIAN X     2.549784     -0.336140  KCAL/ANGSTROM
     56         19  H    CARTESIAN Y    -1.376589      0.082835  KCAL/ANGSTROM
     57         19  H    CARTESIAN Z    -0.491452      0.245070  KCAL/ANGSTROM
     58         20  H    CARTESIAN X     1.673947     -0.093806  KCAL/ANGSTROM
     59         20  H    CARTESIAN Y    -0.157199     -0.080283  KCAL/ANGSTROM
     60         20  H    CARTESIAN Z    -1.444689     -0.370626  KCAL/ANGSTROM
     61         21  H    CARTESIAN X     2.217131     -0.246845  KCAL/ANGSTROM
     62         21  H    CARTESIAN Y     0.009376      0.007399  KCAL/ANGSTROM
     63         21  H    CARTESIAN Z     1.671298      0.146218  KCAL/ANGSTROM




   ATOM   CHEMICAL          X               Y               Z
  NUMBER   SYMBOL      (ANGSTROMS)     (ANGSTROMS)     (ANGSTROMS)

     1       C         -1.22573546  *  -0.94272015  *  -1.34420801  *
     2       N         -0.76439412  *  -0.46505990  *  -0.07530518  *
     3       C         -1.64087777  *   0.29457221  *   0.76395367  *
     4       C          0.53734118  *  -0.86298190  *   0.41085178  *
     5       C          0.42938927  *  -2.10611510  *   1.25509713  *
     6       C          1.75560388  *  -0.62080992  *  -0.45801645  *
     7       C          1.57051884  *   0.21850982  *   0.78714205  *
     8       C          1.25680197  *   1.60636135  *   0.65839580  *
     9       N          1.01568628  *   2.73334582  *   0.57229643  *
    10       H         -1.75268425  *  -1.92709539  *  -1.22847859  *
    11       H         -1.95368763  *  -0.25271568  *  -1.83010351  *
    12       H         -0.39721721  *  -1.12085648  *  -2.06727362  *
    13       H         -2.33284596  *   0.95249209  *   0.18777229  *
    14       H         -2.28762386  *  -0.38007105  *   1.38363410  *
    15       H         -1.09498631  *   0.94553532  *   1.48691678  *
    16       H          0.01203256  *  -2.96090725  *   0.69868726  *
    17       H         -0.18452169  *  -1.95871712  *   2.15835696  *
    18       H          1.42076390  *  -2.44504981  *   1.61177403  *
    19       H          2.54978406  *  -1.37658934  *  -0.49145185  *
    20       H          1.67394750  *  -0.15719862  *  -1.44468942  *
    21       H          2.21713104  *   0.00937564  *   1.67129762  *

                             CARTESIAN COORDINATES

   1    C       -1.225735459    -0.942720153    -1.344208007
   2    N       -0.764394121    -0.465059901    -0.075305182
   3    C       -1.640877769     0.294572206     0.763953673
   4    C        0.537341184    -0.862981896     0.410851784
   5    C        0.429389273    -2.106115096     1.255097132
   6    C        1.755603880    -0.620809916    -0.458016449
   7    C        1.570518837     0.218509822     0.787142048
   8    C        1.256801971     1.606361345     0.658395802
   9    N        1.015686283     2.733345819     0.572296428
  10    H       -1.752684251    -1.927095390    -1.228478588
  11    H       -1.953687630    -0.252715682    -1.830103509
  12    H       -0.397217208    -1.120856479    -2.067273624
  13    H       -2.332845961     0.952492091     0.187772292
  14    H       -2.287623865    -0.380071052     1.383634101
  15    H       -1.094986312     0.945535323     1.486916776
  16    H        0.012032564    -2.960907250     0.698687256
  17    H       -0.184521695    -1.958717123     2.158356956
  18    H        1.420763896    -2.445049812     1.611774033
  19    H        2.549784059    -1.376589336    -0.491451847
  20    H        1.673947497    -0.157198619    -1.444689417
  21    H        2.217131041     0.009375644     1.671297617


           Empirical Formula: C7 H12 N2  =    21 atoms



      MOLECULAR POINT GROUP   :   C1  


          ALPHA EIGENVALUES  
 -43.06459 -38.62180 -35.69394 -31.15088 -30.53231 -29.00663 -27.09836 -24.99454
 -23.56197 -22.66707 -22.34912 -21.03612 -20.14721 -19.33857 -19.12992 -19.04386
 -18.64396 -18.37453 -18.03138 -17.92541 -17.49037 -16.85301 -16.50137 -16.11471
 -15.71728  -4.51874  -3.64410  -2.75002  -2.32001  -1.80735  -1.53303  -1.39309
  -1.21078  -0.98764  -0.73066  -0.29061  -0.20978  -0.00381   0.05800   0.70653
   0.77735   0.85355   0.94687   1.00336   1.07641   1.56347   1.92118   2.14663


           BETA EIGENVALUES 
 -41.45468 -38.61034 -35.56970 -30.93473 -30.43331 -28.63925 -27.08398 -24.69542
 -23.50041 -22.05438 -21.69755 -20.69349 -20.04057 -19.21339 -19.05248 -18.82365
 -18.58729 -18.32058 -17.91449 -17.88176 -17.45662 -16.84157 -16.25331 -15.86133
  -6.49935  -3.86830  -3.62181  -2.74760  -2.29417  -1.51096  -1.46815  -1.15344
  -1.07642  -0.81385  -0.71053  -0.18758  -0.00053   0.08343   0.16141   0.75291
   0.78547   0.89114   0.95739   1.02061   1.07926   1.56494   1.92362   2.14977


              NET ATOMIC CHARGES AND DIPOLE CONTRIBUTIONS

  ATOM NO.   TYPE          CHARGE      No. of ELECS.   s-Pop       p-Pop       
    1          C          -0.338229        4.3382     1.07161     3.26661
    2          N           0.070060        4.9299     1.53012     3.39982
    3          C          -0.342730        4.3427     1.07184     3.27089
    4          C           0.053007        3.9470     1.04771     2.89928
    5          C          -0.448042        4.4480     1.05494     3.39311
    6          C          -0.285185        4.2852     1.07031     3.21487
    7          C          -0.133860        4.1339     1.04507     3.08879
    8          C           0.044293        3.9557     1.09920     2.85651
    9          N          -0.128803        5.1288     1.82906     3.29974
   10          H           0.225825        0.7742     0.77418
   11          H           0.214417        0.7856     0.78558
   12          H           0.211475        0.7885     0.78852
   13          H           0.216955        0.7830     0.78305
   14          H           0.225781        0.7742     0.77422
   15          H           0.216759        0.7832     0.78324
   16          H           0.182938        0.8171     0.81706
   17          H           0.182434        0.8176     0.81757
   18          H           0.202770        0.7972     0.79723
   19          H           0.209114        0.7909     0.79089
   20          H           0.193489        0.8065     0.80651
   21          H           0.227533        0.7725     0.77247
 DIPOLE           X         Y         Z       TOTAL
 POINT-CHG.    -4.023    -5.271    -1.112     6.723
 HYBRID        -0.052    -0.300    -0.046     0.308
 SUM           -4.075    -5.570    -1.157     6.998


          ATOMIC ORBITAL ELECTRON POPULATIONS

     Atom    s        px        py        pz   
    1  C   1.07161   1.18826   1.17066   0.90770
    2  N   1.53012   1.13191   1.14394   1.12396
    3  C   1.07184   1.07479   1.10522   1.09088
    4  C   1.04771   0.78750   1.02119   1.09059
    5  C   1.05494   1.23464   1.03000   1.12847
    6  C   1.07031   1.04690   1.11907   1.04890
    7  C   1.04507   1.06917   0.91129   1.10833
    8  C   1.09920   0.96916   0.92185   0.96550
    9  N   1.82906   1.05071   1.19765   1.05139
   10  H   0.77418
   11  H   0.78558
   12  H   0.78852
   13  H   0.78305
   14  H   0.77422
   15  H   0.78324
   16  H   0.81706
   17  H   0.81757
   18  H   0.79723
   19  H   0.79089
   20  H   0.80651
   21  H   0.77247


                    (SZ)    =    0.500000
                    (S**2)  =    0.759619


          ATOMIC ORBITAL SPIN POPULATIONS

    Atom   Total    s     px     py     pz   
         Atomic
    1  C -0.0475 -0.007 -0.008 -0.002 -0.030
    2  N  0.9412  0.044  0.146  0.574  0.177
    3  C -0.0471 -0.007 -0.018 -0.005 -0.017
    4  C -0.0683 -0.007 -0.033 -0.015 -0.013
    5  C  0.0396  0.005  0.001  0.022  0.012
    6  C  0.0107  0.001  0.008  0.003 -0.000
    7  C  0.0231  0.002  0.016  0.004  0.001
    8  C -0.0041 -0.000 -0.002 -0.001 -0.001
    9  N  0.0046  0.000  0.003  0.000  0.001
   10  H  0.0511  0.051
   11  H  0.0139  0.014
   12  H  0.0116  0.012
   13  H  0.0149  0.015
   14  H  0.0513  0.051
   15  H  0.0110  0.011
   16  H -0.0016 -0.002
   17  H -0.0014 -0.001
   18  H -0.0002 -0.000
   19  H -0.0010 -0.001
   20  H -0.0008 -0.001
   21  H -0.0010 -0.001

 **********************
 *                    *
 * JOB ENDED NORMALLY *
 *                    *
 **********************



 TOTAL JOB TIME:             1.51 SECONDS

 == MOPAC DONE ==
