 *******************************************************************************
 **                                                                           **
 **                              MOPAC v23.2                                  **
 **                                                                           **
 *******************************************************************************
 **          Digital Object Identifier (DOI): 10.5281/zenodo.6511958          **
 **    Visit the DOI location for information on how to cite this program.    **
 *******************************************************************************

                              PM7 CALCULATION RESULTS

 *******************************************************************************
 *  CALCULATION DONE: (MAX THREADS = 40)             Fri Sep 19 21:32:03 2025  *
 *  PM7        - The PM7 Hamiltonian to be used
 *
 *
 *
 *                 CHARGE ON SYSTEM = +1
 *
 *
 *
 *  EPS=37.5   - USE ANDREAS KLAMT'S COSMO IMPLICIT SOLVATION MODEL
 *  1SCF       - DO 1 SCF AND THEN STOP 
 *  T=         - A TIME OF 172800.0 SECONDS REQUESTED
 *  DUMP=N     - RESTART FILE WRITTEN EVERY 7200.0 SECONDS REQUESTED
 *  RELSCF     - DEFAULT SCF CRITERION MULTIPLIED BY 0.0001
 *              (DEFAULT SCF CRITERION = 0.00010)
 *  GRADIENTS  - ALL GRADIENTS TO BE PRINTED
 *  DISP       - PRINT DISPERSION AND HYDROGEN BOND ENERGIES
 *******************************************************************************
PM7 1SCF GRADIENTS EPS=37.5 DISP RELSCF=0.0001 CHARGE=1
 Title: ASE calculation

   ATOM   CHEMICAL          X               Y               Z
  NUMBER   SYMBOL      (ANGSTROMS)     (ANGSTROMS)     (ANGSTROMS)

     1       O         -3.62199546  *   0.03258483  *  -0.43682914  *
     2       C         -2.55096135  *   0.55062037  *  -0.17022884  *
     3       C         -1.23666797  *   0.03690811  *  -0.59257330  *
     4       C         -0.10106356  *   1.07561520  *  -0.46669478  *
     5       O          1.13361578  *   0.39837983  *  -0.43835310  *
     6       C          1.45302291  *  -0.27204458  *   0.72030678  *
     7       O          0.66525218  *  -0.31600187  *   1.62483019  *
     8       C          2.82711441  *  -0.89183493  *   0.59228481  *
     9       O          2.93720381  *  -1.54410779  *  -0.63819697  *
    10       H         -2.58649046  *   1.49384484  *   0.47123504  *
    11       H         -1.25167789  *  -0.40390452  *  -1.62483019  *
    12       H         -0.97576082  *  -0.86280215  *   0.05871404  *
    13       H         -0.00730514  *   1.71221243  *  -1.37381463  *
    14       H         -0.20490567  *   1.70933536  *   0.43641715  *
    15       H          2.95365703  *  -1.71221243  *   1.34203028  *
    16       H          3.62199546  *  -0.13149946  *   0.74256218  *
    17       H          3.11348515  *  -0.90337191  *  -1.36944717  *



          CARTESIAN COORDINATES 

    NO.       ATOM           X           Y           Z

     1         O         -3.6220      0.0326     -0.4368
     2         C         -2.5510      0.5506     -0.1702
     3         C         -1.2367      0.0369     -0.5926
     4         C         -0.1011      1.0756     -0.4667
     5         O          1.1336      0.3984     -0.4384
     6         C          1.4530     -0.2720      0.7203
     7         O          0.6653     -0.3160      1.6248
     8         C          2.8271     -0.8918      0.5923
     9         O          2.9372     -1.5441     -0.6382
    10         H         -2.5865      1.4938      0.4712
    11         H         -1.2517     -0.4039     -1.6248
    12         H         -0.9758     -0.8628      0.0587
    13         H         -0.0073      1.7122     -1.3738
    14         H         -0.2049      1.7093      0.4364
    15         H          2.9537     -1.7122      1.3420
    16         H          3.6220     -0.1315      0.7426
    17         H          3.1135     -0.9034     -1.3694

 General Reference for PM7:
 "Optimization of Parameters for Semiempirical Methods VI: More Modifications to the 
 NDDO Approximations and Re-optimization of Parameters", J. J. P. Stewart, J. Mol. Mod., 1:32, 19 (2013)
 https://link.springer.com/article/10.1007/s00894-012-1667-x

           Empirical Formula: C5 H8 O4  =    17 atoms



      MOLECULAR POINT GROUP   :   C1  


          UHF CALCULATION, NO. OF ALPHA ELECTRONS =   26
                           NO. OF BETA  ELECTRONS =   25
  SCF CRITERION =    0.1000E-07

 -------------------------------------------------------------------------------
 PM7 1SCF GRADIENTS EPS=37.5 DISP RELSCF=0.0001 CHARGE=1
 Title: ASE calculation



     1SCF WAS SPECIFIED, SO BFGS WAS NOT USED                 
     SCF FIELD WAS ACHIEVED                                   


                              PM7 CALCULATION
                                                       MOPAC v23.2 Linux
                                                       Fri Sep 19 21:32:04 2025




          FINAL HEAT OF FORMATION =        -11.21216 KCAL/MOL =     -46.91168 KJ/MOL

          TOTAL ENERGY            =     -43736.93351 KCAL/MOL = ELECTRONIC ENERGY + CORE-CORE REPULSION + SOLVATION ENERGY
          ENERGY OF ATOMS         =      43727.36230 KCAL/MOL
                              SUM =         -9.57120 KCAL/MOL
          DISPERSION ENERGY       =         -1.64096 KCAL/MOL
                              SUM =        -11.21216 KCAL/MOL = FINAL HEAT OF FORMATION

          VAN DER WAALS AREA      =        163.39 SQUARE ANGSTROMS


          TOTAL ENERGY            =      -1896.61294 EV
          ELECTRONIC ENERGY       =      -2394.02946 EV 
          CORE-CORE REPULSION     =        497.41652 EV

          DIELECTRIC ENERGY       =         -3.18107 EV
          COSMO AREA              =        163.39 SQUARE ANGSTROMS
          COSMO VOLUME            =        154.97 CUBIC ANGSTROMS

          GRADIENT NORM           =         39.80964          =       9.65526 PER ATOM
          IONIZATION POTENTIAL    =         11.245219 EV
          ALPHA SOMO LUMO (EV)    =        -11.247 -1.581
          BETA  SOMO LUMO (EV)    =        -11.245 -3.700
          NO. OF ALPHA ELECTRONS  =         26
          NO. OF BETA  ELECTRONS  =         25
          MOLECULAR WEIGHT        =        132.1158         POINT GROUP:  C1  

          MOLECULAR DIMENSIONS (Angstroms)

            Atom       Atom       Distance
            H    16    O     1     7.34121
            H    15    H    13     4.00915
            H    10    H    17     3.53485


          SCF CALCULATIONS        =          2

          WALL-CLOCK TIME         =      0.727 SECONDS
          COMPUTATION TIME        =      0.578 SECONDS

          LARGEST ATOMIC GRADIENTS

          Atom     Label                     Cartesian Gradients           Cartesian Coordinates       |Gradient|
                                           X          Y          Z        X          Y          Z

             6       C                   0.201     -8.134     22.502    1.45302   -0.27204    0.72031     23.928
             5       O                 -12.534      9.335    -10.760    1.13362    0.39838   -0.43835     18.974
             4       C                  13.470      0.499      0.959   -0.10106    1.07562   -0.46669     13.513
             7       O                   0.089      2.298    -11.695    0.66525   -0.31600    1.62483     11.919
             3       C                  -8.111     -0.036     -3.810   -1.23667    0.03691   -0.59257      8.961
             1       O                  -5.981     -4.550     -2.432   -3.62200    0.03258   -0.43683      7.899
             2       C                   1.177      5.696      5.183   -2.55096    0.55062   -0.17023      7.791
             8       C                   3.060      2.895     -6.168    2.82711   -0.89183    0.59228      7.469
            12       H                   3.945     -1.973      3.249   -0.97576   -0.86280    0.05871      5.478
            10       H                   2.894     -1.602     -0.438   -2.58649    1.49384    0.47124      3.337



       FINAL  POINT  AND  DERIVATIVES

   PARAMETER     ATOM    TYPE            VALUE        GRADIENT
      1          1  O    CARTESIAN X    -3.621995     -5.981284  KCAL/ANGSTROM
      2          1  O    CARTESIAN Y     0.032585     -4.549545  KCAL/ANGSTROM
      3          1  O    CARTESIAN Z    -0.436829     -2.432019  KCAL/ANGSTROM
      4          2  C    CARTESIAN X    -2.550961      1.176922  KCAL/ANGSTROM
      5          2  C    CARTESIAN Y     0.550620      5.696215  KCAL/ANGSTROM
      6          2  C    CARTESIAN Z    -0.170229      5.183335  KCAL/ANGSTROM
      7          3  C    CARTESIAN X    -1.236668     -8.111134  KCAL/ANGSTROM
      8          3  C    CARTESIAN Y     0.036908     -0.036323  KCAL/ANGSTROM
      9          3  C    CARTESIAN Z    -0.592573     -3.809679  KCAL/ANGSTROM
     10          4  C    CARTESIAN X    -0.101064     13.469620  KCAL/ANGSTROM
     11          4  C    CARTESIAN Y     1.075615      0.498975  KCAL/ANGSTROM
     12          4  C    CARTESIAN Z    -0.466695      0.959458  KCAL/ANGSTROM
     13          5  O    CARTESIAN X     1.133616    -12.533506  KCAL/ANGSTROM
     14          5  O    CARTESIAN Y     0.398380      9.334900  KCAL/ANGSTROM
     15          5  O    CARTESIAN Z    -0.438353    -10.759904  KCAL/ANGSTROM
     16          6  C    CARTESIAN X     1.453023      0.201011  KCAL/ANGSTROM
     17          6  C    CARTESIAN Y    -0.272045     -8.133648  KCAL/ANGSTROM
     18          6  C    CARTESIAN Z     0.720307     22.502362  KCAL/ANGSTROM
     19          7  O    CARTESIAN X     0.665252      0.088638  KCAL/ANGSTROM
     20          7  O    CARTESIAN Y    -0.316002      2.297790  KCAL/ANGSTROM
     21          7  O    CARTESIAN Z     1.624830    -11.695121  KCAL/ANGSTROM
     22          8  C    CARTESIAN X     2.827114      3.060382  KCAL/ANGSTROM
     23          8  C    CARTESIAN Y    -0.891835      2.894811  KCAL/ANGSTROM
     24          8  C    CARTESIAN Z     0.592285     -6.167901  KCAL/ANGSTROM
     25          9  O    CARTESIAN X     2.937204     -1.932294  KCAL/ANGSTROM
     26          9  O    CARTESIAN Y    -1.544108      1.495762  KCAL/ANGSTROM
     27          9  O    CARTESIAN Z    -0.638197      1.074158  KCAL/ANGSTROM
     28         10  H    CARTESIAN X    -2.586490      2.894316  KCAL/ANGSTROM
     29         10  H    CARTESIAN Y     1.493845     -1.601503  KCAL/ANGSTROM
     30         10  H    CARTESIAN Z     0.471235     -0.437511  KCAL/ANGSTROM
     31         11  H    CARTESIAN X    -1.251678      2.132954  KCAL/ANGSTROM
     32         11  H    CARTESIAN Y    -0.403905     -1.352779  KCAL/ANGSTROM
     33         11  H    CARTESIAN Z    -1.624830     -0.501666  KCAL/ANGSTROM
     34         12  H    CARTESIAN X    -0.975761      3.944559  KCAL/ANGSTROM
     35         12  H    CARTESIAN Y    -0.862802     -1.973312  KCAL/ANGSTROM
     36         12  H    CARTESIAN Z     0.058714      3.249066  KCAL/ANGSTROM
     37         13  H    CARTESIAN X    -0.007305      0.530343  KCAL/ANGSTROM
     38         13  H    CARTESIAN Y     1.712212      0.057007  KCAL/ANGSTROM
     39         13  H    CARTESIAN Z    -1.373815     -0.736227  KCAL/ANGSTROM
     40         14  H    CARTESIAN X    -0.204906      0.753481  KCAL/ANGSTROM
     41         14  H    CARTESIAN Y     1.709335     -0.980790  KCAL/ANGSTROM
     42         14  H    CARTESIAN Z     0.436417      0.965142  KCAL/ANGSTROM
     43         15  H    CARTESIAN X     2.953657     -0.072367  KCAL/ANGSTROM
     44         15  H    CARTESIAN Y    -1.712212     -1.100904  KCAL/ANGSTROM
     45         15  H    CARTESIAN Z     1.342030     -0.216483  KCAL/ANGSTROM
     46         16  H    CARTESIAN X     3.621995     -0.275794  KCAL/ANGSTROM
     47         16  H    CARTESIAN Y    -0.131499     -0.737575  KCAL/ANGSTROM
     48         16  H    CARTESIAN Z     0.742562      0.842362  KCAL/ANGSTROM
     49         17  H    CARTESIAN X     3.113485      0.654157  KCAL/ANGSTROM
     50         17  H    CARTESIAN Y    -0.903372     -1.809084  KCAL/ANGSTROM
     51         17  H    CARTESIAN Z    -1.369447      1.980626  KCAL/ANGSTROM




   ATOM   CHEMICAL          X               Y               Z
  NUMBER   SYMBOL      (ANGSTROMS)     (ANGSTROMS)     (ANGSTROMS)

     1       O         -3.62199546  *   0.03258483  *  -0.43682914  *
     2       C         -2.55096135  *   0.55062037  *  -0.17022884  *
     3       C         -1.23666797  *   0.03690811  *  -0.59257330  *
     4       C         -0.10106356  *   1.07561520  *  -0.46669478  *
     5       O          1.13361578  *   0.39837983  *  -0.43835310  *
     6       C          1.45302291  *  -0.27204458  *   0.72030678  *
     7       O          0.66525218  *  -0.31600187  *   1.62483019  *
     8       C          2.82711441  *  -0.89183493  *   0.59228481  *
     9       O          2.93720381  *  -1.54410779  *  -0.63819697  *
    10       H         -2.58649046  *   1.49384484  *   0.47123504  *
    11       H         -1.25167789  *  -0.40390452  *  -1.62483019  *
    12       H         -0.97576082  *  -0.86280215  *   0.05871404  *
    13       H         -0.00730514  *   1.71221243  *  -1.37381463  *
    14       H         -0.20490567  *   1.70933536  *   0.43641715  *
    15       H          2.95365703  *  -1.71221243  *   1.34203028  *
    16       H          3.62199546  *  -0.13149946  *   0.74256218  *
    17       H          3.11348515  *  -0.90337191  *  -1.36944717  *

                             CARTESIAN COORDINATES

   1    O       -3.621995457     0.032584827    -0.436829136
   2    C       -2.550961349     0.550620374    -0.170228843
   3    C       -1.236667973     0.036908108    -0.592573304
   4    C       -0.101063561     1.075615198    -0.466694783
   5    O        1.133615777     0.398379825    -0.438353098
   6    C        1.453022909    -0.272044578     0.720306777
   7    O        0.665252183    -0.316001872     1.624830191
   8    C        2.827114406    -0.891834926     0.592284813
   9    O        2.937203809    -1.544107794    -0.638196968
  10    H       -2.586490463     1.493844837     0.471235035
  11    H       -1.251677893    -0.403904518    -1.624830191
  12    H       -0.975760818    -0.862802147     0.058714040
  13    H       -0.007305144     1.712212427    -1.373814634
  14    H       -0.204905669     1.709335356     0.436417152
  15    H        2.953657034    -1.712212427     1.342030278
  16    H        3.621995457    -0.131499462     0.742562176
  17    H        3.113485149    -0.903371910    -1.369447170


           Empirical Formula: C5 H8 O4  =    17 atoms



      MOLECULAR POINT GROUP   :   C1  


          ALPHA EIGENVALUES  
 -36.45419 -32.26536 -30.80723 -30.36446 -28.92929 -26.18949 -24.27175 -22.31876
 -20.99625 -18.81893 -18.30418 -18.23069 -17.68880 -17.26953 -16.73350 -16.00051
 -15.37406 -15.29692 -14.57540 -13.99480 -13.55445 -13.10981 -12.97787 -12.32508
 -12.06920 -11.24671  -1.58134   0.18601   0.77646   1.43550   1.93412   2.22239
   2.62316   2.71353   3.20539   3.46170   4.14007   4.36065   4.72154   4.90546
   5.05973   5.11334   5.28061   5.58300


           BETA EIGENVALUES 
 -33.37288 -32.25326 -30.79024 -30.34808 -28.60740 -26.10710 -23.91090 -21.77817
 -20.92302 -18.60006 -18.05174 -17.55062 -17.41697 -16.83405 -16.41966 -15.58144
 -15.31740 -15.06846 -14.42716 -13.83915 -13.11679 -12.97677 -12.31503 -12.05341
 -11.24522  -3.69973  -1.37639   0.18742   0.80033   1.91671   2.16181   2.26651
   2.63696   2.92274   3.46613   3.50954   4.15341   4.36100   4.72173   4.90925
   5.05978   5.11310   5.28161   5.58304


              NET ATOMIC CHARGES AND DIPOLE CONTRIBUTIONS

  ATOM NO.   TYPE          CHARGE      No. of ELECS.   s-Pop       p-Pop       
    1          O           0.229641        5.7704     1.90528     3.86508
    2          C           0.238558        3.7614     1.19770     2.56374
    3          C          -0.371265        4.3713     1.07944     3.29183
    4          C          -0.000645        4.0006     1.09595     2.90469
    5          O          -0.438661        6.4387     1.86494     4.57372
    6          C           0.608647        3.3914     1.15473     2.23662
    7          O          -0.569241        6.5692     1.87112     4.69812
    8          C          -0.052925        4.0529     1.09597     2.95696
    9          O          -0.559314        6.5593     1.84591     4.71340
   10          H           0.317624        0.6824     0.68238
   11          H           0.239798        0.7602     0.76020
   12          H           0.254094        0.7459     0.74591
   13          H           0.182790        0.8172     0.81721
   14          H           0.164966        0.8350     0.83503
   15          H           0.201744        0.7983     0.79826
   16          H           0.187893        0.8121     0.81211
   17          H           0.366295        0.6337     0.63371
 DIPOLE           X         Y         Z       TOTAL
 POINT-CHG.    -9.410     5.034    -1.901    10.840
 HYBRID        -0.831    -0.124    -0.378     0.921
 SUM          -10.241     4.910    -2.279    11.583


          ATOMIC ORBITAL ELECTRON POPULATIONS

     Atom    s        px        py        pz   
    1  O   1.90528   1.22461   1.26687   1.37360
    2  C   1.19770   0.90835   0.90762   0.74777
    3  C   1.07944   0.93683   1.12762   1.22738
    4  C   1.09595   0.78102   0.94999   1.17369
    5  O   1.86494   1.43250   1.65695   1.48427
    6  C   1.15473   0.84229   0.67435   0.71999
    7  O   1.87112   1.56546   1.64086   1.49180
    8  C   1.09597   0.98510   1.09115   0.88071
    9  O   1.84591   1.95166   1.46526   1.29648
   10  H   0.68238
   11  H   0.76020
   12  H   0.74591
   13  H   0.81721
   14  H   0.83503
   15  H   0.79826
   16  H   0.81211
   17  H   0.63371


                    (SZ)    =    0.500000
                    (S**2)  =    0.767386


          ATOMIC ORBITAL SPIN POPULATIONS

    Atom   Total    s     px     py     pz   
         Atomic
    1  O  0.9119  0.018  0.154  0.454  0.286
    2  C -0.1233 -0.018 -0.031 -0.022 -0.053
    3  C  0.1143  0.011  0.074  0.021  0.008
    4  C -0.0063 -0.001 -0.003 -0.002 -0.000
    5  O  0.0033  0.000  0.003 -0.000  0.000
    6  C -0.0002 -0.000 -0.000  0.000 -0.000
    7  O -0.0002 -0.000 -0.000  0.000 -0.000
    8  C  0.0002  0.000  0.000  0.000  0.000
    9  O  0.0000  0.000  0.000 -0.000 -0.000
   10  H  0.1106  0.111
   11  H -0.0035 -0.004
   12  H -0.0072 -0.007
   13  H  0.0001  0.000
   14  H  0.0003  0.000
   15  H  0.0000  0.000
   16  H -0.0000 -0.000
   17  H  0.0000  0.000

 **********************
 *                    *
 * JOB ENDED NORMALLY *
 *                    *
 **********************



 TOTAL JOB TIME:             1.12 SECONDS

 == MOPAC DONE ==
