 *******************************************************************************
 **                                                                           **
 **                              MOPAC v23.2                                  **
 **                                                                           **
 *******************************************************************************
 **          Digital Object Identifier (DOI): 10.5281/zenodo.6511958          **
 **    Visit the DOI location for information on how to cite this program.    **
 *******************************************************************************

                              PM7 CALCULATION RESULTS

 *******************************************************************************
 *  CALCULATION DONE: (MAX THREADS = 40)             Fri Sep 19 21:52:14 2025  *
 *  PM7        - The PM7 Hamiltonian to be used
 *
 *
 *
 *                 CHARGE ON SYSTEM = +1
 *
 *
 *
 *  EPS=37.5   - USE ANDREAS KLAMT'S COSMO IMPLICIT SOLVATION MODEL
 *  1SCF       - DO 1 SCF AND THEN STOP 
 *  T=         - A TIME OF 172800.0 SECONDS REQUESTED
 *  DUMP=N     - RESTART FILE WRITTEN EVERY 7200.0 SECONDS REQUESTED
 *  RELSCF     - DEFAULT SCF CRITERION MULTIPLIED BY 0.0001
 *              (DEFAULT SCF CRITERION = 0.00010)
 *  GRADIENTS  - ALL GRADIENTS TO BE PRINTED
 *  DISP       - PRINT DISPERSION AND HYDROGEN BOND ENERGIES
 *******************************************************************************
PM7 1SCF GRADIENTS EPS=37.5 DISP RELSCF=0.0001 CHARGE=1
 Title: ASE calculation

   ATOM   CHEMICAL          X               Y               Z
  NUMBER   SYMBOL      (ANGSTROMS)     (ANGSTROMS)     (ANGSTROMS)

     1       C          1.87696016  *  -0.20951132  *   0.10607589  *
     2       N          0.60325393  *  -0.73555386  *   0.55780660  *
     3       C         -0.44461119  *   0.12928250  *   1.13192463  *
     4       C         -0.48702826  *   1.58328111  *   0.85517672  *
     5       O         -0.43074241  *   2.59998020  *   1.44963500  *
     6       N         -0.70977874  *   1.70518578  *  -0.66147580  *
     7       C         -0.77920238  *   0.43948727  *  -1.30745551  *
     8       C         -0.64360075  *  -0.63321435  *  -0.20057771  *
     9       C         -1.46187135  *  -1.85963159  *  -0.38252592  *
    10       H          2.54458825  *  -0.10117070  *   0.99217086  *
    11       H          2.35574234  *  -0.98360584  *  -0.53581277  *
    12       H          1.87392869  *   0.74150053  *  -0.43886238  *
    13       H         -0.83325828  *  -0.18393239  *   2.11741227  *
    14       H         -0.80298627  *   2.59078256  *  -1.14877918  *
    15       H         -1.74400787  *   0.31192386  *  -1.88873324  *
    16       H         -0.00018003  *   0.31971058  *  -2.11741227  *
    17       H         -1.27946986  *  -2.59998020  *   0.42493561  *
    18       H         -1.21898003  *  -2.39113045  *  -1.31889401  *
    19       H         -2.54458825  *  -1.65826729  *  -0.37886234  *



          CARTESIAN COORDINATES 

    NO.       ATOM           X           Y           Z

     1         C          1.8770     -0.2095      0.1061
     2         N          0.6033     -0.7356      0.5578
     3         C         -0.4446      0.1293      1.1319
     4         C         -0.4870      1.5833      0.8552
     5         O         -0.4307      2.6000      1.4496
     6         N         -0.7098      1.7052     -0.6615
     7         C         -0.7792      0.4395     -1.3075
     8         C         -0.6436     -0.6332     -0.2006
     9         C         -1.4619     -1.8596     -0.3825
    10         H          2.5446     -0.1012      0.9922
    11         H          2.3557     -0.9836     -0.5358
    12         H          1.8739      0.7415     -0.4389
    13         H         -0.8333     -0.1839      2.1174
    14         H         -0.8030      2.5908     -1.1488
    15         H         -1.7440      0.3119     -1.8887
    16         H         -0.0002      0.3197     -2.1174
    17         H         -1.2795     -2.6000      0.4249
    18         H         -1.2190     -2.3911     -1.3189
    19         H         -2.5446     -1.6583     -0.3789

 General Reference for PM7:
 "Optimization of Parameters for Semiempirical Methods VI: More Modifications to the 
 NDDO Approximations and Re-optimization of Parameters", J. J. P. Stewart, J. Mol. Mod., 1:32, 19 (2013)
 https://link.springer.com/article/10.1007/s00894-012-1667-x

           Empirical Formula: C6 H10 N2 O  =    19 atoms



      MOLECULAR POINT GROUP   :   C1  


          UHF CALCULATION, NO. OF ALPHA ELECTRONS =   25
                           NO. OF BETA  ELECTRONS =   24
  SCF CRITERION =    0.1000E-07

 -------------------------------------------------------------------------------
 PM7 1SCF GRADIENTS EPS=37.5 DISP RELSCF=0.0001 CHARGE=1
 Title: ASE calculation



     1SCF WAS SPECIFIED, SO BFGS WAS NOT USED                 
     SCF FIELD WAS ACHIEVED                                   


                              PM7 CALCULATION
                                                       MOPAC v23.2 Linux
                                                       Fri Sep 19 21:52:16 2025




          FINAL HEAT OF FORMATION =        138.20480 KCAL/MOL =     578.24890 KJ/MOL

          TOTAL ENERGY            =     -35340.17128 KCAL/MOL = ELECTRONIC ENERGY + CORE-CORE REPULSION + SOLVATION ENERGY
          ENERGY OF ATOMS         =      35480.40871 KCAL/MOL
                              SUM =        140.23743 KCAL/MOL
          DISPERSION ENERGY       =         -2.03297 KCAL/MOL
          MM CORR. FOR -CO-NH-    =          0.00034 KCAL/MOL
                              SUM =        138.20480 KCAL/MOL = FINAL HEAT OF FORMATION

          VAN DER WAALS AREA      =        157.57 SQUARE ANGSTROMS


          TOTAL ENERGY            =      -1532.49487 EV
          ELECTRONIC ENERGY       =      -2359.38100 EV 
          CORE-CORE REPULSION     =        826.88613 EV

          DIELECTRIC ENERGY       =         -2.86188 EV
          COSMO AREA              =        157.57 SQUARE ANGSTROMS
          COSMO VOLUME            =        157.08 CUBIC ANGSTROMS

          GRADIENT NORM           =         37.37767          =       8.57503 PER ATOM
          IONIZATION POTENTIAL    =         10.838214 EV
          ALPHA SOMO LUMO (EV)    =        -10.865 -1.021
          BETA  SOMO LUMO (EV)    =        -10.838 -3.127
          NO. OF ALPHA ELECTRONS  =         25
          NO. OF BETA  ELECTRONS  =         24
          MOLECULAR WEIGHT        =        126.1578         POINT GROUP:  C1  

          MOLECULAR DIMENSIONS (Angstroms)

            Atom       Atom       Distance
            H    18    O     5     5.76171
            H    10    H    15     4.92545
            H    16    H    13     3.86879


          SCF CALCULATIONS        =          2

          WALL-CLOCK TIME         =      1.648 SECONDS
          COMPUTATION TIME        =      0.582 SECONDS

          LARGEST ATOMIC GRADIENTS

          Atom     Label                     Cartesian Gradients           Cartesian Coordinates       |Gradient|
                                           X          Y          Z        X          Y          Z

             4       C                   3.037      3.262     26.022   -0.48703    1.58328    0.85518     26.401
             7       C                  -3.397      1.677    -12.423   -0.77920    0.43949   -1.30746     12.988
             6       N                  -1.715      8.056     -9.743   -0.70978    1.70519   -0.66148     12.758
             5       O                  -0.827     -4.774     -8.260   -0.43074    2.59998    1.44963      9.576
             8       C                   4.716     -5.433      4.992   -0.64360   -0.63321   -0.20058      8.757
             9       C                  -2.988      5.970     -5.013   -1.46187   -1.85963   -0.38253      8.348
             1       C                  -3.967      3.519     -2.798    1.87696   -0.20951    0.10608      5.996
             3       C                  -0.464      1.554     -4.661   -0.44461    0.12928    1.13192      4.935
             2       N                  -1.359      2.681     -1.749    0.60325   -0.73555    0.55781      3.477
            15       H                   0.872     -1.753      2.183   -1.74401    0.31192   -1.88873      2.932



       FINAL  POINT  AND  DERIVATIVES

   PARAMETER     ATOM    TYPE            VALUE        GRADIENT
      1          1  C    CARTESIAN X     1.876960     -3.966638  KCAL/ANGSTROM
      2          1  C    CARTESIAN Y    -0.209511      3.519285  KCAL/ANGSTROM
      3          1  C    CARTESIAN Z     0.106076     -2.797625  KCAL/ANGSTROM
      4          2  N    CARTESIAN X     0.603254     -1.359215  KCAL/ANGSTROM
      5          2  N    CARTESIAN Y    -0.735554      2.680592  KCAL/ANGSTROM
      6          2  N    CARTESIAN Z     0.557807     -1.748599  KCAL/ANGSTROM
      7          3  C    CARTESIAN X    -0.444611     -0.463766  KCAL/ANGSTROM
      8          3  C    CARTESIAN Y     0.129282      1.554196  KCAL/ANGSTROM
      9          3  C    CARTESIAN Z     1.131925     -4.660914  KCAL/ANGSTROM
     10          4  C    CARTESIAN X    -0.487028      3.036512  KCAL/ANGSTROM
     11          4  C    CARTESIAN Y     1.583281      3.261561  KCAL/ANGSTROM
     12          4  C    CARTESIAN Z     0.855177     26.021798  KCAL/ANGSTROM
     13          5  O    CARTESIAN X    -0.430742     -0.827362  KCAL/ANGSTROM
     14          5  O    CARTESIAN Y     2.599980     -4.774475  KCAL/ANGSTROM
     15          5  O    CARTESIAN Z     1.449635     -8.259837  KCAL/ANGSTROM
     16          6  N    CARTESIAN X    -0.709779     -1.715454  KCAL/ANGSTROM
     17          6  N    CARTESIAN Y     1.705186      8.055705  KCAL/ANGSTROM
     18          6  N    CARTESIAN Z    -0.661476     -9.743350  KCAL/ANGSTROM
     19          7  C    CARTESIAN X    -0.779202     -3.396783  KCAL/ANGSTROM
     20          7  C    CARTESIAN Y     0.439487      1.677326  KCAL/ANGSTROM
     21          7  C    CARTESIAN Z    -1.307456    -12.423412  KCAL/ANGSTROM
     22          8  C    CARTESIAN X    -0.643601      4.715678  KCAL/ANGSTROM
     23          8  C    CARTESIAN Y    -0.633214     -5.432932  KCAL/ANGSTROM
     24          8  C    CARTESIAN Z    -0.200578      4.992414  KCAL/ANGSTROM
     25          9  C    CARTESIAN X    -1.461871     -2.988395  KCAL/ANGSTROM
     26          9  C    CARTESIAN Y    -1.859632      5.969982  KCAL/ANGSTROM
     27          9  C    CARTESIAN Z    -0.382526     -5.012557  KCAL/ANGSTROM
     28         10  H    CARTESIAN X     2.544588      1.302574  KCAL/ANGSTROM
     29         10  H    CARTESIAN Y    -0.101171     -2.080893  KCAL/ANGSTROM
     30         10  H    CARTESIAN Z     0.992171      1.543059  KCAL/ANGSTROM
     31         11  H    CARTESIAN X     2.355742      0.971970  KCAL/ANGSTROM
     32         11  H    CARTESIAN Y    -0.983606     -2.258859  KCAL/ANGSTROM
     33         11  H    CARTESIAN Z    -0.535813      1.441159  KCAL/ANGSTROM
     34         12  H    CARTESIAN X     1.873929      0.506205  KCAL/ANGSTROM
     35         12  H    CARTESIAN Y     0.741501     -0.895943  KCAL/ANGSTROM
     36         12  H    CARTESIAN Z    -0.438862      1.171019  KCAL/ANGSTROM
     37         13  H    CARTESIAN X    -0.833258      1.340384  KCAL/ANGSTROM
     38         13  H    CARTESIAN Y    -0.183932     -0.899416  KCAL/ANGSTROM
     39         13  H    CARTESIAN Z     2.117412      1.078597  KCAL/ANGSTROM
     40         14  H    CARTESIAN X    -0.802986      0.121104  KCAL/ANGSTROM
     41         14  H    CARTESIAN Y     2.590783     -1.472284  KCAL/ANGSTROM
     42         14  H    CARTESIAN Z    -1.148779      0.609392  KCAL/ANGSTROM
     43         15  H    CARTESIAN X    -1.744008      0.872046  KCAL/ANGSTROM
     44         15  H    CARTESIAN Y     0.311924     -1.752763  KCAL/ANGSTROM
     45         15  H    CARTESIAN Z    -1.888733      2.183200  KCAL/ANGSTROM
     46         16  H    CARTESIAN X    -0.000180      0.265900  KCAL/ANGSTROM
     47         16  H    CARTESIAN Y     0.319711     -1.615609  KCAL/ANGSTROM
     48         16  H    CARTESIAN Z    -2.117412      2.373824  KCAL/ANGSTROM
     49         17  H    CARTESIAN X    -1.279470      1.193935  KCAL/ANGSTROM
     50         17  H    CARTESIAN Y    -2.599980     -1.963564  KCAL/ANGSTROM
     51         17  H    CARTESIAN Z     0.424936      1.376355  KCAL/ANGSTROM
     52         18  H    CARTESIAN X    -1.218980      0.654368  KCAL/ANGSTROM
     53         18  H    CARTESIAN Y    -2.391130     -2.093970  KCAL/ANGSTROM
     54         18  H    CARTESIAN Z    -1.318894      0.920751  KCAL/ANGSTROM
     55         19  H    CARTESIAN X    -2.544588     -0.263061  KCAL/ANGSTROM
     56         19  H    CARTESIAN Y    -1.658267     -1.477940  KCAL/ANGSTROM
     57         19  H    CARTESIAN Z    -0.378862      0.934723  KCAL/ANGSTROM




   ATOM   CHEMICAL          X               Y               Z
  NUMBER   SYMBOL      (ANGSTROMS)     (ANGSTROMS)     (ANGSTROMS)

     1       C          1.87696016  *  -0.20951132  *   0.10607589  *
     2       N          0.60325393  *  -0.73555386  *   0.55780660  *
     3       C         -0.44461119  *   0.12928250  *   1.13192463  *
     4       C         -0.48702826  *   1.58328111  *   0.85517672  *
     5       O         -0.43074241  *   2.59998020  *   1.44963500  *
     6       N         -0.70977874  *   1.70518578  *  -0.66147580  *
     7       C         -0.77920238  *   0.43948727  *  -1.30745551  *
     8       C         -0.64360075  *  -0.63321435  *  -0.20057771  *
     9       C         -1.46187135  *  -1.85963159  *  -0.38252592  *
    10       H          2.54458825  *  -0.10117070  *   0.99217086  *
    11       H          2.35574234  *  -0.98360584  *  -0.53581277  *
    12       H          1.87392869  *   0.74150053  *  -0.43886238  *
    13       H         -0.83325828  *  -0.18393239  *   2.11741227  *
    14       H         -0.80298627  *   2.59078256  *  -1.14877918  *
    15       H         -1.74400787  *   0.31192386  *  -1.88873324  *
    16       H         -0.00018003  *   0.31971058  *  -2.11741227  *
    17       H         -1.27946986  *  -2.59998020  *   0.42493561  *
    18       H         -1.21898003  *  -2.39113045  *  -1.31889401  *
    19       H         -2.54458825  *  -1.65826729  *  -0.37886234  *

                             CARTESIAN COORDINATES

   1    C        1.876960155    -0.209511322     0.106075891
   2    N        0.603253925    -0.735553858     0.557806599
   3    C       -0.444611192     0.129282497     1.131924632
   4    C       -0.487028261     1.583281110     0.855176716
   5    O       -0.430742411     2.599980204     1.449634996
   6    N       -0.709778740     1.705185775    -0.661475799
   7    C       -0.779202375     0.439487275    -1.307455507
   8    C       -0.643600750    -0.633214353    -0.200577714
   9    C       -1.461871351    -1.859631593    -0.382525924
  10    H        2.544588246    -0.101170700     0.992170863
  11    H        2.355742343    -0.983605840    -0.535812769
  12    H        1.873928686     0.741500527    -0.438862376
  13    H       -0.833258282    -0.183932393     2.117412271
  14    H       -0.802986265     2.590782558    -1.148779182
  15    H       -1.744007873     0.311923863    -1.888733243
  16    H       -0.000180029     0.319710584    -2.117412271
  17    H       -1.279469856    -2.599980204     0.424935610
  18    H       -1.218980030    -2.391130448    -1.318894015
  19    H       -2.544588246    -1.658267291    -0.378862336


           Empirical Formula: C6 H10 N2 O  =    19 atoms



      MOLECULAR POINT GROUP   :   C1  


          ALPHA EIGENVALUES  
 -39.05636 -36.98191 -33.61685 -28.38087 -26.80245 -25.23362 -24.50073 -21.46379
 -20.19614 -19.17053 -18.17741 -17.47009 -17.14798 -16.56026 -16.23784 -15.45490
 -14.90915 -14.74285 -14.37255 -13.73474 -13.22880 -12.80249 -12.48164 -11.98285
 -10.86492  -1.02128  -0.23587   0.85135   1.31033   1.48066   1.95917   2.14118
   2.61176   3.33361   3.39530   3.88927   4.01022   4.60390   4.75862   4.84608
   5.05087   5.10195   5.19240   5.27023   5.95187   6.37417


           BETA EIGENVALUES 
 -38.35785 -35.90487 -33.33284 -28.26393 -26.72598 -24.93271 -24.40590 -21.28870
 -20.15120 -18.83663 -17.53969 -17.32840 -17.02110 -16.28264 -15.87916 -15.15002
 -14.77691 -14.53267 -14.35167 -13.64305 -13.00603 -12.49777 -11.97460 -10.83821
  -3.12723  -0.48965   0.22698   0.95332   1.31765   1.50391   2.02730   2.32484
   2.80281   3.34191   3.44208   3.98562   4.09986   4.71105   4.83040   5.05144
   5.09462   5.15315   5.20197   5.27051   5.95225   6.37436


              NET ATOMIC CHARGES AND DIPOLE CONTRIBUTIONS

  ATOM NO.   TYPE          CHARGE      No. of ELECS.   s-Pop       p-Pop       
    1          C          -0.310352        4.3104     1.06395     3.24640
    2          N          -0.350044        5.3500     1.72368     3.62636
    3          C          -0.207587        4.2076     1.08473     3.12285
    4          C           0.546871        3.4531     1.14008     2.31305
    5          O          -0.280762        6.2808     1.87285     4.40792
    6          N          -0.125014        5.1250     1.59770     3.52732
    7          C          -0.233841        4.2338     1.08855     3.14529
    8          C           0.164173        3.8358     1.07003     2.76580
    9          C          -0.460642        4.4606     1.05049     3.41015
   10          H           0.188457        0.8115     0.81154
   11          H           0.189271        0.8107     0.81073
   12          H           0.153552        0.8464     0.84645
   13          H           0.245865        0.7541     0.75414
   14          H           0.377944        0.6221     0.62206
   15          H           0.273355        0.7266     0.72665
   16          H           0.265626        0.7344     0.73437
   17          H           0.189473        0.8105     0.81053
   18          H           0.187267        0.8127     0.81273
   19          H           0.186389        0.8136     0.81361
 DIPOLE           X         Y         Z       TOTAL
 POINT-CHG.    -2.213     1.336    -5.953     6.490
 HYBRID         0.082     1.669    -0.603     1.777
 SUM           -2.131     3.005    -6.556     7.520


          ATOMIC ORBITAL ELECTRON POPULATIONS

     Atom    s        px        py        pz   
    1  C   1.06395   0.91463   1.15465   1.17713
    2  N   1.72368   1.02538   1.35291   1.24808
    3  C   1.08473   1.10327   0.90510   1.11449
    4  C   1.14008   0.69051   0.89163   0.73092
    5  O   1.87285   1.37657   1.38760   1.64375
    6  N   1.59770   1.10654   1.19477   1.22601
    7  C   1.08855   1.22535   0.85156   1.06837
    8  C   1.07003   0.93781   0.97002   0.85797
    9  C   1.05049   1.13745   1.05493   1.21777
   10  H   0.81154
   11  H   0.81073
   12  H   0.84645
   13  H   0.75414
   14  H   0.62206
   15  H   0.72665
   16  H   0.73437
   17  H   0.81053
   18  H   0.81273
   19  H   0.81361


                    (SZ)    =    0.500000
                    (S**2)  =    0.764837


          ATOMIC ORBITAL SPIN POPULATIONS

    Atom   Total    s     px     py     pz   
         Atomic
    1  C  0.0001  0.000 -0.000  0.000  0.000
    2  N -0.0009  0.000 -0.001 -0.003  0.003
    3  C -0.0058 -0.001  0.001 -0.005 -0.001
    4  C -0.0822 -0.003 -0.044 -0.003 -0.032
    5  O  0.0687  0.002  0.085  0.001 -0.020
    6  N  0.9728  0.042  0.815  0.043  0.073
    7  C -0.0217 -0.008  0.033 -0.031 -0.016
    8  C -0.0009 -0.000 -0.001 -0.000  0.000
    9  C  0.0001  0.000 -0.000  0.000 -0.000
   10  H  0.0001  0.000
   11  H -0.0001 -0.000
   12  H -0.0001 -0.000
   13  H -0.0012 -0.001
   14  H -0.0340 -0.034
   15  H  0.0529  0.053
   16  H  0.0522  0.052
   17  H  0.0000  0.000
   18  H -0.0000 -0.000
   19  H  0.0000  0.000

 **********************
 *                    *
 * JOB ENDED NORMALLY *
 *                    *
 **********************



 TOTAL JOB TIME:             2.10 SECONDS

 == MOPAC DONE ==
