 *******************************************************************************
 **                                                                           **
 **                              MOPAC v23.2                                  **
 **                                                                           **
 *******************************************************************************
 **          Digital Object Identifier (DOI): 10.5281/zenodo.6511958          **
 **    Visit the DOI location for information on how to cite this program.    **
 *******************************************************************************

                              PM7 CALCULATION RESULTS

 *******************************************************************************
 *  CALCULATION DONE: (MAX THREADS = 40)             Fri Sep 19 21:47:41 2025  *
 *  PM7        - The PM7 Hamiltonian to be used
 *
 *
 *
 *                 CHARGE ON SYSTEM = +1
 *
 *
 *
 *  EPS=37.5   - USE ANDREAS KLAMT'S COSMO IMPLICIT SOLVATION MODEL
 *  1SCF       - DO 1 SCF AND THEN STOP 
 *  T=         - A TIME OF 172800.0 SECONDS REQUESTED
 *  DUMP=N     - RESTART FILE WRITTEN EVERY 7200.0 SECONDS REQUESTED
 *  RELSCF     - DEFAULT SCF CRITERION MULTIPLIED BY 0.0001
 *              (DEFAULT SCF CRITERION = 0.00010)
 *  GRADIENTS  - ALL GRADIENTS TO BE PRINTED
 *  DISP       - PRINT DISPERSION AND HYDROGEN BOND ENERGIES
 *******************************************************************************
PM7 1SCF GRADIENTS EPS=37.5 DISP RELSCF=0.0001 CHARGE=1
 Title: ASE calculation

   ATOM   CHEMICAL          X               Y               Z
  NUMBER   SYMBOL      (ANGSTROMS)     (ANGSTROMS)     (ANGSTROMS)

     1       C         -2.30936486  *   0.16796676  *  -0.94506791  *
     2       C         -0.81538466  *   0.00873131  *  -0.89723260  *
     3       C         -0.34007641  *  -0.93257292  *   0.31044878  *
     4       C          0.12689935  *   0.35468316  *   1.06964374  *
     5       C         -0.03712005  *   1.19637763  *  -0.23170707  *
     6       C          1.25326184  *   1.42477732  *  -0.88876685  *
     7       O          1.95402792  *   0.28205784  *  -1.05280258  *
     8       C          0.76601765  *  -1.72959492  *  -0.07188153  *
     9       O          1.65741205  *  -2.35465213  *  -0.38431127  *
    10       H         -2.60124394  *   0.93498048  *  -1.68601767  *
    11       H         -2.82424759  *  -0.75580328  *  -1.24958069  *
    12       H         -2.74727828  *   0.48682984  *   0.01174923  *
    13       H         -0.40773119  *  -0.29291854  *  -1.87969410  *
    14       H         -1.16934226  *  -1.49640853  *   0.79776252  *
    15       H         -0.56059047  *   0.64379802  *   1.87969410  *
    16       H          1.13868345  *   0.33303405  *   1.49095437  *
    17       H         -0.62674715  *   2.12605897  *  -0.11403464  *
    18       H          1.65720422  *   2.35465213  *  -1.21696267  *
    19       H          2.82424759  *   0.43920631  *  -1.50720903  *



          CARTESIAN COORDINATES 

    NO.       ATOM           X           Y           Z

     1         C         -2.3094      0.1680     -0.9451
     2         C         -0.8154      0.0087     -0.8972
     3         C         -0.3401     -0.9326      0.3104
     4         C          0.1269      0.3547      1.0696
     5         C         -0.0371      1.1964     -0.2317
     6         C          1.2533      1.4248     -0.8888
     7         O          1.9540      0.2821     -1.0528
     8         C          0.7660     -1.7296     -0.0719
     9         O          1.6574     -2.3547     -0.3843
    10         H         -2.6012      0.9350     -1.6860
    11         H         -2.8242     -0.7558     -1.2496
    12         H         -2.7473      0.4868      0.0117
    13         H         -0.4077     -0.2929     -1.8797
    14         H         -1.1693     -1.4964      0.7978
    15         H         -0.5606      0.6438      1.8797
    16         H          1.1387      0.3330      1.4910
    17         H         -0.6267      2.1261     -0.1140
    18         H          1.6572      2.3547     -1.2170
    19         H          2.8242      0.4392     -1.5072

 General Reference for PM7:
 "Optimization of Parameters for Semiempirical Methods VI: More Modifications to the 
 NDDO Approximations and Re-optimization of Parameters", J. J. P. Stewart, J. Mol. Mod., 1:32, 19 (2013)
 https://link.springer.com/article/10.1007/s00894-012-1667-x

           Empirical Formula: C7 H10 O2  =    19 atoms



      MOLECULAR POINT GROUP   :   C1  


          UHF CALCULATION, NO. OF ALPHA ELECTRONS =   25
                           NO. OF BETA  ELECTRONS =   24
  SCF CRITERION =    0.1000E-07

 -------------------------------------------------------------------------------
 PM7 1SCF GRADIENTS EPS=37.5 DISP RELSCF=0.0001 CHARGE=1
 Title: ASE calculation



     1SCF WAS SPECIFIED, SO BFGS WAS NOT USED                 
     SCF FIELD WAS ACHIEVED                                   


                              PM7 CALCULATION
                                                       MOPAC v23.2 Linux
                                                       Fri Sep 19 21:47:43 2025




          FINAL HEAT OF FORMATION =         70.69967 KCAL/MOL =     295.80740 KJ/MOL

          TOTAL ENERGY            =     -36409.96852 KCAL/MOL = ELECTRONIC ENERGY + CORE-CORE REPULSION + SOLVATION ENERGY
          ENERGY OF ATOMS         =      36482.50324 KCAL/MOL
                              SUM =         72.53472 KCAL/MOL
          DISPERSION ENERGY       =         -1.83505 KCAL/MOL
                              SUM =         70.69967 KCAL/MOL = FINAL HEAT OF FORMATION

          VAN DER WAALS AREA      =        160.22 SQUARE ANGSTROMS


          TOTAL ENERGY            =      -1578.88567 EV
          ELECTRONIC ENERGY       =      -2372.70661 EV 
          CORE-CORE REPULSION     =        793.82094 EV

          DIELECTRIC ENERGY       =         -2.37369 EV
          COSMO AREA              =        160.22 SQUARE ANGSTROMS
          COSMO VOLUME            =        161.67 CUBIC ANGSTROMS

          GRADIENT NORM           =         20.48530          =       4.69965 PER ATOM
          IONIZATION POTENTIAL    =          8.824330 EV
          ALPHA SOMO LUMO (EV)    =         -8.824 -1.186
          BETA  SOMO LUMO (EV)    =        -11.918 -1.184
          NO. OF ALPHA ELECTRONS  =         25
          NO. OF BETA  ELECTRONS  =         24
          MOLECULAR WEIGHT        =        126.1548         POINT GROUP:  C1  

          MOLECULAR DIMENSIONS (Angstroms)

            Atom       Atom       Distance
            H    19    H    11     5.77927
            H    17    O     9     4.86107
            H    13    H    15     3.71277


          SCF CALCULATIONS        =          2

          WALL-CLOCK TIME         =      1.758 SECONDS
          COMPUTATION TIME        =      0.560 SECONDS

          LARGEST ATOMIC GRADIENTS

          Atom     Label                     Cartesian Gradients           Cartesian Coordinates       |Gradient|
                                           X          Y          Z        X          Y          Z

             3       C                   2.888    -10.940      3.165   -0.34008   -0.93257    0.31045     11.749
             8       C                  -5.166      5.439      1.655    0.76602   -1.72959   -0.07188      7.681
             7       O                   4.891     -5.529     -1.487    1.95403    0.28206   -1.05280      7.530
             1       C                   3.882     -3.788      2.988   -2.30936    0.16797   -0.94507      6.193
             2       C                  -2.357      4.347     -3.719   -0.81538    0.00873   -0.89723      6.187
             9       O                   4.433     -2.673     -1.519    1.65741   -2.35465   -0.38431      5.394
             6       C                  -2.372      3.957      0.676    1.25326    1.42478   -0.88877      4.663
            19       H                  -2.830      0.472      1.329    2.82425    0.43921   -1.50721      3.162
            14       H                  -0.682      2.169     -0.660   -1.16934   -1.49641    0.79776      2.368
            11       H                  -1.630      0.718     -1.097   -2.82425   -0.75580   -1.24958      2.092



       FINAL  POINT  AND  DERIVATIVES

   PARAMETER     ATOM    TYPE            VALUE        GRADIENT
      1          1  C    CARTESIAN X    -2.309365      3.882488  KCAL/ANGSTROM
      2          1  C    CARTESIAN Y     0.167967     -3.788352  KCAL/ANGSTROM
      3          1  C    CARTESIAN Z    -0.945068      2.988226  KCAL/ANGSTROM
      4          2  C    CARTESIAN X    -0.815385     -2.356756  KCAL/ANGSTROM
      5          2  C    CARTESIAN Y     0.008731      4.346930  KCAL/ANGSTROM
      6          2  C    CARTESIAN Z    -0.897233     -3.719148  KCAL/ANGSTROM
      7          3  C    CARTESIAN X    -0.340076      2.888235  KCAL/ANGSTROM
      8          3  C    CARTESIAN Y    -0.932573    -10.940213  KCAL/ANGSTROM
      9          3  C    CARTESIAN Z     0.310449      3.164559  KCAL/ANGSTROM
     10          4  C    CARTESIAN X     0.126899      0.767792  KCAL/ANGSTROM
     11          4  C    CARTESIAN Y     0.354683      0.553649  KCAL/ANGSTROM
     12          4  C    CARTESIAN Z     1.069644      0.182073  KCAL/ANGSTROM
     13          5  C    CARTESIAN X    -0.037120      1.351809  KCAL/ANGSTROM
     14          5  C    CARTESIAN Y     1.196378     -1.542767  KCAL/ANGSTROM
     15          5  C    CARTESIAN Z    -0.231707     -0.353892  KCAL/ANGSTROM
     16          6  C    CARTESIAN X     1.253262     -2.372219  KCAL/ANGSTROM
     17          6  C    CARTESIAN Y     1.424777      3.957086  KCAL/ANGSTROM
     18          6  C    CARTESIAN Z    -0.888767      0.676327  KCAL/ANGSTROM
     19          7  O    CARTESIAN X     1.954028      4.891402  KCAL/ANGSTROM
     20          7  O    CARTESIAN Y     0.282058     -5.528822  KCAL/ANGSTROM
     21          7  O    CARTESIAN Z    -1.052803     -1.487210  KCAL/ANGSTROM
     22          8  C    CARTESIAN X     0.766018     -5.165598  KCAL/ANGSTROM
     23          8  C    CARTESIAN Y    -1.729595      5.438586  KCAL/ANGSTROM
     24          8  C    CARTESIAN Z    -0.071882      1.654899  KCAL/ANGSTROM
     25          9  O    CARTESIAN X     1.657412      4.432514  KCAL/ANGSTROM
     26          9  O    CARTESIAN Y    -2.354652     -2.672761  KCAL/ANGSTROM
     27          9  O    CARTESIAN Z    -0.384311     -1.518549  KCAL/ANGSTROM
     28         10  H    CARTESIAN X    -2.601244     -1.080031  KCAL/ANGSTROM
     29         10  H    CARTESIAN Y     0.934980      0.801132  KCAL/ANGSTROM
     30         10  H    CARTESIAN Z    -1.686018     -0.996353  KCAL/ANGSTROM
     31         11  H    CARTESIAN X    -2.824248     -1.629728  KCAL/ANGSTROM
     32         11  H    CARTESIAN Y    -0.755803      0.717514  KCAL/ANGSTROM
     33         11  H    CARTESIAN Z    -1.249581     -1.097246  KCAL/ANGSTROM
     34         12  H    CARTESIAN X    -2.747278     -1.395778  KCAL/ANGSTROM
     35         12  H    CARTESIAN Y     0.486830      1.054052  KCAL/ANGSTROM
     36         12  H    CARTESIAN Z     0.011749     -0.453975  KCAL/ANGSTROM
     37         13  H    CARTESIAN X    -0.407731     -0.201035  KCAL/ANGSTROM
     38         13  H    CARTESIAN Y    -0.292919      0.689352  KCAL/ANGSTROM
     39         13  H    CARTESIAN Z    -1.879694     -0.337656  KCAL/ANGSTROM
     40         14  H    CARTESIAN X    -1.169342     -0.682012  KCAL/ANGSTROM
     41         14  H    CARTESIAN Y    -1.496409      2.169322  KCAL/ANGSTROM
     42         14  H    CARTESIAN Z     0.797763     -0.659627  KCAL/ANGSTROM
     43         15  H    CARTESIAN X    -0.560590     -0.397350  KCAL/ANGSTROM
     44         15  H    CARTESIAN Y     0.643798      0.758293  KCAL/ANGSTROM
     45         15  H    CARTESIAN Z     1.879694      0.996456  KCAL/ANGSTROM
     46         16  H    CARTESIAN X     1.138683      0.075310  KCAL/ANGSTROM
     47         16  H    CARTESIAN Y     0.333034      0.956775  KCAL/ANGSTROM
     48         16  H    CARTESIAN Z     1.490954      0.069039  KCAL/ANGSTROM
     49         17  H    CARTESIAN X    -0.626747     -0.508256  KCAL/ANGSTROM
     50         17  H    CARTESIAN Y     2.126059      1.497180  KCAL/ANGSTROM
     51         17  H    CARTESIAN Z    -0.114035     -0.243800  KCAL/ANGSTROM
     52         18  H    CARTESIAN X     1.657204      0.329209  KCAL/ANGSTROM
     53         18  H    CARTESIAN Y     2.354652      1.061395  KCAL/ANGSTROM
     54         18  H    CARTESIAN Z    -1.216963     -0.193175  KCAL/ANGSTROM
     55         19  H    CARTESIAN X     2.824248     -2.829999  KCAL/ANGSTROM
     56         19  H    CARTESIAN Y     0.439206      0.471644  KCAL/ANGSTROM
     57         19  H    CARTESIAN Z    -1.507209      1.329047  KCAL/ANGSTROM




   ATOM   CHEMICAL          X               Y               Z
  NUMBER   SYMBOL      (ANGSTROMS)     (ANGSTROMS)     (ANGSTROMS)

     1       C         -2.30936486  *   0.16796676  *  -0.94506791  *
     2       C         -0.81538466  *   0.00873131  *  -0.89723260  *
     3       C         -0.34007641  *  -0.93257292  *   0.31044878  *
     4       C          0.12689935  *   0.35468316  *   1.06964374  *
     5       C         -0.03712005  *   1.19637763  *  -0.23170707  *
     6       C          1.25326184  *   1.42477732  *  -0.88876685  *
     7       O          1.95402792  *   0.28205784  *  -1.05280258  *
     8       C          0.76601765  *  -1.72959492  *  -0.07188153  *
     9       O          1.65741205  *  -2.35465213  *  -0.38431127  *
    10       H         -2.60124394  *   0.93498048  *  -1.68601767  *
    11       H         -2.82424759  *  -0.75580328  *  -1.24958069  *
    12       H         -2.74727828  *   0.48682984  *   0.01174923  *
    13       H         -0.40773119  *  -0.29291854  *  -1.87969410  *
    14       H         -1.16934226  *  -1.49640853  *   0.79776252  *
    15       H         -0.56059047  *   0.64379802  *   1.87969410  *
    16       H          1.13868345  *   0.33303405  *   1.49095437  *
    17       H         -0.62674715  *   2.12605897  *  -0.11403464  *
    18       H          1.65720422  *   2.35465213  *  -1.21696267  *
    19       H          2.82424759  *   0.43920631  *  -1.50720903  *

                             CARTESIAN COORDINATES

   1    C       -2.309364855     0.167966761    -0.945067909
   2    C       -0.815384664     0.008731314    -0.897232603
   3    C       -0.340076414    -0.932572920     0.310448783
   4    C        0.126899348     0.354683160     1.069643737
   5    C       -0.037120053     1.196377628    -0.231707069
   6    C        1.253261835     1.424777323    -0.888766851
   7    O        1.954027918     0.282057842    -1.052802583
   8    C        0.766017654    -1.729594923    -0.071881529
   9    O        1.657412049    -2.354652134    -0.384311271
  10    H       -2.601243938     0.934980478    -1.686017674
  11    H       -2.824247592    -0.755803281    -1.249580686
  12    H       -2.747278279     0.486829840     0.011749232
  13    H       -0.407731192    -0.292918540    -1.879694095
  14    H       -1.169342261    -1.496408533     0.797762517
  15    H       -0.560590472     0.643798020     1.879694095
  16    H        1.138683448     0.333034046     1.490954371
  17    H       -0.626747150     2.126058967    -0.114034644
  18    H        1.657204219     2.354652134    -1.216962672
  19    H        2.824247592     0.439206306    -1.507209032


           Empirical Formula: C7 H10 O2  =    19 atoms



      MOLECULAR POINT GROUP   :   C1  


          ALPHA EIGENVALUES  
 -36.23208 -32.36156 -30.44746 -26.92612 -26.18509 -23.72599 -21.82346 -20.56530
 -19.43997 -18.35813 -17.80374 -17.44314 -17.38282 -16.17034 -15.64542 -15.16736
 -14.45258 -14.24327 -13.81748 -13.52706 -13.03961 -12.57635 -12.04239 -11.98814
  -8.82433  -1.18610  -1.05753   0.58305   1.90477   2.10193   2.55622   2.67823
   3.17000   3.58967   3.98254   4.12383   4.68224   5.13786   5.16751   5.31867
   5.40246   5.53394   5.62332   5.77342   5.92993   6.60894


           BETA EIGENVALUES 
 -36.23422 -32.30484 -30.01187 -26.89576 -26.10737 -23.57800 -21.75089 -20.45949
 -19.37996 -18.25454 -17.77687 -17.43239 -17.35549 -16.13114 -15.53751 -14.98578
 -14.31829 -14.02082 -13.68411 -13.34617 -12.82522 -12.52322 -11.95648 -11.91783
  -1.18373  -1.05515   0.50355   0.58266   1.92687   2.16646   2.86430   2.91369
   3.19213   3.69184   4.02304   4.23699   4.68555   5.15793   5.17441   5.40568
   5.50816   5.53893   5.62584   5.77935   6.09653   6.60980


              NET ATOMIC CHARGES AND DIPOLE CONTRIBUTIONS

  ATOM NO.   TYPE          CHARGE      No. of ELECS.   s-Pop       p-Pop       
    1          C          -0.471772        4.4718     1.05281     3.41896
    2          C          -0.024076        4.0241     1.08443     2.93965
    3          C          -0.243895        4.2439     1.08591     3.15799
    4          C          -0.233557        4.2336     1.07821     3.15535
    5          C          -0.149519        4.1495     1.07185     3.07767
    6          C          -0.041168        4.0412     1.11677     2.92440
    7          O          -0.530587        6.5306     1.82717     4.70342
    8          C           0.627566        3.3724     1.21864     2.15379
    9          O           0.044575        5.9554     1.86520     4.09023
   10          H           0.173690        0.8263     0.82631
   11          H           0.170748        0.8293     0.82925
   12          H           0.167763        0.8322     0.83224
   13          H           0.168629        0.8314     0.83137
   14          H           0.250240        0.7498     0.74976
   15          H           0.182489        0.8175     0.81751
   16          H           0.176818        0.8232     0.82318
   17          H           0.182134        0.8179     0.81787
   18          H           0.161420        0.8386     0.83858
   19          H           0.388504        0.6115     0.61150
 DIPOLE           X         Y         Z       TOTAL
 POINT-CHG.    -0.283    -2.540     1.246     2.844
 HYBRID         1.101    -1.079    -0.209     1.556
 SUM            0.818    -3.619     1.037     3.853


          ATOMIC ORBITAL ELECTRON POPULATIONS

     Atom    s        px        py        pz   
    1  C   1.05281   1.01499   1.20067   1.20330
    2  C   1.08443   1.00327   0.93385   1.00253
    3  C   1.08591   1.00967   1.01894   1.12937
    4  C   1.07821   1.18187   0.92805   1.04543
    5  C   1.07185   1.02181   1.06797   0.98788
    6  C   1.11677   0.94155   0.88159   1.10127
    7  O   1.82717   1.47637   1.44341   1.78364
    8  C   1.21864   0.79508   0.70223   0.65648
    9  O   1.86520   1.30174   1.37051   1.41798
   10  H   0.82631
   11  H   0.82925
   12  H   0.83224
   13  H   0.83137
   14  H   0.74976
   15  H   0.81751
   16  H   0.82318
   17  H   0.81787
   18  H   0.83858
   19  H   0.61150


                    (SZ)    =    0.500000
                    (S**2)  =    0.752794


          ATOMIC ORBITAL SPIN POPULATIONS

    Atom   Total    s     px     py     pz   
         Atomic
    1  C -0.0009 -0.000 -0.000 -0.000 -0.000
    2  C  0.0416  0.008  0.009  0.020  0.005
    3  C -0.0038 -0.001 -0.000 -0.001 -0.002
    4  C  0.0430  0.008  0.002  0.013  0.020
    5  C -0.0640 -0.006 -0.024 -0.008 -0.026
    6  C  0.8969  0.022  0.171  0.033  0.670
    7  O  0.1181  0.005  0.025 -0.013  0.100
    8  C  0.0003  0.000  0.000  0.000  0.000
    9  O -0.0007 -0.000 -0.000 -0.000 -0.000
   10  H  0.0001  0.000
   11  H  0.0009  0.001
   12  H  0.0001  0.000
   13  H -0.0013 -0.001
   14  H  0.0002  0.000
   15  H -0.0008 -0.001
   16  H -0.0014 -0.001
   17  H  0.0017  0.002
   18  H -0.0250 -0.025
   19  H -0.0049 -0.005

 **********************
 *                    *
 * JOB ENDED NORMALLY *
 *                    *
 **********************



 TOTAL JOB TIME:             2.20 SECONDS

 == MOPAC DONE ==
