 *******************************************************************************
 **                                                                           **
 **                              MOPAC v23.2                                  **
 **                                                                           **
 *******************************************************************************
 **          Digital Object Identifier (DOI): 10.5281/zenodo.6511958          **
 **    Visit the DOI location for information on how to cite this program.    **
 *******************************************************************************

                              PM7 CALCULATION RESULTS

 *******************************************************************************
 *  CALCULATION DONE: (MAX THREADS = 40)             Fri Sep 19 21:34:04 2025  *
 *  PM7        - The PM7 Hamiltonian to be used
 *
 *
 *
 *                 CHARGE ON SYSTEM = +1
 *
 *
 *
 *  1SCF       - DO 1 SCF AND THEN STOP 
 *  T=         - A TIME OF 172800.0 SECONDS REQUESTED
 *  DUMP=N     - RESTART FILE WRITTEN EVERY 7200.0 SECONDS REQUESTED
 *  RELSCF     - DEFAULT SCF CRITERION MULTIPLIED BY 0.0001
 *              (DEFAULT SCF CRITERION = 0.00010)
 *  GRADIENTS  - ALL GRADIENTS TO BE PRINTED
 *  DISP       - PRINT DISPERSION AND HYDROGEN BOND ENERGIES
 *******************************************************************************
PM7 1SCF GRADIENTS DISP RELSCF=0.0001 CHARGE=1
 Title: ASE calculation

   ATOM   CHEMICAL          X               Y               Z
  NUMBER   SYMBOL      (ANGSTROMS)     (ANGSTROMS)     (ANGSTROMS)

     1       C         -3.84207648  *  -0.20138688  *   1.44566417  *
     2       C         -2.69100398  *  -0.38553242  *   1.11986666  *
     3       C         -1.32913826  *  -0.62599091  *   0.73950879  *
     4       C         -0.74054013  *   0.65830085  *   0.11601469  *
     5       C          0.63060129  *   0.37258402  *  -0.42049106  *
     6       N          0.83952717  *   0.24973950  *  -1.71196223  *
     7       O          1.58249331  *   0.46990725  *   0.46338898  *
     8       C          2.98157786  *   0.18069951  *   0.09467089  *
     9       C          3.69272790  *   0.43221813  *   1.39617028  *
    10       H         -4.82769762  *  -0.04613630  *   1.72331595  *
    11       H         -1.27772340  *  -1.48198843  *   0.02436619  *
    12       H         -0.73045907  *  -0.94039843  *   1.63240499  *
    13       H         -1.43138154  *   1.05593499  *  -0.66794311  *
    14       H         -0.69429159  *   1.46720473  *   0.89193774  *
    15       H          0.74689334  *  -0.39686617  *  -2.45653022  *
    16       H          3.03501320  *  -0.86832146  *  -0.24423490  *
    17       H          3.27024538  *   0.88191774  *  -0.71106039  *
    18       H          3.56478300  *   1.46369769  *   1.76362746  *
    19       H          3.36494516  *  -0.24089122  *   2.20433536  *
    20       H          4.78253110  *   0.27738828  *   1.28311091  *



          CARTESIAN COORDINATES 

    NO.       ATOM           X           Y           Z

     1         C         -3.8421     -0.2014      1.4457
     2         C         -2.6910     -0.3855      1.1199
     3         C         -1.3291     -0.6260      0.7395
     4         C         -0.7405      0.6583      0.1160
     5         C          0.6306      0.3726     -0.4205
     6         N          0.8395      0.2497     -1.7120
     7         O          1.5825      0.4699      0.4634
     8         C          2.9816      0.1807      0.0947
     9         C          3.6927      0.4322      1.3962
    10         H         -4.8277     -0.0461      1.7233
    11         H         -1.2777     -1.4820      0.0244
    12         H         -0.7305     -0.9404      1.6324
    13         H         -1.4314      1.0559     -0.6679
    14         H         -0.6943      1.4672      0.8919
    15         H          0.7469     -0.3969     -2.4565
    16         H          3.0350     -0.8683     -0.2442
    17         H          3.2702      0.8819     -0.7111
    18         H          3.5648      1.4637      1.7636
    19         H          3.3649     -0.2409      2.2043
    20         H          4.7825      0.2774      1.2831

 General Reference for PM7:
 "Optimization of Parameters for Semiempirical Methods VI: More Modifications to the 
 NDDO Approximations and Re-optimization of Parameters", J. J. P. Stewart, J. Mol. Mod., 1:32, 19 (2013)
 https://link.springer.com/article/10.1007/s00894-012-1667-x

           Empirical Formula: C7 H11 N O  =    20 atoms



      MOLECULAR POINT GROUP   :   C1  


          UHF CALCULATION, NO. OF ALPHA ELECTRONS =   25
                           NO. OF BETA  ELECTRONS =   24
  SCF CRITERION =    0.1000E-07

 -------------------------------------------------------------------------------
 PM7 1SCF GRADIENTS DISP RELSCF=0.0001 CHARGE=1
 Title: ASE calculation



     1SCF WAS SPECIFIED, SO BFGS WAS NOT USED                 
     SCF FIELD WAS ACHIEVED                                   


                              PM7 CALCULATION
                                                       MOPAC v23.2 Linux
                                                       Fri Sep 19 21:34:05 2025




          FINAL HEAT OF FORMATION =        216.52362 KCAL/MOL =     905.93483 KJ/MOL

          TOTAL ENERGY            =     -34117.43472 KCAL/MOL = ELECTRONIC ENERGY + CORE-CORE REPULSION
          ENERGY OF ATOMS         =      34323.93363 KCAL/MOL
                              SUM =        206.49892 KCAL/MOL
          DISPERSION ENERGY       =         -1.97529 KCAL/MOL
                              SUM =        204.52363 KCAL/MOL = FINAL HEAT OF FORMATION

     *    WARNING - An energy term is incorrect or missing!

     *    FINAL HEAT OF FORMATION     =    216.52362 KCAL/MOL
     *    SUM OF CONTRIBUTIONS TO HoF =    204.52363 KCAL/MOL
     *                     DIFFERENCE =     12.00000 KCAL/MOL



          TOTAL ENERGY            =      -1479.47200 EV
          ELECTRONIC ENERGY       =      -6957.30138 EV 
          CORE-CORE REPULSION     =       5477.82939 EV
          COSMO AREA              =        187.38 SQUARE ANGSTROMS
          COSMO VOLUME            =        177.07 CUBIC ANGSTROMS

          GRADIENT NORM           =          1.24427          =       0.27823 PER ATOM
          IONIZATION POTENTIAL    =         14.141754 EV
          ALPHA SOMO LUMO (EV)    =        -14.142 -5.635
          BETA  SOMO LUMO (EV)    =        -14.142 -7.178
          NO. OF ALPHA ELECTRONS  =         25
          NO. OF BETA  ELECTRONS  =         24
          MOLECULAR WEIGHT        =        125.1700         POINT GROUP:  C1  

          MOLECULAR DIMENSIONS (Angstroms)

            Atom       Atom       Distance
            H    20    H    10     9.62574
            H    15    H    19     4.77637
            H    11    H    14     2.91485


          SCF CALCULATIONS        =          1

          WALL-CLOCK TIME         =      1.109 SECONDS
          COMPUTATION TIME        =      0.401 SECONDS

          LARGEST ATOMIC GRADIENTS

          Atom     Label                     Cartesian Gradients           Cartesian Coordinates       |Gradient|
                                           X          Y          Z        X          Y          Z

             4       C                   0.365      0.221     -0.145   -0.74054    0.65830    0.11601      0.450
             5       C                  -0.218     -0.360      0.062    0.63060    0.37258   -0.42049      0.426
            13       H                  -0.311     -0.166      0.147   -1.43138    1.05593   -0.66794      0.382
             6       N                   0.125      0.326     -0.077    0.83953    0.24974   -1.71196      0.357
            20       H                  -0.326      0.035     -0.116    4.78253    0.27739    1.28311      0.348
             8       C                   0.303     -0.023      0.136    2.98158    0.18070    0.09467      0.333
            18       H                   0.186     -0.272     -0.025    3.56478    1.46370    1.76363      0.330
            19       H                   0.201      0.172     -0.169    3.36495   -0.24089    2.20434      0.314
            11       H                   0.111      0.205     -0.094   -1.27772   -1.48199    0.02437      0.252
            12       H                  -0.189     -0.133      0.083   -0.73046   -0.94040    1.63240      0.245



       FINAL  POINT  AND  DERIVATIVES

   PARAMETER     ATOM    TYPE            VALUE        GRADIENT
      1          1  C    CARTESIAN X    -3.842076     -0.055882  KCAL/ANGSTROM
      2          1  C    CARTESIAN Y    -0.201387      0.008754  KCAL/ANGSTROM
      3          1  C    CARTESIAN Z     1.445664     -0.026981  KCAL/ANGSTROM
      4          2  C    CARTESIAN X    -2.691004      0.024896  KCAL/ANGSTROM
      5          2  C    CARTESIAN Y    -0.385532     -0.160172  KCAL/ANGSTROM
      6          2  C    CARTESIAN Z     1.119867      0.169700  KCAL/ANGSTROM
      7          3  C    CARTESIAN X    -1.329138      0.117257  KCAL/ANGSTROM
      8          3  C    CARTESIAN Y    -0.625991      0.213012  KCAL/ANGSTROM
      9          3  C    CARTESIAN Z     0.739509     -0.026804  KCAL/ANGSTROM
     10          4  C    CARTESIAN X    -0.740540      0.364696  KCAL/ANGSTROM
     11          4  C    CARTESIAN Y     0.658301      0.220753  KCAL/ANGSTROM
     12          4  C    CARTESIAN Z     0.116015     -0.144916  KCAL/ANGSTROM
     13          5  C    CARTESIAN X     0.630601     -0.218418  KCAL/ANGSTROM
     14          5  C    CARTESIAN Y     0.372584     -0.360280  KCAL/ANGSTROM
     15          5  C    CARTESIAN Z    -0.420491      0.062493  KCAL/ANGSTROM
     16          6  N    CARTESIAN X     0.839527      0.124763  KCAL/ANGSTROM
     17          6  N    CARTESIAN Y     0.249739      0.325624  KCAL/ANGSTROM
     18          6  N    CARTESIAN Z    -1.711962     -0.077184  KCAL/ANGSTROM
     19          7  O    CARTESIAN X     1.582493     -0.043944  KCAL/ANGSTROM
     20          7  O    CARTESIAN Y     0.469907      0.177280  KCAL/ANGSTROM
     21          7  O    CARTESIAN Z     0.463389      0.009653  KCAL/ANGSTROM
     22          8  C    CARTESIAN X     2.981578      0.303231  KCAL/ANGSTROM
     23          8  C    CARTESIAN Y     0.180700     -0.022835  KCAL/ANGSTROM
     24          8  C    CARTESIAN Z     0.094671      0.135643  KCAL/ANGSTROM
     25          9  C    CARTESIAN X     3.692728     -0.034443  KCAL/ANGSTROM
     26          9  C    CARTESIAN Y     0.432218      0.003287  KCAL/ANGSTROM
     27          9  C    CARTESIAN Z     1.396170      0.020780  KCAL/ANGSTROM
     28         10  H    CARTESIAN X    -4.827698     -0.183272  KCAL/ANGSTROM
     29         10  H    CARTESIAN Y    -0.046136     -0.014132  KCAL/ANGSTROM
     30         10  H    CARTESIAN Z     1.723316     -0.098257  KCAL/ANGSTROM
     31         11  H    CARTESIAN X    -1.277723      0.111353  KCAL/ANGSTROM
     32         11  H    CARTESIAN Y    -1.481988      0.205058  KCAL/ANGSTROM
     33         11  H    CARTESIAN Z     0.024366     -0.094284  KCAL/ANGSTROM
     34         12  H    CARTESIAN X    -0.730459     -0.188598  KCAL/ANGSTROM
     35         12  H    CARTESIAN Y    -0.940398     -0.132700  KCAL/ANGSTROM
     36         12  H    CARTESIAN Z     1.632405      0.083229  KCAL/ANGSTROM
     37         13  H    CARTESIAN X    -1.431382     -0.310759  KCAL/ANGSTROM
     38         13  H    CARTESIAN Y     1.055935     -0.165823  KCAL/ANGSTROM
     39         13  H    CARTESIAN Z    -0.667943      0.146872  KCAL/ANGSTROM
     40         14  H    CARTESIAN X    -0.694292      0.084352  KCAL/ANGSTROM
     41         14  H    CARTESIAN Y     1.467205     -0.110725  KCAL/ANGSTROM
     42         14  H    CARTESIAN Z     0.891938     -0.166853  KCAL/ANGSTROM
     43         15  H    CARTESIAN X     0.746893     -0.049672  KCAL/ANGSTROM
     44         15  H    CARTESIAN Y    -0.396866     -0.152208  KCAL/ANGSTROM
     45         15  H    CARTESIAN Z    -2.456530      0.106063  KCAL/ANGSTROM
     46         16  H    CARTESIAN X     3.035013     -0.061327  KCAL/ANGSTROM
     47         16  H    CARTESIAN Y    -0.868321      0.107529  KCAL/ANGSTROM
     48         16  H    CARTESIAN Z    -0.244235      0.089949  KCAL/ANGSTROM
     49         17  H    CARTESIAN X     3.270245     -0.045314  KCAL/ANGSTROM
     50         17  H    CARTESIAN Y     0.881918     -0.077987  KCAL/ANGSTROM
     51         17  H    CARTESIAN Z    -0.711060      0.120567  KCAL/ANGSTROM
     52         18  H    CARTESIAN X     3.564783      0.186315  KCAL/ANGSTROM
     53         18  H    CARTESIAN Y     1.463698     -0.271646  KCAL/ANGSTROM
     54         18  H    CARTESIAN Z     1.763627     -0.024988  KCAL/ANGSTROM
     55         19  H    CARTESIAN X     3.364945      0.201212  KCAL/ANGSTROM
     56         19  H    CARTESIAN Y    -0.240891      0.172254  KCAL/ANGSTROM
     57         19  H    CARTESIAN Z     2.204335     -0.168682  KCAL/ANGSTROM
     58         20  H    CARTESIAN X     4.782531     -0.326451  KCAL/ANGSTROM
     59         20  H    CARTESIAN Y     0.277388      0.034956  KCAL/ANGSTROM
     60         20  H    CARTESIAN Z     1.283111     -0.116003  KCAL/ANGSTROM




   ATOM   CHEMICAL          X               Y               Z
  NUMBER   SYMBOL      (ANGSTROMS)     (ANGSTROMS)     (ANGSTROMS)

     1       C         -3.84207648  *  -0.20138688  *   1.44566417  *
     2       C         -2.69100398  *  -0.38553242  *   1.11986666  *
     3       C         -1.32913826  *  -0.62599091  *   0.73950879  *
     4       C         -0.74054013  *   0.65830085  *   0.11601469  *
     5       C          0.63060129  *   0.37258402  *  -0.42049106  *
     6       N          0.83952717  *   0.24973950  *  -1.71196223  *
     7       O          1.58249331  *   0.46990725  *   0.46338898  *
     8       C          2.98157786  *   0.18069951  *   0.09467089  *
     9       C          3.69272790  *   0.43221813  *   1.39617028  *
    10       H         -4.82769762  *  -0.04613630  *   1.72331595  *
    11       H         -1.27772340  *  -1.48198843  *   0.02436619  *
    12       H         -0.73045907  *  -0.94039843  *   1.63240499  *
    13       H         -1.43138154  *   1.05593499  *  -0.66794311  *
    14       H         -0.69429159  *   1.46720473  *   0.89193774  *
    15       H          0.74689334  *  -0.39686617  *  -2.45653022  *
    16       H          3.03501320  *  -0.86832146  *  -0.24423490  *
    17       H          3.27024538  *   0.88191774  *  -0.71106039  *
    18       H          3.56478300  *   1.46369769  *   1.76362746  *
    19       H          3.36494516  *  -0.24089122  *   2.20433536  *
    20       H          4.78253110  *   0.27738828  *   1.28311091  *

                             CARTESIAN COORDINATES

   1    C       -3.842076481    -0.201386883     1.445664173
   2    C       -2.691003978    -0.385532424     1.119866664
   3    C       -1.329138260    -0.625990908     0.739508785
   4    C       -0.740540133     0.658300847     0.116014686
   5    C        0.630601295     0.372584016    -0.420491059
   6    N        0.839527174     0.249739500    -1.711962226
   7    O        1.582493314     0.469907253     0.463388979
   8    C        2.981577865     0.180699510     0.094670888
   9    C        3.692727898     0.432218131     1.396170282
  10    H       -4.827697619    -0.046136304     1.723315946
  11    H       -1.277723402    -1.481988429     0.024366190
  12    H       -0.730459068    -0.940398434     1.632404989
  13    H       -1.431381541     1.055934990    -0.667943107
  14    H       -0.694291591     1.467204726     0.891937745
  15    H        0.746893343    -0.396866174    -2.456530224
  16    H        3.035013200    -0.868321461    -0.244234903
  17    H        3.270245376     0.881917739    -0.711060394
  18    H        3.564782997     1.463697688     1.763627460
  19    H        3.364945158    -0.240891216     2.204335361
  20    H        4.782531104     0.277388284     1.283110910


           Empirical Formula: C7 H11 N O  =    20 atoms



      MOLECULAR POINT GROUP   :   C1  


          ALPHA EIGENVALUES  
 -42.27751 -36.99522 -33.51018 -31.77869 -29.82586 -28.19231 -26.52769 -25.81887
 -24.17979 -22.60717 -21.58113 -21.20792 -20.26868 -19.90528 -19.20256 -18.68648
 -18.28325 -18.08513 -17.57626 -17.48257 -17.09729 -16.99288 -16.36607 -14.34250
 -14.14238  -5.63528  -4.32185  -3.58595  -2.13574  -1.90329  -1.61055  -1.35824
  -0.64364  -0.23583   0.32532   0.50884   0.54623   0.62229   0.79956   1.24906
   1.31064   1.66602   1.77345   1.90260   2.87474   2.95233   3.82013


           BETA EIGENVALUES 
 -40.29857 -36.73188 -33.38407 -31.76516 -29.70612 -28.01698 -26.34045 -25.74605
 -23.95543 -22.41877 -21.47364 -20.89871 -20.15752 -19.78354 -19.09722 -18.24163
 -18.07532 -17.83903 -17.30256 -17.02457 -16.82942 -16.23160 -14.34332 -14.14175
  -7.17797  -5.54470  -4.11485  -2.99709  -1.92111  -1.89573  -1.60977  -1.26191
  -0.63096  -0.21960   0.37106   0.51456   0.62590   0.80142   0.98160   1.25352
   1.31306   1.66979   1.77393   1.90323   2.87586   2.95250   3.82008


              NET ATOMIC CHARGES AND DIPOLE CONTRIBUTIONS

  ATOM NO.   TYPE          CHARGE      No. of ELECS.   s-Pop       p-Pop       
    1          C          -0.083992        4.0840     1.14875     2.93524
    2          C          -0.160014        4.1600     1.08197     3.07804
    3          C          -0.203358        4.2034     1.04045     3.16291
    4          C          -0.306596        4.3066     1.07767     3.22893
    5          C           0.482077        3.5179     1.13135     2.38657
    6          N          -0.289759        5.2898     1.65073     3.63903
    7          O          -0.209390        6.2094     1.86802     4.34137
    8          C          -0.018755        4.0188     1.11721     2.90154
    9          C          -0.471044        4.4710     1.05421     3.41684
   10          H           0.208088        0.7919     0.79191
   11          H           0.167412        0.8326     0.83259
   12          H           0.181989        0.8180     0.81801
   13          H           0.214952        0.7850     0.78505
   14          H           0.223223        0.7768     0.77678
   15          H           0.380617        0.6194     0.61938
   16          H           0.150178        0.8498     0.84982
   17          H           0.160981        0.8390     0.83902
   18          H           0.186674        0.8133     0.81333
   19          H           0.184437        0.8156     0.81556
   20          H           0.202279        0.7977     0.79772
 DIPOLE           X         Y         Z       TOTAL
 POINT-CHG.     3.074    -0.297    -3.207     4.452
 HYBRID         0.334    -0.412    -0.477     0.713
 SUM            3.408    -0.709    -3.684     5.068


          ATOMIC ORBITAL ELECTRON POPULATIONS

     Atom    s        px        py        pz   
    1  C   1.14875   1.02577   0.94112   0.96835
    2  C   1.08197   0.96952   1.06252   1.04600
    3  C   1.04045   1.02877   0.99496   1.13917
    4  C   1.07767   0.92633   1.12769   1.17491
    5  C   1.13135   0.92265   0.70902   0.75490
    6  N   1.65073   1.04304   1.44505   1.15094
    7  O   1.86802   1.27413   1.69044   1.37680
    8  C   1.11721   0.69252   1.13123   1.07779
    9  C   1.05421   1.15459   1.21678   1.04547
   10  H   0.79191
   11  H   0.83259
   12  H   0.81801
   13  H   0.78505
   14  H   0.77678
   15  H   0.61938
   16  H   0.84982
   17  H   0.83902
   18  H   0.81333
   19  H   0.81556
   20  H   0.79772


                    (SZ)    =    0.500000
                    (S**2)  =    0.774999


          ATOMIC ORBITAL SPIN POPULATIONS

    Atom   Total    s     px     py     pz   
         Atomic
    1  C  0.0008  0.000  0.000  0.001 -0.000
    2  C  0.0013  0.001  0.001 -0.000  0.000
    3  C -0.0023 -0.000  0.000 -0.002 -0.000
    4  C  0.0587  0.006  0.029  0.002  0.022
    5  C -0.1315 -0.012 -0.030 -0.064 -0.026
    6  N  1.0879  0.039  0.877  0.111  0.060
    7  O  0.0177 -0.002  0.012 -0.028  0.036
    8  C  0.0019 -0.000  0.002 -0.000  0.000
    9  C  0.0014  0.000  0.001 -0.000 -0.000
   10  H  0.0000  0.000
   11  H  0.0005  0.001
   12  H  0.0000  0.000
   13  H -0.0026 -0.003
   14  H -0.0001 -0.000
   15  H -0.0339 -0.034
   16  H -0.0010 -0.001
   17  H -0.0006 -0.001
   18  H  0.0001  0.000
   19  H  0.0002  0.000
   20  H  0.0015  0.001

 **********************
 *                    *
 * JOB ENDED NORMALLY *
 *                    *
 **********************



 TOTAL JOB TIME:             1.57 SECONDS

 == MOPAC DONE ==
