 *******************************************************************************
 **                                                                           **
 **                              MOPAC v23.2                                  **
 **                                                                           **
 *******************************************************************************
 **          Digital Object Identifier (DOI): 10.5281/zenodo.6511958          **
 **    Visit the DOI location for information on how to cite this program.    **
 *******************************************************************************

                              PM7 CALCULATION RESULTS

 *******************************************************************************
 *  CALCULATION DONE: (MAX THREADS = 40)             Fri Sep 19 21:28:37 2025  *
 *  PM7        - The PM7 Hamiltonian to be used
 *  1SCF       - DO 1 SCF AND THEN STOP 
 *  T=         - A TIME OF 172800.0 SECONDS REQUESTED
 *  DUMP=N     - RESTART FILE WRITTEN EVERY 7200.0 SECONDS REQUESTED
 *  RELSCF     - DEFAULT SCF CRITERION MULTIPLIED BY 0.0001
 *              (DEFAULT SCF CRITERION = 0.00010)
 *  GRADIENTS  - ALL GRADIENTS TO BE PRINTED
 *  DISP       - PRINT DISPERSION AND HYDROGEN BOND ENERGIES
 *******************************************************************************
PM7 1SCF GRADIENTS DISP RELSCF=0.0001
 Title: ASE calculation

   ATOM   CHEMICAL          X               Y               Z
  NUMBER   SYMBOL      (ANGSTROMS)     (ANGSTROMS)     (ANGSTROMS)

     1       C          1.98443790  *  -0.99166222  *  -0.23591374  *
     2       C          0.88882940  *  -0.49732543  *   0.08337872  *
     3       C         -0.36489747  *   0.06694242  *   0.44880688  *
     4       C         -1.57100302  *  -0.96018044  *   0.40009645  *
     5       C         -2.21958440  *  -0.12687060  *  -0.71931421  *
     6       C         -2.44068954  *   1.30605670  *  -0.28422023  *
     7       C         -1.05122645  *   0.87104078  *  -0.69097140  *
     8       H          2.88571550  *  -1.39724159  *  -0.50099652  *
     9       H         -0.30611555  *   0.62517981  *   1.40586462  *
    10       H         -2.14396225  *  -1.03133443  *   1.32581486  *
    11       H         -1.27578537  *  -1.96585111  *   0.08978909  *
    12       H         -2.72141705  *  -0.58566807  *  -1.54470498  *
    13       H         -2.66983847  *   1.54131960  *   0.75082344  *
    14       H         -2.99142511  *   1.97187723  *  -0.94474555  *
    15       H         -0.48508533  *   1.30985421  *  -1.48414563  *



          CARTESIAN COORDINATES 

    NO.       ATOM           X           Y           Z

     1         C          1.9844     -0.9917     -0.2359
     2         C          0.8888     -0.4973      0.0834
     3         C         -0.3649      0.0669      0.4488
     4         C         -1.5710     -0.9602      0.4001
     5         C         -2.2196     -0.1269     -0.7193
     6         C         -2.4407      1.3061     -0.2842
     7         C         -1.0512      0.8710     -0.6910
     8         H          2.8857     -1.3972     -0.5010
     9         H         -0.3061      0.6252      1.4059
    10         H         -2.1440     -1.0313      1.3258
    11         H         -1.2758     -1.9659      0.0898
    12         H         -2.7214     -0.5857     -1.5447
    13         H         -2.6698      1.5413      0.7508
    14         H         -2.9914      1.9719     -0.9447
    15         H         -0.4851      1.3099     -1.4841

 General Reference for PM7:
 "Optimization of Parameters for Semiempirical Methods VI: More Modifications to the 
 NDDO Approximations and Re-optimization of Parameters", J. J. P. Stewart, J. Mol. Mod., 1:32, 19 (2013)
 https://link.springer.com/article/10.1007/s00894-012-1667-x

           Empirical Formula: C7 H8  =    15 atoms



      MOLECULAR POINT GROUP   :   C1  


      RHF CALCULATION, NO. OF DOUBLY OCCUPIED LEVELS = 18

  SCF CRITERION =    0.1000E-07

 -------------------------------------------------------------------------------
 PM7 1SCF GRADIENTS DISP RELSCF=0.0001
 Title: ASE calculation



     1SCF WAS SPECIFIED, SO BFGS WAS NOT USED                 
     SCF FIELD WAS ACHIEVED                                   


                              PM7 CALCULATION
                                                       MOPAC v23.2 Linux
                                                       Fri Sep 19 21:28:38 2025




          FINAL HEAT OF FORMATION =         96.22948 KCAL/MOL =     402.62414 KJ/MOL

          TOTAL ENERGY            =     -22243.93097 KCAL/MOL = ELECTRONIC ENERGY + CORE-CORE REPULSION
          ENERGY OF ATOMS         =      22330.54345 KCAL/MOL
                              SUM =         86.61248 KCAL/MOL
          DISPERSION ENERGY       =         -0.92299 KCAL/MOL
                              SUM =         85.68948 KCAL/MOL = FINAL HEAT OF FORMATION

     *    WARNING - An energy term is incorrect or missing!

     *    FINAL HEAT OF FORMATION     =     96.22948 KCAL/MOL
     *    SUM OF CONTRIBUTIONS TO HoF =     85.68948 KCAL/MOL
     *                     DIFFERENCE =     10.54000 KCAL/MOL



          TOTAL ENERGY            =       -964.58814 EV
          ELECTRONIC ENERGY       =      -4266.64348 EV 
          CORE-CORE REPULSION     =       3302.05533 EV
          COSMO AREA              =        143.39 SQUARE ANGSTROMS
          COSMO VOLUME            =        135.10 CUBIC ANGSTROMS

          GRADIENT NORM           =          0.97880          =       0.25273 PER ATOM
          IONIZATION POTENTIAL    =         10.258573 EV
          HOMO LUMO ENERGIES (EV) =        -10.259  1.304
          NO. OF FILLED LEVELS    =         18
          MOLECULAR WEIGHT        =         92.1402         POINT GROUP:  C1  

          MOLECULAR DIMENSIONS (Angstroms)

            Atom       Atom       Distance
            H    14    H     8     6.78886
            H    15    H    10     4.01506
            H     9    H    12     3.60755


          SCF CALCULATIONS        =          1

          WALL-CLOCK TIME         =      0.391 SECONDS
          COMPUTATION TIME        =      0.739 SECONDS

          LARGEST ATOMIC GRADIENTS

          Atom     Label                     Cartesian Gradients           Cartesian Coordinates       |Gradient|
                                           X          Y          Z        X          Y          Z

             5       C                   0.265     -0.004     -0.355   -2.21958   -0.12687   -0.71931      0.443
             3       C                   0.340      0.195     -0.186   -0.36490    0.06694    0.44881      0.434
             7       C                   0.088     -0.124     -0.274   -1.05123    0.87104   -0.69097      0.313
            15       H                  -0.193     -0.044      0.231   -0.48509    1.30985   -1.48415      0.304
            10       H                  -0.223     -0.040      0.173   -2.14396   -1.03133    1.32581      0.285
             4       C                  -0.200     -0.101      0.116   -1.57100   -0.96018    0.40010      0.252
             1       C                  -0.022     -0.096      0.214    1.98444   -0.99166   -0.23591      0.236
            12       H                   0.101      0.092      0.185   -2.72142   -0.58567   -1.54470      0.230
             8       H                  -0.112      0.053     -0.147    2.88572   -1.39724   -0.50100      0.192
            13       H                  -0.162      0.075      0.055   -2.66984    1.54132    0.75082      0.187



       FINAL  POINT  AND  DERIVATIVES

   PARAMETER     ATOM    TYPE            VALUE        GRADIENT
      1          1  C    CARTESIAN X     1.984438     -0.022131  KCAL/ANGSTROM
      2          1  C    CARTESIAN Y    -0.991662     -0.096453  KCAL/ANGSTROM
      3          1  C    CARTESIAN Z    -0.235914      0.214219  KCAL/ANGSTROM
      4          2  C    CARTESIAN X     0.888829      0.072368  KCAL/ANGSTROM
      5          2  C    CARTESIAN Y    -0.497325      0.035421  KCAL/ANGSTROM
      6          2  C    CARTESIAN Z     0.083379      0.000617  KCAL/ANGSTROM
      7          3  C    CARTESIAN X    -0.364897      0.339623  KCAL/ANGSTROM
      8          3  C    CARTESIAN Y     0.066942      0.194992  KCAL/ANGSTROM
      9          3  C    CARTESIAN Z     0.448807     -0.185904  KCAL/ANGSTROM
     10          4  C    CARTESIAN X    -1.571003     -0.199893  KCAL/ANGSTROM
     11          4  C    CARTESIAN Y    -0.960180     -0.101176  KCAL/ANGSTROM
     12          4  C    CARTESIAN Z     0.400096      0.115974  KCAL/ANGSTROM
     13          5  C    CARTESIAN X    -2.219584      0.265340  KCAL/ANGSTROM
     14          5  C    CARTESIAN Y    -0.126871     -0.003543  KCAL/ANGSTROM
     15          5  C    CARTESIAN Z    -0.719314     -0.354625  KCAL/ANGSTROM
     16          6  C    CARTESIAN X    -2.440690      0.000339  KCAL/ANGSTROM
     17          6  C    CARTESIAN Y     1.306057      0.113847  KCAL/ANGSTROM
     18          6  C    CARTESIAN Z    -0.284220      0.087590  KCAL/ANGSTROM
     19          7  C    CARTESIAN X    -1.051226      0.088088  KCAL/ANGSTROM
     20          7  C    CARTESIAN Y     0.871041     -0.123688  KCAL/ANGSTROM
     21          7  C    CARTESIAN Z    -0.690971     -0.273710  KCAL/ANGSTROM
     22          8  H    CARTESIAN X     2.885716     -0.112039  KCAL/ANGSTROM
     23          8  H    CARTESIAN Y    -1.397242      0.052810  KCAL/ANGSTROM
     24          8  H    CARTESIAN Z    -0.500997     -0.147029  KCAL/ANGSTROM
     25          9  H    CARTESIAN X    -0.306116      0.038459  KCAL/ANGSTROM
     26          9  H    CARTESIAN Y     0.625180     -0.119615  KCAL/ANGSTROM
     27          9  H    CARTESIAN Z     1.405865     -0.060087  KCAL/ANGSTROM
     28         10  H    CARTESIAN X    -2.143962     -0.222613  KCAL/ANGSTROM
     29         10  H    CARTESIAN Y    -1.031334     -0.040344  KCAL/ANGSTROM
     30         10  H    CARTESIAN Z     1.325815      0.172973  KCAL/ANGSTROM
     31         11  H    CARTESIAN X    -1.275785      0.068274  KCAL/ANGSTROM
     32         11  H    CARTESIAN Y    -1.965851     -0.000227  KCAL/ANGSTROM
     33         11  H    CARTESIAN Z     0.089789     -0.047032  KCAL/ANGSTROM
     34         12  H    CARTESIAN X    -2.721417      0.100755  KCAL/ANGSTROM
     35         12  H    CARTESIAN Y    -0.585668      0.091685  KCAL/ANGSTROM
     36         12  H    CARTESIAN Z    -1.544705      0.184709  KCAL/ANGSTROM
     37         13  H    CARTESIAN X    -2.669838     -0.162247  KCAL/ANGSTROM
     38         13  H    CARTESIAN Y     1.541320      0.074662  KCAL/ANGSTROM
     39         13  H    CARTESIAN Z     0.750823      0.055122  KCAL/ANGSTROM
     40         14  H    CARTESIAN X    -2.991425     -0.061428  KCAL/ANGSTROM
     41         14  H    CARTESIAN Y     1.971877     -0.034196  KCAL/ANGSTROM
     42         14  H    CARTESIAN Z    -0.944746      0.006012  KCAL/ANGSTROM
     43         15  H    CARTESIAN X    -0.485085     -0.192898  KCAL/ANGSTROM
     44         15  H    CARTESIAN Y     1.309854     -0.044179  KCAL/ANGSTROM
     45         15  H    CARTESIAN Z    -1.484146      0.231170  KCAL/ANGSTROM




   ATOM   CHEMICAL          X               Y               Z
  NUMBER   SYMBOL      (ANGSTROMS)     (ANGSTROMS)     (ANGSTROMS)

     1       C          1.98443790  *  -0.99166222  *  -0.23591374  *
     2       C          0.88882940  *  -0.49732543  *   0.08337872  *
     3       C         -0.36489747  *   0.06694242  *   0.44880688  *
     4       C         -1.57100302  *  -0.96018044  *   0.40009645  *
     5       C         -2.21958440  *  -0.12687060  *  -0.71931421  *
     6       C         -2.44068954  *   1.30605670  *  -0.28422023  *
     7       C         -1.05122645  *   0.87104078  *  -0.69097140  *
     8       H          2.88571550  *  -1.39724159  *  -0.50099652  *
     9       H         -0.30611555  *   0.62517981  *   1.40586462  *
    10       H         -2.14396225  *  -1.03133443  *   1.32581486  *
    11       H         -1.27578537  *  -1.96585111  *   0.08978909  *
    12       H         -2.72141705  *  -0.58566807  *  -1.54470498  *
    13       H         -2.66983847  *   1.54131960  *   0.75082344  *
    14       H         -2.99142511  *   1.97187723  *  -0.94474555  *
    15       H         -0.48508533  *   1.30985421  *  -1.48414563  *

                             CARTESIAN COORDINATES

   1    C        1.984437897    -0.991662224    -0.235913739
   2    C        0.888829403    -0.497325434     0.083378725
   3    C       -0.364897472     0.066942423     0.448806877
   4    C       -1.571003015    -0.960180445     0.400096446
   5    C       -2.219584398    -0.126870597    -0.719314212
   6    C       -2.440689537     1.306056698    -0.284220235
   7    C       -1.051226447     0.871040776    -0.690971398
   8    H        2.885715505    -1.397241588    -0.500996515
   9    H       -0.306115546     0.625179812     1.405864617
  10    H       -2.143962252    -1.031334433     1.325814863
  11    H       -1.275785374    -1.965851110     0.089789092
  12    H       -2.721417052    -0.585668066    -1.544704983
  13    H       -2.669838474     1.541319599     0.750823437
  14    H       -2.991425107     1.971877233    -0.944745550
  15    H       -0.485085328     1.309854207    -1.484145631


           Empirical Formula: C7 H8  =    15 atoms



      MOLECULAR POINT GROUP   :   C1  


                  EIGENVALUES  
 -32.30536 -26.67076 -24.84637 -23.00004 -20.62803 -19.17360 -18.04719 -16.89705
 -15.91104 -15.39010 -13.91500 -13.44796 -12.74740 -12.33794 -11.42551 -11.00886
 -10.53605 -10.25857   1.30430   1.44116   2.09664   3.27596   3.39845   3.58357
   4.14422   4.54770   5.05581   5.47943   5.59767   5.77688   6.11616   6.14368
   6.25124   6.28681   6.33550   6.94707


              NET ATOMIC CHARGES AND DIPOLE CONTRIBUTIONS

  ATOM NO.   TYPE          CHARGE      No. of ELECS.   s-Pop       p-Pop       
    1          C          -0.216545        4.2165     1.14068     3.07587
    2          C          -0.070906        4.0709     1.11232     2.95859
    3          C          -0.090618        4.0906     1.05100     3.03962
    4          C          -0.260759        4.2608     1.07344     3.18732
    5          C          -0.167979        4.1680     1.06239     3.10559
    6          C          -0.321485        4.3215     1.05549     3.26599
    7          C          -0.166019        4.1660     1.06592     3.10010
    8          H           0.186088        0.8139     0.81391
    9          H           0.163157        0.8368     0.83684
   10          H           0.145943        0.8541     0.85406
   11          H           0.153056        0.8469     0.84694
   12          H           0.160792        0.8392     0.83921
   13          H           0.160151        0.8398     0.83985
   14          H           0.159906        0.8401     0.84009
   15          H           0.165216        0.8348     0.83478
 DIPOLE           X         Y         Z       TOTAL
 POINT-CHG.    -0.782     0.125     0.221     0.822
 HYBRID         0.087    -0.008    -0.064     0.109
 SUM           -0.694     0.118     0.157     0.722


          ATOMIC ORBITAL ELECTRON POPULATIONS

     Atom    s        px        py        pz   
    1  C   1.14068   1.02823   1.02131   1.02633
    2  C   1.11232   0.97502   0.99247   0.99109
    3  C   1.05100   0.94498   1.02560   1.06904
    4  C   1.07344   1.02836   1.07005   1.08891
    5  C   1.06239   1.07616   0.94198   1.08745
    6  C   1.05549   1.05756   1.04714   1.16129
    7  C   1.06592   0.93979   1.07759   1.08271
    8  H   0.81391
    9  H   0.83684
   10  H   0.85406
   11  H   0.84694
   12  H   0.83921
   13  H   0.83985
   14  H   0.84009
   15  H   0.83478

 **********************
 *                    *
 * JOB ENDED NORMALLY *
 *                    *
 **********************



 TOTAL JOB TIME:             0.77 SECONDS

 == MOPAC DONE ==
