 *******************************************************************************
 **                                                                           **
 **                              MOPAC v23.2                                  **
 **                                                                           **
 *******************************************************************************
 **          Digital Object Identifier (DOI): 10.5281/zenodo.6511958          **
 **    Visit the DOI location for information on how to cite this program.    **
 *******************************************************************************

                              PM7 CALCULATION RESULTS

 *******************************************************************************
 *  CALCULATION DONE: (MAX THREADS = 40)             Fri Sep 19 21:32:54 2025  *
 *  PM7        - The PM7 Hamiltonian to be used
 *  1SCF       - DO 1 SCF AND THEN STOP 
 *  T=         - A TIME OF 172800.0 SECONDS REQUESTED
 *  DUMP=N     - RESTART FILE WRITTEN EVERY 7200.0 SECONDS REQUESTED
 *  RELSCF     - DEFAULT SCF CRITERION MULTIPLIED BY 0.0001
 *              (DEFAULT SCF CRITERION = 0.00010)
 *  GRADIENTS  - ALL GRADIENTS TO BE PRINTED
 *  DISP       - PRINT DISPERSION AND HYDROGEN BOND ENERGIES
 *******************************************************************************
PM7 1SCF GRADIENTS DISP RELSCF=0.0001
 Title: ASE calculation

   ATOM   CHEMICAL          X               Y               Z
  NUMBER   SYMBOL      (ANGSTROMS)     (ANGSTROMS)     (ANGSTROMS)

     1       C         -2.32063574  *   0.37226199  *  -0.25150853  *
     2       C         -1.07150229  *  -0.40614781  *  -0.60915548  *
     3       O         -0.42745936  *   0.27688402  *  -1.70062242  *
     4       C          0.74207701  *   0.86302542  *  -1.31733747  *
     5       O          1.39319726  *   1.49287689  *  -2.09889009  *
     6       C          1.05833630  *   0.54998379  *   0.14777195  *
     7       N          2.39855524  *   0.01478292  *   0.37161266  *
     8       C         -0.03286625  *  -0.47800416  *   0.54353017  *
     9       O         -0.69054392  *  -0.07009722  *   1.71599364  *
    10       H         -2.08386639  *   1.38220243  *   0.11106220  *
    11       H         -2.98255122  *   0.48251425  *  -1.11999295  *
    12       H         -2.88210632  *  -0.12577993  *   0.55132608  *
    13       H         -1.29760463  *  -1.40868510  *  -1.02964129  *
    14       H          0.92822823  *   1.48597373  *   0.75750987  *
    15       H          2.61441987  *  -0.76290121  *  -0.23477024  *
    16       H          3.11228407  *   0.72205175  *   0.25889719  *
    17       H          0.37278069  *  -1.49898070  *   0.69456758  *
    18       H         -0.07727561  *  -0.13398544  *   2.48176472  *



          CARTESIAN COORDINATES 

    NO.       ATOM           X           Y           Z

     1         C         -2.3206      0.3723     -0.2515
     2         C         -1.0715     -0.4061     -0.6092
     3         O         -0.4275      0.2769     -1.7006
     4         C          0.7421      0.8630     -1.3173
     5         O          1.3932      1.4929     -2.0989
     6         C          1.0583      0.5500      0.1478
     7         N          2.3986      0.0148      0.3716
     8         C         -0.0329     -0.4780      0.5435
     9         O         -0.6905     -0.0701      1.7160
    10         H         -2.0839      1.3822      0.1111
    11         H         -2.9826      0.4825     -1.1200
    12         H         -2.8821     -0.1258      0.5513
    13         H         -1.2976     -1.4087     -1.0296
    14         H          0.9282      1.4860      0.7575
    15         H          2.6144     -0.7629     -0.2348
    16         H          3.1123      0.7221      0.2589
    17         H          0.3728     -1.4990      0.6946
    18         H         -0.0773     -0.1340      2.4818

 General Reference for PM7:
 "Optimization of Parameters for Semiempirical Methods VI: More Modifications to the 
 NDDO Approximations and Re-optimization of Parameters", J. J. P. Stewart, J. Mol. Mod., 1:32, 19 (2013)
 https://link.springer.com/article/10.1007/s00894-012-1667-x

           Empirical Formula: C5 H9 N O3  =    18 atoms



      MOLECULAR POINT GROUP   :   C1  


      RHF CALCULATION, NO. OF DOUBLY OCCUPIED LEVELS = 26

  SCF CRITERION =    0.1000E-07

 -------------------------------------------------------------------------------
 PM7 1SCF GRADIENTS DISP RELSCF=0.0001
 Title: ASE calculation



     1SCF WAS SPECIFIED, SO BFGS WAS NOT USED                 
     SCF FIELD WAS ACHIEVED                                   


                              PM7 CALCULATION
                                                       MOPAC v23.2 Linux
                                                       Fri Sep 19 21:32:54 2025




          FINAL HEAT OF FORMATION =       -128.40684 KCAL/MOL =    -537.25423 KJ/MOL

          TOTAL ENERGY            =     -41695.42420 KCAL/MOL = ELECTRONIC ENERGY + CORE-CORE REPULSION
          ENERGY OF ATOMS         =      41568.79270 KCAL/MOL
                              SUM =       -126.63150 KCAL/MOL
          DISPERSION ENERGY       =         -1.77534 KCAL/MOL
                              SUM =       -128.40684 KCAL/MOL = FINAL HEAT OF FORMATION



          TOTAL ENERGY            =      -1808.08472 EV
          ELECTRONIC ENERGY       =      -8336.59910 EV 
          CORE-CORE REPULSION     =       6528.51438 EV
          COSMO AREA              =        155.06 SQUARE ANGSTROMS
          COSMO VOLUME            =        152.66 CUBIC ANGSTROMS

          GRADIENT NORM           =          0.98720          =       0.23268 PER ATOM
          IONIZATION POTENTIAL    =          9.936324 EV
          HOMO LUMO ENERGIES (EV) =         -9.936  0.687
          NO. OF FILLED LEVELS    =         26
          MOLECULAR WEIGHT        =        131.1310         POINT GROUP:  C1  

          MOLECULAR DIMENSIONS (Angstroms)

            Atom       Atom       Distance
            H    16    H    11     6.25346
            H    18    O     5     5.05527
            H    10    H    13     3.07188


          SCF CALCULATIONS        =          1

          WALL-CLOCK TIME         =      0.656 SECONDS
          COMPUTATION TIME        =      0.299 SECONDS

          LARGEST ATOMIC GRADIENTS

          Atom     Label                     Cartesian Gradients           Cartesian Coordinates       |Gradient|
                                           X          Y          Z        X          Y          Z

            13       H                   0.382      0.004      0.218   -1.29760   -1.40869   -1.02964      0.440
            18       H                   0.088     -0.088     -0.390   -0.07728   -0.13399    2.48176      0.409
            14       H                  -0.266      0.068     -0.052    0.92823    1.48597    0.75751      0.280
            11       H                   0.119     -0.040      0.226   -2.98255    0.48251   -1.11999      0.259
            10       H                  -0.242      0.066     -0.012   -2.08387    1.38220    0.11106      0.251
             8       C                  -0.159     -0.137     -0.135   -0.03287   -0.47800    0.54353      0.250
             7       N                   0.194     -0.104      0.078    2.39856    0.01478    0.37161      0.233
            12       H                   0.046      0.145     -0.176   -2.88211   -0.12578    0.55133      0.233
            17       H                   0.101     -0.014      0.191    0.37278   -1.49898    0.69457      0.216
             1       C                   0.038      0.136      0.109   -2.32064    0.37226   -0.25151      0.179



       FINAL  POINT  AND  DERIVATIVES

   PARAMETER     ATOM    TYPE            VALUE        GRADIENT
      1          1  C    CARTESIAN X    -2.320636      0.038346  KCAL/ANGSTROM
      2          1  C    CARTESIAN Y     0.372262      0.135938  KCAL/ANGSTROM
      3          1  C    CARTESIAN Z    -0.251509      0.109395  KCAL/ANGSTROM
      4          2  C    CARTESIAN X    -1.071502     -0.134269  KCAL/ANGSTROM
      5          2  C    CARTESIAN Y    -0.406148      0.080294  KCAL/ANGSTROM
      6          2  C    CARTESIAN Z    -0.609155      0.071213  KCAL/ANGSTROM
      7          3  O    CARTESIAN X    -0.427459      0.060122  KCAL/ANGSTROM
      8          3  O    CARTESIAN Y     0.276884     -0.145304  KCAL/ANGSTROM
      9          3  O    CARTESIAN Z    -1.700622      0.055144  KCAL/ANGSTROM
     10          4  C    CARTESIAN X     0.742077     -0.023860  KCAL/ANGSTROM
     11          4  C    CARTESIAN Y     0.863025      0.139272  KCAL/ANGSTROM
     12          4  C    CARTESIAN Z    -1.317337      0.017002  KCAL/ANGSTROM
     13          5  O    CARTESIAN X     1.393197      0.037854  KCAL/ANGSTROM
     14          5  O    CARTESIAN Y     1.492877      0.142968  KCAL/ANGSTROM
     15          5  O    CARTESIAN Z    -2.098890     -0.089903  KCAL/ANGSTROM
     16          6  C    CARTESIAN X     1.058336     -0.055649  KCAL/ANGSTROM
     17          6  C    CARTESIAN Y     0.549984     -0.071062  KCAL/ANGSTROM
     18          6  C    CARTESIAN Z     0.147772      0.026573  KCAL/ANGSTROM
     19          7  N    CARTESIAN X     2.398555      0.193632  KCAL/ANGSTROM
     20          7  N    CARTESIAN Y     0.014783     -0.103572  KCAL/ANGSTROM
     21          7  N    CARTESIAN Z     0.371613      0.078286  KCAL/ANGSTROM
     22          8  C    CARTESIAN X    -0.032866     -0.158563  KCAL/ANGSTROM
     23          8  C    CARTESIAN Y    -0.478004     -0.137007  KCAL/ANGSTROM
     24          8  C    CARTESIAN Z     0.543530     -0.135454  KCAL/ANGSTROM
     25          9  O    CARTESIAN X    -0.690544     -0.083613  KCAL/ANGSTROM
     26          9  O    CARTESIAN Y    -0.070097     -0.013526  KCAL/ANGSTROM
     27          9  O    CARTESIAN Z     1.715994     -0.091674  KCAL/ANGSTROM
     28         10  H    CARTESIAN X    -2.083866     -0.242143  KCAL/ANGSTROM
     29         10  H    CARTESIAN Y     1.382202      0.066164  KCAL/ANGSTROM
     30         10  H    CARTESIAN Z     0.111062     -0.012461  KCAL/ANGSTROM
     31         11  H    CARTESIAN X    -2.982551      0.118683  KCAL/ANGSTROM
     32         11  H    CARTESIAN Y     0.482514     -0.039894  KCAL/ANGSTROM
     33         11  H    CARTESIAN Z    -1.119993      0.226449  KCAL/ANGSTROM
     34         12  H    CARTESIAN X    -2.882106      0.046105  KCAL/ANGSTROM
     35         12  H    CARTESIAN Y    -0.125780      0.145475  KCAL/ANGSTROM
     36         12  H    CARTESIAN Z     0.551326     -0.175804  KCAL/ANGSTROM
     37         13  H    CARTESIAN X    -1.297605      0.381837  KCAL/ANGSTROM
     38         13  H    CARTESIAN Y    -1.408685      0.003532  KCAL/ANGSTROM
     39         13  H    CARTESIAN Z    -1.029641      0.217844  KCAL/ANGSTROM
     40         14  H    CARTESIAN X     0.928228     -0.266371  KCAL/ANGSTROM
     41         14  H    CARTESIAN Y     1.485974      0.068402  KCAL/ANGSTROM
     42         14  H    CARTESIAN Z     0.757510     -0.052016  KCAL/ANGSTROM
     43         15  H    CARTESIAN X     2.614420     -0.020352  KCAL/ANGSTROM
     44         15  H    CARTESIAN Y    -0.762901     -0.104457  KCAL/ANGSTROM
     45         15  H    CARTESIAN Z    -0.234770     -0.044072  KCAL/ANGSTROM
     46         16  H    CARTESIAN X     3.112284     -0.080254  KCAL/ANGSTROM
     47         16  H    CARTESIAN Y     0.722052     -0.065383  KCAL/ANGSTROM
     48         16  H    CARTESIAN Z     0.258897     -0.000992  KCAL/ANGSTROM
     49         17  H    CARTESIAN X     0.372781      0.100631  KCAL/ANGSTROM
     50         17  H    CARTESIAN Y    -1.498981     -0.014185  KCAL/ANGSTROM
     51         17  H    CARTESIAN Z     0.694568      0.190515  KCAL/ANGSTROM
     52         18  H    CARTESIAN X    -0.077276      0.087862  KCAL/ANGSTROM
     53         18  H    CARTESIAN Y    -0.133985     -0.087663  KCAL/ANGSTROM
     54         18  H    CARTESIAN Z     2.481765     -0.390048  KCAL/ANGSTROM




   ATOM   CHEMICAL          X               Y               Z
  NUMBER   SYMBOL      (ANGSTROMS)     (ANGSTROMS)     (ANGSTROMS)

     1       C         -2.32063574  *   0.37226199  *  -0.25150853  *
     2       C         -1.07150229  *  -0.40614781  *  -0.60915548  *
     3       O         -0.42745936  *   0.27688402  *  -1.70062242  *
     4       C          0.74207701  *   0.86302542  *  -1.31733747  *
     5       O          1.39319726  *   1.49287689  *  -2.09889009  *
     6       C          1.05833630  *   0.54998379  *   0.14777195  *
     7       N          2.39855524  *   0.01478292  *   0.37161266  *
     8       C         -0.03286625  *  -0.47800416  *   0.54353017  *
     9       O         -0.69054392  *  -0.07009722  *   1.71599364  *
    10       H         -2.08386639  *   1.38220243  *   0.11106220  *
    11       H         -2.98255122  *   0.48251425  *  -1.11999295  *
    12       H         -2.88210632  *  -0.12577993  *   0.55132608  *
    13       H         -1.29760463  *  -1.40868510  *  -1.02964129  *
    14       H          0.92822823  *   1.48597373  *   0.75750987  *
    15       H          2.61441987  *  -0.76290121  *  -0.23477024  *
    16       H          3.11228407  *   0.72205175  *   0.25889719  *
    17       H          0.37278069  *  -1.49898070  *   0.69456758  *
    18       H         -0.07727561  *  -0.13398544  *   2.48176472  *

                             CARTESIAN COORDINATES

   1    C       -2.320635738     0.372261991    -0.251508526
   2    C       -1.071502286    -0.406147807    -0.609155481
   3    O       -0.427459356     0.276884018    -1.700622423
   4    C        0.742077011     0.863025421    -1.317337470
   5    O        1.393197257     1.492876892    -2.098890085
   6    C        1.058336302     0.549983792     0.147771947
   7    N        2.398555237     0.014782922     0.371612664
   8    C       -0.032866254    -0.478004160     0.543530168
   9    O       -0.690543916    -0.070097221     1.715993641
  10    H       -2.083866394     1.382202431     0.111062197
  11    H       -2.982551215     0.482514251    -1.119992949
  12    H       -2.882106316    -0.125779931     0.551326081
  13    H       -1.297604631    -1.408685098    -1.029641292
  14    H        0.928228235     1.485973732     0.757509866
  15    H        2.614419870    -0.762901208    -0.234770237
  16    H        3.112284074     0.722051747     0.258897193
  17    H        0.372780689    -1.498980699     0.694567584
  18    H       -0.077275611    -0.133985445     2.481764715


           Empirical Formula: C5 H9 N O3  =    18 atoms



      MOLECULAR POINT GROUP   :   C1  


                  EIGENVALUES  
 -36.31348 -31.70295 -31.30805 -29.92461 -27.29988 -26.07375 -23.16071 -21.07328
 -20.37405 -18.80292 -17.70362 -16.77593 -16.53013 -16.04419 -15.38864 -15.01655
 -14.49160 -14.13516 -13.57034 -13.32401 -12.85377 -12.25484 -11.60448 -11.48330
 -11.24511  -9.93632   0.68697   1.31116   1.88732   2.32334   2.59700   3.04100
   3.08127   3.76872   4.19270   4.64487   4.86182   4.94665   5.14434   5.43314
   5.56545   5.59466   5.66419   6.35860   6.73320


              NET ATOMIC CHARGES AND DIPOLE CONTRIBUTIONS

  ATOM NO.   TYPE          CHARGE      No. of ELECS.   s-Pop       p-Pop       
    1          C          -0.461392        4.4614     1.05448     3.40691
    2          C           0.111031        3.8890     1.10319     2.78578
    3          O          -0.399268        6.3993     1.87359     4.52568
    4          C           0.531547        3.4685     1.14200     2.32646
    5          O          -0.432039        6.4320     1.87585     4.55619
    6          C          -0.115040        4.1150     1.09309     3.02195
    7          N          -0.618186        5.6182     1.63347     3.98471
    8          C           0.083491        3.9165     1.10279     2.81372
    9          O          -0.535265        6.5353     1.85064     4.68462
   10          H           0.167398        0.8326     0.83260
   11          H           0.162059        0.8379     0.83794
   12          H           0.170075        0.8299     0.82992
   13          H           0.146684        0.8533     0.85332
   14          H           0.192160        0.8078     0.80784
   15          H           0.257848        0.7422     0.74215
   16          H           0.269207        0.7308     0.73079
   17          H           0.141618        0.8584     0.85838
   18          H           0.328073        0.6719     0.67193
 DIPOLE           X         Y         Z       TOTAL
 POINT-CHG.    -0.565    -2.305     3.176     3.965
 HYBRID         0.508     0.530    -0.888     1.152
 SUM           -0.057    -1.775     2.288     2.896


          ATOMIC ORBITAL ELECTRON POPULATIONS

     Atom    s        px        py        pz   
    1  C   1.05448   1.07468   1.15789   1.17434
    2  C   1.10319   0.93182   1.00339   0.85057
    3  O   1.87359   1.43110   1.66874   1.42583
    4  C   1.14200   0.74885   0.71802   0.85959
    5  O   1.87585   1.55808   1.41879   1.57932
    6  C   1.09309   0.91117   1.08276   1.02802
    7  N   1.63347   1.10317   1.23891   1.64263
    8  C   1.10279   0.93090   1.02874   0.85407
    9  O   1.85064   1.48003   1.91003   1.29457
   10  H   0.83260
   11  H   0.83794
   12  H   0.82992
   13  H   0.85332
   14  H   0.80784
   15  H   0.74215
   16  H   0.73079
   17  H   0.85838
   18  H   0.67193

 **********************
 *                    *
 * JOB ENDED NORMALLY *
 *                    *
 **********************



 TOTAL JOB TIME:             1.11 SECONDS

 == MOPAC DONE ==
