 *******************************************************************************
 **                                                                           **
 **                              MOPAC v23.2                                  **
 **                                                                           **
 *******************************************************************************
 **          Digital Object Identifier (DOI): 10.5281/zenodo.6511958          **
 **    Visit the DOI location for information on how to cite this program.    **
 *******************************************************************************

                              PM7 CALCULATION RESULTS

 *******************************************************************************
 *  CALCULATION DONE: (MAX THREADS = 40)             Fri Sep 19 21:31:53 2025  *
 *  PM7        - The PM7 Hamiltonian to be used
 *  1SCF       - DO 1 SCF AND THEN STOP 
 *  T=         - A TIME OF 172800.0 SECONDS REQUESTED
 *  DUMP=N     - RESTART FILE WRITTEN EVERY 7200.0 SECONDS REQUESTED
 *  RELSCF     - DEFAULT SCF CRITERION MULTIPLIED BY 0.0001
 *              (DEFAULT SCF CRITERION = 0.00010)
 *  GRADIENTS  - ALL GRADIENTS TO BE PRINTED
 *  DISP       - PRINT DISPERSION AND HYDROGEN BOND ENERGIES
 *******************************************************************************
PM7 1SCF GRADIENTS DISP RELSCF=0.0001
 Title: ASE calculation

   ATOM   CHEMICAL          X               Y               Z
  NUMBER   SYMBOL      (ANGSTROMS)     (ANGSTROMS)     (ANGSTROMS)

     1       O          1.35882136  *   1.37567002  *   1.37752713  *
     2       C          1.58846856  *   1.04978028  *   0.01029826  *
     3       C          0.59041066  *   0.00232389  *  -0.33328533  *
     4       C          0.95316301  *  -1.42046343  *  -0.71755353  *
     5       C          0.07391760  *  -1.21991577  *   0.48900773  *
     6       C         -1.36915882  *  -0.92522682  *   0.05192330  *
     7       O         -2.06375000  *  -0.07426870  *   0.97702921  *
     8       C         -1.61481675  *   1.14721213  *   0.31006970  *
     9       C         -0.83943551  *   0.34824365  *  -0.76174852  *
    10       H          2.08321214  *   1.93418608  *   1.71815912  *
    11       H          2.62983897  *   0.69840509  *  -0.11093567  *
    12       H          1.43921109  *   1.96841192  *  -0.59272633  *
    13       H          1.97464054  *  -1.76176901  *  -0.56423948  *
    14       H          0.55346093  *  -1.85717941  *  -1.62877966  *
    15       H          0.31420435  *  -1.51310398  *   1.49013414  *
    16       H         -2.00629197  *  -1.70833836  *  -0.32488107  *
    17       H         -1.00907637  *   1.73973284  *   1.00616306  *
    18       H         -2.49244192  *   1.69274850  *  -0.04358468  *
    19       H         -1.04023379  *   0.53369387  *  -1.80253227  *



          CARTESIAN COORDINATES 

    NO.       ATOM           X           Y           Z

     1         O          1.3588      1.3757      1.3775
     2         C          1.5885      1.0498      0.0103
     3         C          0.5904      0.0023     -0.3333
     4         C          0.9532     -1.4205     -0.7176
     5         C          0.0739     -1.2199      0.4890
     6         C         -1.3692     -0.9252      0.0519
     7         O         -2.0638     -0.0743      0.9770
     8         C         -1.6148      1.1472      0.3101
     9         C         -0.8394      0.3482     -0.7617
    10         H          2.0832      1.9342      1.7182
    11         H          2.6298      0.6984     -0.1109
    12         H          1.4392      1.9684     -0.5927
    13         H          1.9746     -1.7618     -0.5642
    14         H          0.5535     -1.8572     -1.6288
    15         H          0.3142     -1.5131      1.4901
    16         H         -2.0063     -1.7083     -0.3249
    17         H         -1.0091      1.7397      1.0062
    18         H         -2.4924      1.6927     -0.0436
    19         H         -1.0402      0.5337     -1.8025

 General Reference for PM7:
 "Optimization of Parameters for Semiempirical Methods VI: More Modifications to the 
 NDDO Approximations and Re-optimization of Parameters", J. J. P. Stewart, J. Mol. Mod., 1:32, 19 (2013)
 https://link.springer.com/article/10.1007/s00894-012-1667-x

           Empirical Formula: C7 H10 O2  =    19 atoms



      MOLECULAR POINT GROUP   :   C1  


      RHF CALCULATION, NO. OF DOUBLY OCCUPIED LEVELS = 25

  SCF CRITERION =    0.1000E-07

 -------------------------------------------------------------------------------
 PM7 1SCF GRADIENTS DISP RELSCF=0.0001
 Title: ASE calculation



     1SCF WAS SPECIFIED, SO BFGS WAS NOT USED                 
     SCF FIELD WAS ACHIEVED                                   


                              PM7 CALCULATION
                                                       MOPAC v23.2 Linux
                                                       Fri Sep 19 21:31:54 2025




          FINAL HEAT OF FORMATION =        -11.96046 KCAL/MOL =     -50.04257 KJ/MOL

          TOTAL ENERGY            =     -36492.74794 KCAL/MOL = ELECTRONIC ENERGY + CORE-CORE REPULSION
          ENERGY OF ATOMS         =      36482.50324 KCAL/MOL
                              SUM =        -10.24470 KCAL/MOL
          DISPERSION ENERGY       =         -1.71576 KCAL/MOL
                              SUM =        -11.96046 KCAL/MOL = FINAL HEAT OF FORMATION



          TOTAL ENERGY            =      -1582.47533 EV
          ELECTRONIC ENERGY       =      -7751.85931 EV 
          CORE-CORE REPULSION     =       6169.38399 EV
          COSMO AREA              =        154.42 SQUARE ANGSTROMS
          COSMO VOLUME            =        155.03 CUBIC ANGSTROMS

          GRADIENT NORM           =          1.37067          =       0.31445 PER ATOM
          IONIZATION POTENTIAL    =          9.837854 EV
          HOMO LUMO ENERGIES (EV) =         -9.838  1.685
          NO. OF FILLED LEVELS    =         25
          MOLECULAR WEIGHT        =        126.1548         POINT GROUP:  C1  

          MOLECULAR DIMENSIONS (Angstroms)

            Atom       Atom       Distance
            H    16    H    10     5.84517
            H    18    H    13     5.61556
            H    15    H    19     3.53828


          SCF CALCULATIONS        =          1

          WALL-CLOCK TIME         =      0.602 SECONDS
          COMPUTATION TIME        =      0.758 SECONDS

          LARGEST ATOMIC GRADIENTS

          Atom     Label                     Cartesian Gradients           Cartesian Coordinates       |Gradient|
                                           X          Y          Z        X          Y          Z

             5       C                   0.111     -0.412      0.062    0.07392   -1.21992    0.48901      0.432
            13       H                  -0.199     -0.338     -0.042    1.97464   -1.76177   -0.56424      0.394
            16       H                   0.263      0.132      0.247   -2.00629   -1.70834   -0.32488      0.384
            19       H                   0.226      0.042      0.306   -1.04023    0.53369   -1.80253      0.383
            11       H                  -0.148      0.328     -0.084    2.62984    0.69841   -0.11094      0.369
             7       O                   0.354      0.042      0.041   -2.06375   -0.07427    0.97703      0.359
            17       H                  -0.121      0.315      0.105   -1.00908    1.73973    1.00616      0.353
             3       C                   0.287     -0.043      0.191    0.59041    0.00232   -0.33329      0.347
             6       C                  -0.020     -0.048     -0.335   -1.36916   -0.92523    0.05192      0.339
             2       C                  -0.268     -0.025     -0.190    1.58847    1.04978    0.01030      0.330



       FINAL  POINT  AND  DERIVATIVES

   PARAMETER     ATOM    TYPE            VALUE        GRADIENT
      1          1  O    CARTESIAN X     1.358821     -0.096329  KCAL/ANGSTROM
      2          1  O    CARTESIAN Y     1.375670     -0.177321  KCAL/ANGSTROM
      3          1  O    CARTESIAN Z     1.377527     -0.037682  KCAL/ANGSTROM
      4          2  C    CARTESIAN X     1.588469     -0.268067  KCAL/ANGSTROM
      5          2  C    CARTESIAN Y     1.049780     -0.024942  KCAL/ANGSTROM
      6          2  C    CARTESIAN Z     0.010298     -0.190154  KCAL/ANGSTROM
      7          3  C    CARTESIAN X     0.590411      0.286775  KCAL/ANGSTROM
      8          3  C    CARTESIAN Y     0.002324     -0.042567  KCAL/ANGSTROM
      9          3  C    CARTESIAN Z    -0.333285      0.190852  KCAL/ANGSTROM
     10          4  C    CARTESIAN X     0.953163      0.037666  KCAL/ANGSTROM
     11          4  C    CARTESIAN Y    -1.420463     -0.049229  KCAL/ANGSTROM
     12          4  C    CARTESIAN Z    -0.717554     -0.063521  KCAL/ANGSTROM
     13          5  C    CARTESIAN X     0.073918      0.110767  KCAL/ANGSTROM
     14          5  C    CARTESIAN Y    -1.219916     -0.412478  KCAL/ANGSTROM
     15          5  C    CARTESIAN Z     0.489008      0.061900  KCAL/ANGSTROM
     16          6  C    CARTESIAN X    -1.369159     -0.019953  KCAL/ANGSTROM
     17          6  C    CARTESIAN Y    -0.925227     -0.047573  KCAL/ANGSTROM
     18          6  C    CARTESIAN Z     0.051923     -0.335064  KCAL/ANGSTROM
     19          7  O    CARTESIAN X    -2.063750      0.354398  KCAL/ANGSTROM
     20          7  O    CARTESIAN Y    -0.074269      0.041562  KCAL/ANGSTROM
     21          7  O    CARTESIAN Z     0.977029      0.040912  KCAL/ANGSTROM
     22          8  C    CARTESIAN X    -1.614817      0.055874  KCAL/ANGSTROM
     23          8  C    CARTESIAN Y     1.147212      0.269948  KCAL/ANGSTROM
     24          8  C    CARTESIAN Z     0.310070     -0.026054  KCAL/ANGSTROM
     25          9  C    CARTESIAN X    -0.839436     -0.038978  KCAL/ANGSTROM
     26          9  C    CARTESIAN Y     0.348244     -0.187109  KCAL/ANGSTROM
     27          9  C    CARTESIAN Z    -0.761749     -0.109327  KCAL/ANGSTROM
     28         10  H    CARTESIAN X     2.083212     -0.048205  KCAL/ANGSTROM
     29         10  H    CARTESIAN Y     1.934186     -0.213143  KCAL/ANGSTROM
     30         10  H    CARTESIAN Z     1.718159      0.152122  KCAL/ANGSTROM
     31         11  H    CARTESIAN X     2.629839     -0.148324  KCAL/ANGSTROM
     32         11  H    CARTESIAN Y     0.698405      0.327846  KCAL/ANGSTROM
     33         11  H    CARTESIAN Z    -0.110936     -0.083719  KCAL/ANGSTROM
     34         12  H    CARTESIAN X     1.439211     -0.153217  KCAL/ANGSTROM
     35         12  H    CARTESIAN Y     1.968412      0.140046  KCAL/ANGSTROM
     36         12  H    CARTESIAN Z    -0.592726     -0.165941  KCAL/ANGSTROM
     37         13  H    CARTESIAN X     1.974641     -0.199256  KCAL/ANGSTROM
     38         13  H    CARTESIAN Y    -1.761769     -0.337696  KCAL/ANGSTROM
     39         13  H    CARTESIAN Z    -0.564239     -0.042276  KCAL/ANGSTROM
     40         14  H    CARTESIAN X     0.553461      0.094173  KCAL/ANGSTROM
     41         14  H    CARTESIAN Y    -1.857179      0.121608  KCAL/ANGSTROM
     42         14  H    CARTESIAN Z    -1.628780      0.230067  KCAL/ANGSTROM
     43         15  H    CARTESIAN X     0.314204     -0.131821  KCAL/ANGSTROM
     44         15  H    CARTESIAN Y    -1.513104     -0.017894  KCAL/ANGSTROM
     45         15  H    CARTESIAN Z     1.490134     -0.181915  KCAL/ANGSTROM
     46         16  H    CARTESIAN X    -2.006292      0.262546  KCAL/ANGSTROM
     47         16  H    CARTESIAN Y    -1.708338      0.132483  KCAL/ANGSTROM
     48         16  H    CARTESIAN Z    -0.324881      0.246768  KCAL/ANGSTROM
     49         17  H    CARTESIAN X    -1.009076     -0.121362  KCAL/ANGSTROM
     50         17  H    CARTESIAN Y     1.739733      0.314824  KCAL/ANGSTROM
     51         17  H    CARTESIAN Z     1.006163      0.104568  KCAL/ANGSTROM
     52         18  H    CARTESIAN X    -2.492442     -0.202477  KCAL/ANGSTROM
     53         18  H    CARTESIAN Y     1.692748      0.119393  KCAL/ANGSTROM
     54         18  H    CARTESIAN Z    -0.043585     -0.097588  KCAL/ANGSTROM
     55         19  H    CARTESIAN X    -1.040234      0.225791  KCAL/ANGSTROM
     56         19  H    CARTESIAN Y     0.533694      0.042240  KCAL/ANGSTROM
     57         19  H    CARTESIAN Z    -1.802532      0.306048  KCAL/ANGSTROM




   ATOM   CHEMICAL          X               Y               Z
  NUMBER   SYMBOL      (ANGSTROMS)     (ANGSTROMS)     (ANGSTROMS)

     1       O          1.35882136  *   1.37567002  *   1.37752713  *
     2       C          1.58846856  *   1.04978028  *   0.01029826  *
     3       C          0.59041066  *   0.00232389  *  -0.33328533  *
     4       C          0.95316301  *  -1.42046343  *  -0.71755353  *
     5       C          0.07391760  *  -1.21991577  *   0.48900773  *
     6       C         -1.36915882  *  -0.92522682  *   0.05192330  *
     7       O         -2.06375000  *  -0.07426870  *   0.97702921  *
     8       C         -1.61481675  *   1.14721213  *   0.31006970  *
     9       C         -0.83943551  *   0.34824365  *  -0.76174852  *
    10       H          2.08321214  *   1.93418608  *   1.71815912  *
    11       H          2.62983897  *   0.69840509  *  -0.11093567  *
    12       H          1.43921109  *   1.96841192  *  -0.59272633  *
    13       H          1.97464054  *  -1.76176901  *  -0.56423948  *
    14       H          0.55346093  *  -1.85717941  *  -1.62877966  *
    15       H          0.31420435  *  -1.51310398  *   1.49013414  *
    16       H         -2.00629197  *  -1.70833836  *  -0.32488107  *
    17       H         -1.00907637  *   1.73973284  *   1.00616306  *
    18       H         -2.49244192  *   1.69274850  *  -0.04358468  *
    19       H         -1.04023379  *   0.53369387  *  -1.80253227  *

                             CARTESIAN COORDINATES

   1    O        1.358821356     1.375670022     1.377527134
   2    C        1.588468556     1.049780281     0.010298265
   3    C        0.590410660     0.002323895    -0.333285335
   4    C        0.953163006    -1.420463432    -0.717553533
   5    C        0.073917602    -1.219915769     0.489007730
   6    C       -1.369158819    -0.925226823     0.051923305
   7    O       -2.063750002    -0.074268697     0.977029205
   8    C       -1.614816749     1.147212131     0.310069696
   9    C       -0.839435506     0.348243655    -0.761748517
  10    H        2.083212140     1.934186083     1.718159124
  11    H        2.629838972     0.698405088    -0.110935671
  12    H        1.439211085     1.968411920    -0.592726325
  13    H        1.974640541    -1.761769008    -0.564239479
  14    H        0.553460934    -1.857179412    -1.628779663
  15    H        0.314204355    -1.513103980     1.490134144
  16    H       -2.006291974    -1.708338363    -0.324881072
  17    H       -1.009076372     1.739732836     1.006163056
  18    H       -2.492441921     1.692748497    -0.043584680
  19    H       -1.040233789     0.533693873    -1.802532269


           Empirical Formula: C7 H10 O2  =    19 atoms



      MOLECULAR POINT GROUP   :   C1  


                  EIGENVALUES  
 -32.90194 -29.59026 -29.11874 -25.15499 -24.86648 -23.01289 -20.81647 -20.22164
 -17.64225 -17.42217 -16.94730 -16.65849 -16.40460 -14.84566 -14.69097 -13.99268
 -13.27525 -13.03380 -12.70363 -12.25579 -11.38966 -11.27998 -10.66517 -10.37033
  -9.83785   1.68455   2.04520   2.75677   2.95913   3.31043   3.40313   4.06337
   4.14842   4.29097   4.38785   4.92516   5.30604   5.52321   5.55662   5.75566
   5.82033   5.92307   6.00863   6.13821   6.27534   6.38273


              NET ATOMIC CHARGES AND DIPOLE CONTRIBUTIONS

  ATOM NO.   TYPE          CHARGE      No. of ELECS.   s-Pop       p-Pop       
    1          O          -0.536742        6.5367     1.85367     4.68308
    2          C           0.006959        3.9930     1.07589     2.91715
    3          C          -0.069328        4.0693     1.05162     3.01770
    4          C          -0.321271        4.3213     1.05706     3.26421
    5          C          -0.179302        4.1793     1.07717     3.10213
    6          C           0.102211        3.8978     1.10615     2.79164
    7          O          -0.379682        6.3797     1.90602     4.47367
    8          C          -0.047105        4.0471     1.10008     2.94702
    9          C          -0.214569        4.2146     1.09262     3.12195
   10          H           0.305426        0.6946     0.69457
   11          H           0.118161        0.8818     0.88184
   12          H           0.125656        0.8743     0.87434
   13          H           0.162580        0.8374     0.83742
   14          H           0.161191        0.8388     0.83881
   15          H           0.178513        0.8215     0.82149
   16          H           0.144453        0.8555     0.85555
   17          H           0.160039        0.8400     0.83996
   18          H           0.131492        0.8685     0.86851
   19          H           0.151317        0.8487     0.84868
 DIPOLE           X         Y         Z       TOTAL
 POINT-CHG.     2.300     0.713    -2.909     3.776
 HYBRID         0.193     0.186     0.572     0.631
 SUM            2.493     0.899    -2.337     3.534


          ATOMIC ORBITAL ELECTRON POPULATIONS

     Atom    s        px        py        pz   
    1  O   1.85367   1.56878   1.77738   1.33691
    2  C   1.07589   1.05331   1.04703   0.81682
    3  C   1.05162   0.98949   0.91056   1.11765
    4  C   1.05706   1.12786   1.04734   1.08900
    5  C   1.07717   0.98490   1.06286   1.05437
    6  C   1.10615   0.93847   0.95721   0.89596
    7  O   1.90602   1.70105   1.24499   1.52763
    8  C   1.10008   1.05636   0.90712   0.98355
    9  C   1.09262   0.99335   1.05220   1.07640
   10  H   0.69457
   11  H   0.88184
   12  H   0.87434
   13  H   0.83742
   14  H   0.83881
   15  H   0.82149
   16  H   0.85555
   17  H   0.83996
   18  H   0.86851
   19  H   0.84868

 **********************
 *                    *
 * JOB ENDED NORMALLY *
 *                    *
 **********************



 TOTAL JOB TIME:             1.00 SECONDS

 == MOPAC DONE ==
