 *******************************************************************************
 **                                                                           **
 **                              MOPAC v23.2                                  **
 **                                                                           **
 *******************************************************************************
 **          Digital Object Identifier (DOI): 10.5281/zenodo.6511958          **
 **    Visit the DOI location for information on how to cite this program.    **
 *******************************************************************************

                              PM7 CALCULATION RESULTS

 *******************************************************************************
 *  CALCULATION DONE: (MAX THREADS = 40)             Fri Sep 19 21:40:38 2025  *
 *  PM7        - The PM7 Hamiltonian to be used
 *
 *
 *
 *                 CHARGE ON SYSTEM = +1
 *
 *
 *
 *  1SCF       - DO 1 SCF AND THEN STOP 
 *  T=         - A TIME OF 172800.0 SECONDS REQUESTED
 *  DUMP=N     - RESTART FILE WRITTEN EVERY 7200.0 SECONDS REQUESTED
 *  RELSCF     - DEFAULT SCF CRITERION MULTIPLIED BY 0.0001
 *              (DEFAULT SCF CRITERION = 0.00010)
 *  GRADIENTS  - ALL GRADIENTS TO BE PRINTED
 *  DISP       - PRINT DISPERSION AND HYDROGEN BOND ENERGIES
 *******************************************************************************
PM7 1SCF GRADIENTS DISP RELSCF=0.0001 CHARGE=1
 Title: ASE calculation

   ATOM   CHEMICAL          X               Y               Z
  NUMBER   SYMBOL      (ANGSTROMS)     (ANGSTROMS)     (ANGSTROMS)

     1       C          2.19580353  *  -1.06144496  *   0.54807403  *
     2       C          1.21156377  *  -0.09447288  *   1.19898150  *
     3       C          0.10125405  *   0.26585236  *   0.24971070  *
     4       C         -1.22667771  *   0.73572724  *   0.73109991  *
     5       C         -1.95568703  *   1.83310824  *   0.02248994  *
     6       C         -1.14255900  *  -0.69782190  *   0.11130052  *
     7       C         -1.32547597  *  -1.88550311  *   1.00106928  *
     8       C         -1.62687696  *  -0.89314210  *  -1.23651166  *
     9       O         -2.07859702  *  -1.94619219  *  -1.67575861  *
    10       H          2.66456706  *  -0.63747337  *  -0.34878418  *
    11       H          3.01883980  *  -1.31225519  *   1.23625891  *
    12       H          1.71973819  *  -2.00572750  *   0.26448417  *
    13       H          0.83367436  *  -0.51536208  *   2.15322458  *
    14       H          1.74458633  *   0.84067622  *   1.49908155  *
    15       H          0.49416123  *   0.68497965  *  -0.69182328  *
    16       H         -1.42624000  *   0.73574752  *   1.82176800  *
    17       H         -1.73713746  *   2.81013542  *   0.50316303  *
    18       H         -1.68201349  *   1.96185215  *  -1.03043923  *
    19       H         -3.05021631  *   1.71777460  *   0.08691012  *
    20       H         -0.85747996  *  -1.74549932  *   1.99342380  *
    21       H         -2.38742345  *  -2.09874072  *   1.20938386  *
    22       H         -0.86694075  *  -2.80358424  *   0.60079178  *
    23       H         -1.59894766  *  -0.03044280  *  -1.97191154  *



          CARTESIAN COORDINATES 

    NO.       ATOM           X           Y           Z

     1         C          2.1958     -1.0614      0.5481
     2         C          1.2116     -0.0945      1.1990
     3         C          0.1013      0.2659      0.2497
     4         C         -1.2267      0.7357      0.7311
     5         C         -1.9557      1.8331      0.0225
     6         C         -1.1426     -0.6978      0.1113
     7         C         -1.3255     -1.8855      1.0011
     8         C         -1.6269     -0.8931     -1.2365
     9         O         -2.0786     -1.9462     -1.6758
    10         H          2.6646     -0.6375     -0.3488
    11         H          3.0188     -1.3123      1.2363
    12         H          1.7197     -2.0057      0.2645
    13         H          0.8337     -0.5154      2.1532
    14         H          1.7446      0.8407      1.4991
    15         H          0.4942      0.6850     -0.6918
    16         H         -1.4262      0.7357      1.8218
    17         H         -1.7371      2.8101      0.5032
    18         H         -1.6820      1.9619     -1.0304
    19         H         -3.0502      1.7178      0.0869
    20         H         -0.8575     -1.7455      1.9934
    21         H         -2.3874     -2.0987      1.2094
    22         H         -0.8669     -2.8036      0.6008
    23         H         -1.5989     -0.0304     -1.9719

 General Reference for PM7:
 "Optimization of Parameters for Semiempirical Methods VI: More Modifications to the 
 NDDO Approximations and Re-optimization of Parameters", J. J. P. Stewart, J. Mol. Mod., 1:32, 19 (2013)
 https://link.springer.com/article/10.1007/s00894-012-1667-x

           Empirical Formula: C8 H14 O  =    23 atoms



      MOLECULAR POINT GROUP   :   C1  


          UHF CALCULATION, NO. OF ALPHA ELECTRONS =   26
                           NO. OF BETA  ELECTRONS =   25
  SCF CRITERION =    0.1000E-07

 -------------------------------------------------------------------------------
 PM7 1SCF GRADIENTS DISP RELSCF=0.0001 CHARGE=1
 Title: ASE calculation



     1SCF WAS SPECIFIED, SO BFGS WAS NOT USED                 
     SCF FIELD WAS ACHIEVED                                   


                              PM7 CALCULATION
                                                       MOPAC v23.2 Linux
                                                       Fri Sep 19 21:40:40 2025




          FINAL HEAT OF FORMATION =        173.05994 KCAL/MOL =     724.08278 KJ/MOL

          TOTAL ENERGY            =     -33606.58070 KCAL/MOL = ELECTRONIC ENERGY + CORE-CORE REPULSION
          ENERGY OF ATOMS         =      33782.22825 KCAL/MOL
                              SUM =        175.64754 KCAL/MOL
          DISPERSION ENERGY       =         -2.58761 KCAL/MOL
                              SUM =        173.05994 KCAL/MOL = FINAL HEAT OF FORMATION



          TOTAL ENERGY            =      -1457.31927 EV
          ELECTRONIC ENERGY       =      -7674.83635 EV 
          CORE-CORE REPULSION     =       6217.51708 EV
          COSMO AREA              =        176.10 SQUARE ANGSTROMS
          COSMO VOLUME            =        181.66 CUBIC ANGSTROMS

          GRADIENT NORM           =          1.18209          =       0.24648 PER ATOM
          IONIZATION POTENTIAL    =         15.052986 EV
          ALPHA SOMO LUMO (EV)    =        -15.118 -6.338
          BETA  SOMO LUMO (EV)    =        -15.053 -8.249
          NO. OF ALPHA ELECTRONS  =         26
          NO. OF BETA  ELECTRONS  =         25
          MOLECULAR WEIGHT        =        126.1980         POINT GROUP:  C1  

          MOLECULAR DIMENSIONS (Angstroms)

            Atom       Atom       Distance
            H    19    H    11     6.88008
            H    17    O     9     5.04415
            H    20    H    23     3.79280


          SCF CALCULATIONS        =          1

          WALL-CLOCK TIME         =      1.938 SECONDS
          COMPUTATION TIME        =      0.976 SECONDS

          LARGEST ATOMIC GRADIENTS

          Atom     Label                     Cartesian Gradients           Cartesian Coordinates       |Gradient|
                                           X          Y          Z        X          Y          Z

             9       O                  -0.127     -0.416     -0.147   -2.07860   -1.94619   -1.67576      0.460
            20       H                  -0.060     -0.344     -0.184   -0.85748   -1.74550    1.99342      0.395
             6       C                  -0.007      0.340      0.135   -1.14256   -0.69782    0.11130      0.366
            12       H                  -0.137      0.287     -0.124    1.71974   -2.00573    0.26448      0.341
            11       H                   0.175      0.083     -0.274    3.01884   -1.31226    1.23626      0.335
            18       H                   0.102     -0.303     -0.017   -1.68201    1.96185   -1.03044      0.320
             8       C                   0.188      0.254     -0.020   -1.62688   -0.89314   -1.23651      0.317
            16       H                  -0.106     -0.212     -0.120   -1.42624    0.73575    1.82177      0.265
            22       H                  -0.226      0.047      0.129   -0.86694   -2.80358    0.60079      0.265
            23       H                   0.236      0.037      0.004   -1.59895   -0.03044   -1.97191      0.239



       FINAL  POINT  AND  DERIVATIVES

   PARAMETER     ATOM    TYPE            VALUE        GRADIENT
      1          1  C    CARTESIAN X     2.195804      0.016473  KCAL/ANGSTROM
      2          1  C    CARTESIAN Y    -1.061445      0.030649  KCAL/ANGSTROM
      3          1  C    CARTESIAN Z     0.548074      0.023056  KCAL/ANGSTROM
      4          2  C    CARTESIAN X     1.211564      0.076703  KCAL/ANGSTROM
      5          2  C    CARTESIAN Y    -0.094473      0.040440  KCAL/ANGSTROM
      6          2  C    CARTESIAN Z     1.198981      0.079452  KCAL/ANGSTROM
      7          3  C    CARTESIAN X     0.101254      0.095287  KCAL/ANGSTROM
      8          3  C    CARTESIAN Y     0.265852      0.105422  KCAL/ANGSTROM
      9          3  C    CARTESIAN Z     0.249711      0.079207  KCAL/ANGSTROM
     10          4  C    CARTESIAN X    -1.226678     -0.141885  KCAL/ANGSTROM
     11          4  C    CARTESIAN Y     0.735727      0.029815  KCAL/ANGSTROM
     12          4  C    CARTESIAN Z     0.731100     -0.013148  KCAL/ANGSTROM
     13          5  C    CARTESIAN X    -1.955687     -0.076396  KCAL/ANGSTROM
     14          5  C    CARTESIAN Y     1.833108      0.161870  KCAL/ANGSTROM
     15          5  C    CARTESIAN Z     0.022490      0.012804  KCAL/ANGSTROM
     16          6  C    CARTESIAN X    -1.142559     -0.007472  KCAL/ANGSTROM
     17          6  C    CARTESIAN Y    -0.697822      0.340360  KCAL/ANGSTROM
     18          6  C    CARTESIAN Z     0.111301      0.134608  KCAL/ANGSTROM
     19          7  C    CARTESIAN X    -1.325476     -0.106970  KCAL/ANGSTROM
     20          7  C    CARTESIAN Y    -1.885503      0.091865  KCAL/ANGSTROM
     21          7  C    CARTESIAN Z     1.001069      0.038048  KCAL/ANGSTROM
     22          8  C    CARTESIAN X    -1.626877      0.188424  KCAL/ANGSTROM
     23          8  C    CARTESIAN Y    -0.893142      0.253721  KCAL/ANGSTROM
     24          8  C    CARTESIAN Z    -1.236512     -0.020144  KCAL/ANGSTROM
     25          9  O    CARTESIAN X    -2.078597     -0.127486  KCAL/ANGSTROM
     26          9  O    CARTESIAN Y    -1.946192     -0.416410  KCAL/ANGSTROM
     27          9  O    CARTESIAN Z    -1.675759     -0.147165  KCAL/ANGSTROM
     28         10  H    CARTESIAN X     2.664567      0.050024  KCAL/ANGSTROM
     29         10  H    CARTESIAN Y    -0.637473     -0.172983  KCAL/ANGSTROM
     30         10  H    CARTESIAN Z    -0.348784      0.071556  KCAL/ANGSTROM
     31         11  H    CARTESIAN X     3.018840      0.174908  KCAL/ANGSTROM
     32         11  H    CARTESIAN Y    -1.312255      0.082983  KCAL/ANGSTROM
     33         11  H    CARTESIAN Z     1.236259     -0.273821  KCAL/ANGSTROM
     34         12  H    CARTESIAN X     1.719738     -0.136525  KCAL/ANGSTROM
     35         12  H    CARTESIAN Y    -2.005728      0.286524  KCAL/ANGSTROM
     36         12  H    CARTESIAN Z     0.264484     -0.124007  KCAL/ANGSTROM
     37         13  H    CARTESIAN X     0.833674      0.035052  KCAL/ANGSTROM
     38         13  H    CARTESIAN Y    -0.515362      0.078496  KCAL/ANGSTROM
     39         13  H    CARTESIAN Z     2.153225      0.071750  KCAL/ANGSTROM
     40         14  H    CARTESIAN X     1.744586      0.008971  KCAL/ANGSTROM
     41         14  H    CARTESIAN Y     0.840676     -0.022012  KCAL/ANGSTROM
     42         14  H    CARTESIAN Z     1.499082     -0.020450  KCAL/ANGSTROM
     43         15  H    CARTESIAN X     0.494161     -0.072667  KCAL/ANGSTROM
     44         15  H    CARTESIAN Y     0.684980     -0.060908  KCAL/ANGSTROM
     45         15  H    CARTESIAN Z    -0.691823      0.029494  KCAL/ANGSTROM
     46         16  H    CARTESIAN X    -1.426240     -0.105699  KCAL/ANGSTROM
     47         16  H    CARTESIAN Y     0.735748     -0.211742  KCAL/ANGSTROM
     48         16  H    CARTESIAN Z     1.821768     -0.119755  KCAL/ANGSTROM
     49         17  H    CARTESIAN X    -1.737137      0.170284  KCAL/ANGSTROM
     50         17  H    CARTESIAN Y     2.810135      0.008084  KCAL/ANGSTROM
     51         17  H    CARTESIAN Z     0.503163      0.092186  KCAL/ANGSTROM
     52         18  H    CARTESIAN X    -1.682013      0.102408  KCAL/ANGSTROM
     53         18  H    CARTESIAN Y     1.961852     -0.302818  KCAL/ANGSTROM
     54         18  H    CARTESIAN Z    -1.030439     -0.016850  KCAL/ANGSTROM
     55         19  H    CARTESIAN X    -3.050216     -0.068473  KCAL/ANGSTROM
     56         19  H    CARTESIAN Y     1.717775     -0.095156  KCAL/ANGSTROM
     57         19  H    CARTESIAN Z     0.086910     -0.033746  KCAL/ANGSTROM
     58         20  H    CARTESIAN X    -0.857480     -0.059652  KCAL/ANGSTROM
     59         20  H    CARTESIAN Y    -1.745499     -0.344110  KCAL/ANGSTROM
     60         20  H    CARTESIAN Z     1.993424     -0.184425  KCAL/ANGSTROM
     61         21  H    CARTESIAN X    -2.387423     -0.025676  KCAL/ANGSTROM
     62         21  H    CARTESIAN Y    -2.098741      0.031376  KCAL/ANGSTROM
     63         21  H    CARTESIAN Z     1.209384      0.187846  KCAL/ANGSTROM
     64         22  H    CARTESIAN X    -0.866941     -0.225977  KCAL/ANGSTROM
     65         22  H    CARTESIAN Y    -2.803584      0.047490  KCAL/ANGSTROM
     66         22  H    CARTESIAN Z     0.600792      0.129301  KCAL/ANGSTROM
     67         23  H    CARTESIAN X    -1.598948      0.236345  KCAL/ANGSTROM
     68         23  H    CARTESIAN Y    -0.030443      0.037048  KCAL/ANGSTROM
     69         23  H    CARTESIAN Z    -1.971912      0.004201  KCAL/ANGSTROM




   ATOM   CHEMICAL          X               Y               Z
  NUMBER   SYMBOL      (ANGSTROMS)     (ANGSTROMS)     (ANGSTROMS)

     1       C          2.19580353  *  -1.06144496  *   0.54807403  *
     2       C          1.21156377  *  -0.09447288  *   1.19898150  *
     3       C          0.10125405  *   0.26585236  *   0.24971070  *
     4       C         -1.22667771  *   0.73572724  *   0.73109991  *
     5       C         -1.95568703  *   1.83310824  *   0.02248994  *
     6       C         -1.14255900  *  -0.69782190  *   0.11130052  *
     7       C         -1.32547597  *  -1.88550311  *   1.00106928  *
     8       C         -1.62687696  *  -0.89314210  *  -1.23651166  *
     9       O         -2.07859702  *  -1.94619219  *  -1.67575861  *
    10       H          2.66456706  *  -0.63747337  *  -0.34878418  *
    11       H          3.01883980  *  -1.31225519  *   1.23625891  *
    12       H          1.71973819  *  -2.00572750  *   0.26448417  *
    13       H          0.83367436  *  -0.51536208  *   2.15322458  *
    14       H          1.74458633  *   0.84067622  *   1.49908155  *
    15       H          0.49416123  *   0.68497965  *  -0.69182328  *
    16       H         -1.42624000  *   0.73574752  *   1.82176800  *
    17       H         -1.73713746  *   2.81013542  *   0.50316303  *
    18       H         -1.68201349  *   1.96185215  *  -1.03043923  *
    19       H         -3.05021631  *   1.71777460  *   0.08691012  *
    20       H         -0.85747996  *  -1.74549932  *   1.99342380  *
    21       H         -2.38742345  *  -2.09874072  *   1.20938386  *
    22       H         -0.86694075  *  -2.80358424  *   0.60079178  *
    23       H         -1.59894766  *  -0.03044280  *  -1.97191154  *

                             CARTESIAN COORDINATES

   1    C        2.195803535    -1.061444963     0.548074033
   2    C        1.211563773    -0.094472878     1.198981497
   3    C        0.101254049     0.265852359     0.249710701
   4    C       -1.226677714     0.735727235     0.731099912
   5    C       -1.955687031     1.833108238     0.022489939
   6    C       -1.142558996    -0.697821904     0.111300523
   7    C       -1.325475967    -1.885503112     1.001069281
   8    C       -1.626876964    -0.893142103    -1.236511656
   9    O       -2.078597022    -1.946192188    -1.675758614
  10    H        2.664567060    -0.637473367    -0.348784183
  11    H        3.018839797    -1.312255186     1.236258914
  12    H        1.719738187    -2.005727503     0.264484172
  13    H        0.833674357    -0.515362080     2.153224578
  14    H        1.744586334     0.840676220     1.499081553
  15    H        0.494161227     0.684979652    -0.691823283
  16    H       -1.426239995     0.735747520     1.821767997
  17    H       -1.737137455     2.810135416     0.503163032
  18    H       -1.682013493     1.961852155    -1.030439233
  19    H       -3.050216308     1.717774595     0.086910119
  20    H       -0.857479960    -1.745499321     1.993423798
  21    H       -2.387423445    -2.098740716     1.209383855
  22    H       -0.866940746    -2.803584244     0.600791778
  23    H       -1.598947665    -0.030442798    -1.971911544


           Empirical Formula: C8 H14 O  =    23 atoms



      MOLECULAR POINT GROUP   :   C1  


          ALPHA EIGENVALUES  
 -40.70094 -36.40103 -31.53881 -30.96065 -29.49427 -28.42148 -25.46934 -24.54533
 -23.92927 -22.70476 -21.55678 -21.18575 -20.21614 -19.58608 -19.01939 -18.79242
 -18.16075 -17.98205 -17.88024 -17.40743 -17.19555 -16.82913 -15.99027 -15.69914
 -15.37466 -15.11753  -6.33818  -3.05732  -2.68790  -2.25789  -1.85856  -1.45438
  -0.75367  -0.60353  -0.22511   0.14359   0.77656   1.04633   1.24629   1.28276
   1.37296   1.51445   1.58746   1.80692   2.45061   2.50039   2.53377   2.68544
   2.80202   3.64841


           BETA EIGENVALUES 
 -37.68121 -36.21510 -31.38168 -30.78050 -29.00684 -28.35552 -25.29183 -24.12225
 -23.47810 -21.98543 -21.25594 -20.65372 -20.05082 -19.17828 -18.81172 -18.31103
 -18.08594 -17.87765 -17.50171 -17.27203 -16.89242 -15.98605 -15.68428 -15.37648
 -15.05299  -8.24912  -6.08773  -2.70229  -2.42668  -2.10598  -1.52660  -1.32360
  -0.76090  -0.57513  -0.21853   0.13939   0.77617   1.04754   1.25063   1.28480
   1.37375   1.51474   1.58782   1.80628   2.45062   2.50167   2.53387   2.68606
   2.80242   3.64842


              NET ATOMIC CHARGES AND DIPOLE CONTRIBUTIONS

  ATOM NO.   TYPE          CHARGE      No. of ELECS.   s-Pop       p-Pop       
    1          C          -0.437614        4.4376     1.05120     3.38641
    2          C          -0.263091        4.2631     1.05410     3.20900
    3          C          -0.068428        4.0684     1.08266     2.98577
    4          C          -0.060974        4.0610     1.07214     2.98883
    5          C          -0.470094        4.4701     1.05113     3.41897
    6          C          -0.167960        4.1680     1.05358     3.11438
    7          C          -0.446203        4.4462     1.04840     3.39780
    8          C           0.195403        3.8046     1.18737     2.61723
    9          O           0.182265        5.8177     1.90718     3.91056
   10          H           0.156248        0.8438     0.84375
   11          H           0.175589        0.8244     0.82441
   12          H           0.144531        0.8555     0.85547
   13          H           0.159088        0.8409     0.84091
   14          H           0.180487        0.8195     0.81951
   15          H           0.171705        0.8283     0.82829
   16          H           0.197619        0.8024     0.80238
   17          H           0.201855        0.7981     0.79814
   18          H           0.151449        0.8486     0.84855
   19          H           0.180436        0.8196     0.81956
   20          H           0.194615        0.8054     0.80538
   21          H           0.180526        0.8195     0.81947
   22          H           0.177552        0.8224     0.82245
   23          H           0.264995        0.7350     0.73500
 DIPOLE           X         Y         Z       TOTAL
 POINT-CHG.    -2.135     0.449    -2.542     3.350
 HYBRID        -0.478    -0.557    -0.645     0.977
 SUM           -2.613    -0.107    -3.187     4.123


          ATOMIC ORBITAL ELECTRON POPULATIONS

     Atom    s        px        py        pz   
    1  C   1.05120   1.11382   1.10656   1.16603
    2  C   1.05410   1.01842   1.13231   1.05827
    3  C   1.08266   0.92201   0.94953   1.11423
    4  C   1.07214   1.01708   0.86523   1.10652
    5  C   1.05113   1.15921   1.11100   1.14876
    6  C   1.05358   1.17406   1.03203   0.90830
    7  C   1.04840   1.20670   1.05193   1.13917
    8  C   1.18737   0.69648   0.92054   1.00021
    9  O   1.90718   1.47253   1.22264   1.21538
   10  H   0.84375
   11  H   0.82441
   12  H   0.85547
   13  H   0.84091
   14  H   0.81951
   15  H   0.82829
   16  H   0.80238
   17  H   0.79814
   18  H   0.84855
   19  H   0.81956
   20  H   0.80538
   21  H   0.81947
   22  H   0.82245
   23  H   0.73500


                    (SZ)    =    0.500000
                    (S**2)  =    0.770678


          ATOMIC ORBITAL SPIN POPULATIONS

    Atom   Total    s     px     py     pz   
         Atomic
    1  C -0.0000 -0.000 -0.000  0.000  0.000
    2  C  0.0006  0.000  0.000 -0.000  0.000
    3  C -0.0140 -0.001 -0.004 -0.009 -0.001
    4  C -0.0125 -0.001  0.000 -0.010 -0.002
    5  C  0.0026  0.000  0.000 -0.000  0.002
    6  C  0.0940  0.009  0.008  0.004  0.073
    7  C  0.0020 -0.000 -0.000  0.000  0.002
    8  C -0.1055 -0.019 -0.056 -0.029 -0.001
    9  O  0.9188  0.018  0.094  0.193  0.614
   10  H  0.0000  0.000
   11  H  0.0000  0.000
   12  H  0.0000  0.000
   13  H -0.0001 -0.000
   14  H -0.0006 -0.001
   15  H  0.0006  0.001
   16  H  0.0012  0.001
   17  H -0.0003 -0.000
   18  H -0.0000 -0.000
   19  H -0.0000 -0.000
   20  H  0.0029  0.003
   21  H -0.0001 -0.000
   22  H -0.0001 -0.000
   23  H  0.1106  0.111

 **********************
 *                    *
 * JOB ENDED NORMALLY *
 *                    *
 **********************



 TOTAL JOB TIME:             2.36 SECONDS

 == MOPAC DONE ==
