 *******************************************************************************
 **                                                                           **
 **                              MOPAC v23.2                                  **
 **                                                                           **
 *******************************************************************************
 **          Digital Object Identifier (DOI): 10.5281/zenodo.6511958          **
 **    Visit the DOI location for information on how to cite this program.    **
 *******************************************************************************

                              PM7 CALCULATION RESULTS

 *******************************************************************************
 *  CALCULATION DONE: (MAX THREADS = 40)             Fri Sep 19 22:00:16 2025  *
 *  PM7        - The PM7 Hamiltonian to be used
 *  EPS=37.5   - USE ANDREAS KLAMT'S COSMO IMPLICIT SOLVATION MODEL
 *  1SCF       - DO 1 SCF AND THEN STOP 
 *  T=         - A TIME OF 172800.0 SECONDS REQUESTED
 *  DUMP=N     - RESTART FILE WRITTEN EVERY 7200.0 SECONDS REQUESTED
 *  RELSCF     - DEFAULT SCF CRITERION MULTIPLIED BY 0.0001
 *              (DEFAULT SCF CRITERION = 0.00010)
 *  GRADIENTS  - ALL GRADIENTS TO BE PRINTED
 *  DISP       - PRINT DISPERSION AND HYDROGEN BOND ENERGIES
 *******************************************************************************
PM7 1SCF GRADIENTS EPS=37.5 DISP RELSCF=0.0001
 Title: ASE calculation

   ATOM   CHEMICAL          X               Y               Z
  NUMBER   SYMBOL      (ANGSTROMS)     (ANGSTROMS)     (ANGSTROMS)

     1       C          1.64431849  *  -0.01000698  *  -0.01051840  *
     2       N          1.90563606  *  -1.33470933  *  -0.05095449  *
     3       N          0.78555295  *  -2.07314152  *  -0.06569289  *
     4       C         -0.26265862  *  -1.21060186  *  -0.03394423  *
     5       N         -1.63372434  *  -1.07194203  *  -0.02146784  *
     6       N         -1.96873236  *   0.25249269  *   0.01946906  *
     7       C         -0.85294535  *   0.99485974  *   0.03434595  *
     8       N          0.25491810  *   0.13942419  *   0.00244137  *
     9       H          2.35308894  *   0.79478618  *   0.00869959  *
    10       H         -2.35308894  *  -1.77001122  *  -0.03740366  *
    11       H         -0.80998650  *   2.07314152  *   0.06569289  *



          CARTESIAN COORDINATES 

    NO.       ATOM           X           Y           Z

     1         C          1.6443     -0.0100     -0.0105
     2         N          1.9056     -1.3347     -0.0510
     3         N          0.7856     -2.0731     -0.0657
     4         C         -0.2627     -1.2106     -0.0339
     5         N         -1.6337     -1.0719     -0.0215
     6         N         -1.9687      0.2525      0.0195
     7         C         -0.8529      0.9949      0.0343
     8         N          0.2549      0.1394      0.0024
     9         H          2.3531      0.7948      0.0087
    10         H         -2.3531     -1.7700     -0.0374
    11         H         -0.8100      2.0731      0.0657

 General Reference for PM7:
 "Optimization of Parameters for Semiempirical Methods VI: More Modifications to the 
 NDDO Approximations and Re-optimization of Parameters", J. J. P. Stewart, J. Mol. Mod., 1:32, 19 (2013)
 https://link.springer.com/article/10.1007/s00894-012-1667-x

           Empirical Formula: C3 H3 N5  =    11 atoms



      MOLECULAR POINT GROUP   :   Cs  


      RHF CALCULATION, NO. OF DOUBLY OCCUPIED LEVELS = 20

  SCF CRITERION =    0.1000E-07

 -------------------------------------------------------------------------------
 PM7 1SCF GRADIENTS EPS=37.5 DISP RELSCF=0.0001
 Title: ASE calculation



     1SCF WAS SPECIFIED, SO BFGS WAS NOT USED                 
     SCF FIELD WAS ACHIEVED                                   


                              PM7 CALCULATION
                                                       MOPAC v23.2 Linux
                                                       Fri Sep 19 22:00:17 2025




          FINAL HEAT OF FORMATION =         99.02864 KCAL/MOL =     414.33584 KJ/MOL

          TOTAL ENERGY            =     -30851.70426 KCAL/MOL = ELECTRONIC ENERGY + CORE-CORE REPULSION + SOLVATION ENERGY
          ENERGY OF ATOMS         =      30951.69952 KCAL/MOL
                              SUM =         99.99526 KCAL/MOL
          DISPERSION ENERGY       =         -0.96662 KCAL/MOL
                              SUM =         99.02864 KCAL/MOL = FINAL HEAT OF FORMATION

          VAN DER WAALS AREA      =        127.30 SQUARE ANGSTROMS


          TOTAL ENERGY            =      -1337.85652 EV
          ELECTRONIC ENERGY       =      -1748.76790 EV 
          CORE-CORE REPULSION     =        410.91138 EV

          DIELECTRIC ENERGY       =         -0.96232 EV
          COSMO AREA              =        127.30 SQUARE ANGSTROMS
          COSMO VOLUME            =        115.97 CUBIC ANGSTROMS

          GRADIENT NORM           =         29.27764          =       8.82754 PER ATOM
          IONIZATION POTENTIAL    =          9.607014 EV
          HOMO LUMO ENERGIES (EV) =         -9.607 -0.694
          NO. OF FILLED LEVELS    =         20
          MOLECULAR WEIGHT        =        109.0902         POINT GROUP:  Cs  

          MOLECULAR DIMENSIONS (Angstroms)

            Atom       Atom       Distance
            H    10    H     9     5.35989
            H    11    N     3     4.40605
            H     9    N     5     0.00008


          SCF CALCULATIONS        =          2

          WALL-CLOCK TIME         =      0.508 SECONDS
          COMPUTATION TIME        =      0.793 SECONDS

          LARGEST ATOMIC GRADIENTS

          Atom     Label                     Cartesian Gradients           Cartesian Coordinates       |Gradient|
                                           X          Y          Z        X          Y          Z

             4       C                  13.820     -4.866     -0.184   -0.26266   -1.21060   -0.03394     14.653
             2       N                  -8.514    -10.056     -0.288    1.90564   -1.33471   -0.05095     13.179
             3       N                   8.370      8.708      0.201    0.78555   -2.07314   -0.06569     12.080
             5       N                 -10.702      0.948      0.137   -1.63372   -1.07194   -0.02147     10.744
            10       H                   5.601      7.100      0.125   -2.35309   -1.77001   -0.03740      9.044
             9       H                  -3.434     -4.879     -0.165    2.35309    0.79479    0.00870      5.968
            11       H                  -1.492     -5.690     -0.131   -0.80999    2.07314    0.06569      5.884
             1       C                   2.211      4.738      0.185    1.64432   -0.01001   -0.01052      5.232
             6       N                  -4.248      0.254      0.048   -1.96873    0.25249    0.01947      4.256
             8       N                  -1.200      2.665      0.095    0.25492    0.13942    0.00244      2.924



       FINAL  POINT  AND  DERIVATIVES

   PARAMETER     ATOM    TYPE            VALUE        GRADIENT
      1          1  C    CARTESIAN X     1.644318      2.211464  KCAL/ANGSTROM
      2          1  C    CARTESIAN Y    -0.010007      4.737684  KCAL/ANGSTROM
      3          1  C    CARTESIAN Z    -0.010518      0.184515  KCAL/ANGSTROM
      4          2  N    CARTESIAN X     1.905636     -8.514207  KCAL/ANGSTROM
      5          2  N    CARTESIAN Y    -1.334709    -10.055619  KCAL/ANGSTROM
      6          2  N    CARTESIAN Z    -0.050954     -0.288041  KCAL/ANGSTROM
      7          3  N    CARTESIAN X     0.785553      8.370294  KCAL/ANGSTROM
      8          3  N    CARTESIAN Y    -2.073142      8.707910  KCAL/ANGSTROM
      9          3  N    CARTESIAN Z    -0.065693      0.200912  KCAL/ANGSTROM
     10          4  C    CARTESIAN X    -0.262659     13.820246  KCAL/ANGSTROM
     11          4  C    CARTESIAN Y    -1.210602     -4.865949  KCAL/ANGSTROM
     12          4  C    CARTESIAN Z    -0.033944     -0.183996  KCAL/ANGSTROM
     13          5  N    CARTESIAN X    -1.633724    -10.701603  KCAL/ANGSTROM
     14          5  N    CARTESIAN Y    -1.071942      0.947551  KCAL/ANGSTROM
     15          5  N    CARTESIAN Z    -0.021468      0.136564  KCAL/ANGSTROM
     16          6  N    CARTESIAN X    -1.968732     -4.248151  KCAL/ANGSTROM
     17          6  N    CARTESIAN Y     0.252493      0.254394  KCAL/ANGSTROM
     18          6  N    CARTESIAN Z     0.019469      0.047638  KCAL/ANGSTROM
     19          7  C    CARTESIAN X    -0.852945     -0.413264  KCAL/ANGSTROM
     20          7  C    CARTESIAN Y     0.994860      1.077597  KCAL/ANGSTROM
     21          7  C    CARTESIAN Z     0.034346     -0.021122  KCAL/ANGSTROM
     22          8  N    CARTESIAN X     0.254918     -1.199783  KCAL/ANGSTROM
     23          8  N    CARTESIAN Y     0.139424      2.665373  KCAL/ANGSTROM
     24          8  N    CARTESIAN Z     0.002441      0.094746  KCAL/ANGSTROM
     25          9  H    CARTESIAN X     2.353089     -3.434023  KCAL/ANGSTROM
     26          9  H    CARTESIAN Y     0.794786     -4.878748  KCAL/ANGSTROM
     27          9  H    CARTESIAN Z     0.008700     -0.165361  KCAL/ANGSTROM
     28         10  H    CARTESIAN X    -2.353089      5.600531  KCAL/ANGSTROM
     29         10  H    CARTESIAN Y    -1.770011      7.100225  KCAL/ANGSTROM
     30         10  H    CARTESIAN Z    -0.037404      0.124949  KCAL/ANGSTROM
     31         11  H    CARTESIAN X    -0.809987     -1.491506  KCAL/ANGSTROM
     32         11  H    CARTESIAN Y     2.073142     -5.690423  KCAL/ANGSTROM
     33         11  H    CARTESIAN Z     0.065693     -0.130806  KCAL/ANGSTROM




   ATOM   CHEMICAL          X               Y               Z
  NUMBER   SYMBOL      (ANGSTROMS)     (ANGSTROMS)     (ANGSTROMS)

     1       C          1.64431849  *  -0.01000698  *  -0.01051840  *
     2       N          1.90563606  *  -1.33470933  *  -0.05095449  *
     3       N          0.78555295  *  -2.07314152  *  -0.06569289  *
     4       C         -0.26265862  *  -1.21060186  *  -0.03394423  *
     5       N         -1.63372434  *  -1.07194203  *  -0.02146784  *
     6       N         -1.96873236  *   0.25249269  *   0.01946906  *
     7       C         -0.85294535  *   0.99485974  *   0.03434595  *
     8       N          0.25491810  *   0.13942419  *   0.00244137  *
     9       H          2.35308894  *   0.79478618  *   0.00869959  *
    10       H         -2.35308894  *  -1.77001122  *  -0.03740366  *
    11       H         -0.80998650  *   2.07314152  *   0.06569289  *

                             CARTESIAN COORDINATES

   1    C        1.644318493    -0.010006978    -0.010518404
   2    N        1.905636063    -1.334709330    -0.050954486
   3    N        0.785552952    -2.073141524    -0.065692893
   4    C       -0.262658620    -1.210601858    -0.033944226
   5    N       -1.633724339    -1.071942027    -0.021467836
   6    N       -1.968732358     0.252492693     0.019469062
   7    C       -0.852945348     0.994859738     0.034345954
   8    N        0.254918101     0.139424189     0.002441367
   9    H        2.353088940     0.794786176     0.008699586
  10    H       -2.353088940    -1.770011223    -0.037403660
  11    H       -0.809986504     2.073141524     0.065692893


           Empirical Formula: C3 H3 N5  =    11 atoms



      MOLECULAR POINT GROUP   :   Cs  


                  EIGENVALUES  
 -42.24104 -40.47486 -35.65083 -31.61163 -29.82185 -24.34086 -23.29624 -22.42581
 -19.09132 -18.15646 -17.66115 -16.57472 -15.47429 -14.74913 -13.91817 -12.99461
 -12.90549 -12.02415 -11.18113  -9.60701  -0.69350  -0.12211  -0.04472   0.54956
   0.72587   1.84732   2.26365   2.73555   2.89336   4.21151   4.39064   4.93393
   5.03704   5.20593   5.86925


              NET ATOMIC CHARGES AND DIPOLE CONTRIBUTIONS

  ATOM NO.   TYPE          CHARGE      No. of ELECS.   s-Pop       p-Pop       
    1          C           0.085800        3.9142     1.10795     2.80625
    2          N          -0.261768        5.2618     1.77414     3.48763
    3          N          -0.345488        5.3455     1.79393     3.55155
    4          C           0.255694        3.7443     1.07496     2.66934
    5          N          -0.218315        5.2183     1.50801     3.71031
    6          N          -0.234969        5.2350     1.78483     3.45014
    7          C           0.129107        3.8709     1.10927     2.76162
    8          N          -0.306619        5.3066     1.56033     3.74629
    9          H           0.240373        0.7596     0.75963
   10          H           0.404511        0.5955     0.59549
   11          H           0.251674        0.7483     0.74833
 DIPOLE           X         Y         Z       TOTAL
 POINT-CHG.    -3.148     4.863     0.162     5.795
 HYBRID        -0.496     0.545     0.018     0.737
 SUM           -3.644     5.408     0.180     6.523


          ATOMIC ORBITAL ELECTRON POPULATIONS

     Atom    s        px        py        pz   
    1  C   1.10795   0.79719   0.95239   1.05667
    2  N   1.77414   1.19744   1.07750   1.21270
    3  N   1.79393   0.95378   1.22266   1.37512
    4  C   1.07496   0.83782   0.80213   1.02939
    5  N   1.50801   1.08149   1.05366   1.57516
    6  N   1.78483   1.28682   0.91494   1.24839
    7  C   1.10927   0.73587   1.01189   1.01386
    8  N   1.56033   1.12927   1.12998   1.48703
    9  H   0.75963
   10  H   0.59549
   11  H   0.74833

 **********************
 *                    *
 * JOB ENDED NORMALLY *
 *                    *
 **********************



 TOTAL JOB TIME:             0.80 SECONDS

 == MOPAC DONE ==
