 *******************************************************************************
 **                                                                           **
 **                              MOPAC v23.2                                  **
 **                                                                           **
 *******************************************************************************
 **          Digital Object Identifier (DOI): 10.5281/zenodo.6511958          **
 **    Visit the DOI location for information on how to cite this program.    **
 *******************************************************************************

                              PM7 CALCULATION RESULTS

 *******************************************************************************
 *  CALCULATION DONE: (MAX THREADS = 40)             Fri Sep 19 21:28:21 2025  *
 *  PM7        - The PM7 Hamiltonian to be used
 *  1SCF       - DO 1 SCF AND THEN STOP 
 *  T=         - A TIME OF 172800.0 SECONDS REQUESTED
 *  DUMP=N     - RESTART FILE WRITTEN EVERY 7200.0 SECONDS REQUESTED
 *  RELSCF     - DEFAULT SCF CRITERION MULTIPLIED BY 0.0001
 *              (DEFAULT SCF CRITERION = 0.00010)
 *  GRADIENTS  - ALL GRADIENTS TO BE PRINTED
 *  DISP       - PRINT DISPERSION AND HYDROGEN BOND ENERGIES
 *******************************************************************************
PM7 1SCF GRADIENTS DISP RELSCF=0.0001
 Title: ASE calculation

   ATOM   CHEMICAL          X               Y               Z
  NUMBER   SYMBOL      (ANGSTROMS)     (ANGSTROMS)     (ANGSTROMS)

     1       C          3.68762841  *  -0.59716827  *  -0.03539251  *
     2       O          2.34824030  *  -0.80692098  *  -0.47538738  *
     3       C          1.40806632  *  -0.13703192  *   0.27094100  *
     4       O          1.67311218  *   0.59278554  *   1.20083475  *
     5       N          0.15915698  *  -0.41944440  *  -0.21520456  *
     6       C         -1.01261488  *   0.09947491  *   0.50526382  *
     7       C         -2.25043756  *   0.10653572  *  -0.41840808  *
     8       C         -2.70041816  *  -1.31991470  *  -0.74728890  *
     9       C         -3.37456951  *   0.86990590  *   0.28846337  *
    10       H          4.26797116  *  -1.22006121  *  -0.72593102  *
    11       H          3.95504995  *   0.46159024  *  -0.12577829  *
    12       H          3.80208223  *  -0.93372700  *   1.00124076  *
    13       H          0.01718068  *  -1.08172115  *  -0.95822667  *
    14       H         -0.78872281  *   1.13295354  *   0.86634780  *
    15       H         -1.20245122  *  -0.51676202  *   1.41310261  *
    16       H         -1.99199680  *   0.63655644  *  -1.36764344  *
    17       H         -3.61525194  *  -1.31543692  *  -1.35147530  *
    18       H         -1.94470536  *  -1.86914475  *  -1.31825774  *
    19       H         -2.91210093  *  -1.89580757  *   0.16112011  *
    20       H         -3.08826029  *   1.90696304  *   0.49939745  *
    21       H         -3.64832395  *   0.39918650  *   1.23946741  *
    22       H         -4.27917570  *   0.90425327  *  -0.32868188  *



          CARTESIAN COORDINATES 

    NO.       ATOM           X           Y           Z

     1         C          3.6876     -0.5972     -0.0354
     2         O          2.3482     -0.8069     -0.4754
     3         C          1.4081     -0.1370      0.2709
     4         O          1.6731      0.5928      1.2008
     5         N          0.1592     -0.4194     -0.2152
     6         C         -1.0126      0.0995      0.5053
     7         C         -2.2504      0.1065     -0.4184
     8         C         -2.7004     -1.3199     -0.7473
     9         C         -3.3746      0.8699      0.2885
    10         H          4.2680     -1.2201     -0.7259
    11         H          3.9550      0.4616     -0.1258
    12         H          3.8021     -0.9337      1.0012
    13         H          0.0172     -1.0817     -0.9582
    14         H         -0.7887      1.1330      0.8663
    15         H         -1.2025     -0.5168      1.4131
    16         H         -1.9920      0.6366     -1.3676
    17         H         -3.6153     -1.3154     -1.3515
    18         H         -1.9447     -1.8691     -1.3183
    19         H         -2.9121     -1.8958      0.1611
    20         H         -3.0883      1.9070      0.4994
    21         H         -3.6483      0.3992      1.2395
    22         H         -4.2792      0.9043     -0.3287

 General Reference for PM7:
 "Optimization of Parameters for Semiempirical Methods VI: More Modifications to the 
 NDDO Approximations and Re-optimization of Parameters", J. J. P. Stewart, J. Mol. Mod., 1:32, 19 (2013)
 https://link.springer.com/article/10.1007/s00894-012-1667-x

           Empirical Formula: C6 H13 N O2  =    22 atoms



      MOLECULAR POINT GROUP   :   C1  


      RHF CALCULATION, NO. OF DOUBLY OCCUPIED LEVELS = 27

  SCF CRITERION =    0.1000E-07

 -------------------------------------------------------------------------------
 PM7 1SCF GRADIENTS DISP RELSCF=0.0001
 Title: ASE calculation



     1SCF WAS SPECIFIED, SO BFGS WAS NOT USED                 
     SCF FIELD WAS ACHIEVED                                   


                              PM7 CALCULATION
                                                       MOPAC v23.2 Linux
                                                       Fri Sep 19 21:28:21 2025




          FINAL HEAT OF FORMATION =       -109.41013 KCAL/MOL =    -457.77200 KJ/MOL

          TOTAL ENERGY            =     -38975.96633 KCAL/MOL = ELECTRONIC ENERGY + CORE-CORE REPULSION
          ENERGY OF ATOMS         =      38868.51771 KCAL/MOL
                              SUM =       -107.44862 KCAL/MOL
          DISPERSION ENERGY       =         -2.00811 KCAL/MOL
          MM CORR. FOR -CO-NH-    =          0.04659 KCAL/MOL
                              SUM =       -109.41013 KCAL/MOL = FINAL HEAT OF FORMATION



          TOTAL ENERGY            =      -1690.15787 EV
          ELECTRONIC ENERGY       =      -8119.06079 EV 
          CORE-CORE REPULSION     =       6428.90292 EV
          COSMO AREA              =        182.87 SQUARE ANGSTROMS
          COSMO VOLUME            =        176.42 CUBIC ANGSTROMS

          GRADIENT NORM           =          1.09335          =       0.23310 PER ATOM
          IONIZATION POTENTIAL    =          9.730594 EV
          HOMO LUMO ENERGIES (EV) =         -9.731  1.115
          NO. OF FILLED LEVELS    =         27
          MOLECULAR WEIGHT        =        131.1742         POINT GROUP:  C1  

          MOLECULAR DIMENSIONS (Angstroms)

            Atom       Atom       Distance
            H    22    H    10     8.81614
            H    18    O     4     4.20138
            H    16    H    19     2.86464


          SCF CALCULATIONS        =          1

          WALL-CLOCK TIME         =      0.570 SECONDS
          COMPUTATION TIME        =      0.536 SECONDS

          LARGEST ATOMIC GRADIENTS

          Atom     Label                     Cartesian Gradients           Cartesian Coordinates       |Gradient|
                                           X          Y          Z        X          Y          Z

            13       H                  -0.316     -0.113     -0.028    0.01718   -1.08172   -0.95823      0.336
            18       H                   0.288      0.085     -0.138   -1.94471   -1.86914   -1.31826      0.330
            12       H                  -0.228     -0.197      0.073    3.80208   -0.93373    1.00124      0.310
            10       H                   0.211     -0.083      0.182    4.26797   -1.22006   -0.72593      0.291
            15       H                   0.016      0.283      0.008   -1.20245   -0.51676    1.41310      0.284
            22       H                   0.177      0.070      0.210   -4.27918    0.90425   -0.32868      0.283
             4       O                   0.215     -0.095     -0.109    1.67311    0.59279    1.20083      0.259
             3       C                  -0.216     -0.127     -0.065    1.40807   -0.13703    0.27094      0.259
             5       N                  -0.210      0.046     -0.144    0.15916   -0.41944   -0.21520      0.259
            14       H                  -0.115      0.193      0.128   -0.78872    1.13295    0.86635      0.258



       FINAL  POINT  AND  DERIVATIVES

   PARAMETER     ATOM    TYPE            VALUE        GRADIENT
      1          1  C    CARTESIAN X     3.687628     -0.037129  KCAL/ANGSTROM
      2          1  C    CARTESIAN Y    -0.597168      0.020246  KCAL/ANGSTROM
      3          1  C    CARTESIAN Z    -0.035393      0.025542  KCAL/ANGSTROM
      4          2  O    CARTESIAN X     2.348240     -0.052979  KCAL/ANGSTROM
      5          2  O    CARTESIAN Y    -0.806921      0.096882  KCAL/ANGSTROM
      6          2  O    CARTESIAN Z    -0.475387     -0.179149  KCAL/ANGSTROM
      7          3  C    CARTESIAN X     1.408066     -0.216138  KCAL/ANGSTROM
      8          3  C    CARTESIAN Y    -0.137032     -0.126802  KCAL/ANGSTROM
      9          3  C    CARTESIAN Z     0.270941     -0.065390  KCAL/ANGSTROM
     10          4  O    CARTESIAN X     1.673112      0.214959  KCAL/ANGSTROM
     11          4  O    CARTESIAN Y     0.592786     -0.095258  KCAL/ANGSTROM
     12          4  O    CARTESIAN Z     1.200835     -0.109337  KCAL/ANGSTROM
     13          5  N    CARTESIAN X     0.159157     -0.209656  KCAL/ANGSTROM
     14          5  N    CARTESIAN Y    -0.419444      0.046285  KCAL/ANGSTROM
     15          5  N    CARTESIAN Z    -0.215205     -0.144128  KCAL/ANGSTROM
     16          6  C    CARTESIAN X    -1.012615     -0.167731  KCAL/ANGSTROM
     17          6  C    CARTESIAN Y     0.099475      0.173576  KCAL/ANGSTROM
     18          6  C    CARTESIAN Z     0.505264     -0.026695  KCAL/ANGSTROM
     19          7  C    CARTESIAN X    -2.250438     -0.116034  KCAL/ANGSTROM
     20          7  C    CARTESIAN Y     0.106536     -0.116094  KCAL/ANGSTROM
     21          7  C    CARTESIAN Z    -0.418408      0.045793  KCAL/ANGSTROM
     22          8  C    CARTESIAN X    -2.700418      0.128438  KCAL/ANGSTROM
     23          8  C    CARTESIAN Y    -1.319915     -0.162145  KCAL/ANGSTROM
     24          8  C    CARTESIAN Z    -0.747289     -0.025209  KCAL/ANGSTROM
     25          9  C    CARTESIAN X    -3.374570      0.100293  KCAL/ANGSTROM
     26          9  C    CARTESIAN Y     0.869906     -0.020406  KCAL/ANGSTROM
     27          9  C    CARTESIAN Z     0.288463      0.098376  KCAL/ANGSTROM
     28         10  H    CARTESIAN X     4.267971      0.211428  KCAL/ANGSTROM
     29         10  H    CARTESIAN Y    -1.220061     -0.083023  KCAL/ANGSTROM
     30         10  H    CARTESIAN Z    -0.725931      0.181995  KCAL/ANGSTROM
     31         11  H    CARTESIAN X     3.955050      0.083840  KCAL/ANGSTROM
     32         11  H    CARTESIAN Y     0.461590      0.097262  KCAL/ANGSTROM
     33         11  H    CARTESIAN Z    -0.125778     -0.028303  KCAL/ANGSTROM
     34         12  H    CARTESIAN X     3.802082     -0.228269  KCAL/ANGSTROM
     35         12  H    CARTESIAN Y    -0.933727     -0.196878  KCAL/ANGSTROM
     36         12  H    CARTESIAN Z     1.001241      0.072937  KCAL/ANGSTROM
     37         13  H    CARTESIAN X     0.017181     -0.315593  KCAL/ANGSTROM
     38         13  H    CARTESIAN Y    -1.081721     -0.113191  KCAL/ANGSTROM
     39         13  H    CARTESIAN Z    -0.958227     -0.027984  KCAL/ANGSTROM
     40         14  H    CARTESIAN X    -0.788723     -0.114824  KCAL/ANGSTROM
     41         14  H    CARTESIAN Y     1.132954      0.193118  KCAL/ANGSTROM
     42         14  H    CARTESIAN Z     0.866348      0.127695  KCAL/ANGSTROM
     43         15  H    CARTESIAN X    -1.202451      0.015800  KCAL/ANGSTROM
     44         15  H    CARTESIAN Y    -0.516762      0.283100  KCAL/ANGSTROM
     45         15  H    CARTESIAN Z     1.413103      0.008097  KCAL/ANGSTROM
     46         16  H    CARTESIAN X    -1.991997     -0.140981  KCAL/ANGSTROM
     47         16  H    CARTESIAN Y     0.636556     -0.066109  KCAL/ANGSTROM
     48         16  H    CARTESIAN Z    -1.367643      0.133825  KCAL/ANGSTROM
     49         17  H    CARTESIAN X    -3.615252      0.194475  KCAL/ANGSTROM
     50         17  H    CARTESIAN Y    -1.315437     -0.039539  KCAL/ANGSTROM
     51         17  H    CARTESIAN Z    -1.351475     -0.118270  KCAL/ANGSTROM
     52         18  H    CARTESIAN X    -1.944705      0.287715  KCAL/ANGSTROM
     53         18  H    CARTESIAN Y    -1.869145      0.085095  KCAL/ANGSTROM
     54         18  H    CARTESIAN Z    -1.318258     -0.137975  KCAL/ANGSTROM
     55         19  H    CARTESIAN X    -2.912101      0.139990  KCAL/ANGSTROM
     56         19  H    CARTESIAN Y    -1.895808      0.010753  KCAL/ANGSTROM
     57         19  H    CARTESIAN Z     0.161120      0.089062  KCAL/ANGSTROM
     58         20  H    CARTESIAN X    -3.088260     -0.022298  KCAL/ANGSTROM
     59         20  H    CARTESIAN Y     1.906963      0.034670  KCAL/ANGSTROM
     60         20  H    CARTESIAN Z     0.499397     -0.091997  KCAL/ANGSTROM
     61         21  H    CARTESIAN X    -3.648324      0.068091  KCAL/ANGSTROM
     62         21  H    CARTESIAN Y     0.399187     -0.091892  KCAL/ANGSTROM
     63         21  H    CARTESIAN Z     1.239467     -0.038991  KCAL/ANGSTROM
     64         22  H    CARTESIAN X    -4.279176      0.176604  KCAL/ANGSTROM
     65         22  H    CARTESIAN Y     0.904253      0.070348  KCAL/ANGSTROM
     66         22  H    CARTESIAN Z    -0.328682      0.210104  KCAL/ANGSTROM




   ATOM   CHEMICAL          X               Y               Z
  NUMBER   SYMBOL      (ANGSTROMS)     (ANGSTROMS)     (ANGSTROMS)

     1       C          3.68762841  *  -0.59716827  *  -0.03539251  *
     2       O          2.34824030  *  -0.80692098  *  -0.47538738  *
     3       C          1.40806632  *  -0.13703192  *   0.27094100  *
     4       O          1.67311218  *   0.59278554  *   1.20083475  *
     5       N          0.15915698  *  -0.41944440  *  -0.21520456  *
     6       C         -1.01261488  *   0.09947491  *   0.50526382  *
     7       C         -2.25043756  *   0.10653572  *  -0.41840808  *
     8       C         -2.70041816  *  -1.31991470  *  -0.74728890  *
     9       C         -3.37456951  *   0.86990590  *   0.28846337  *
    10       H          4.26797116  *  -1.22006121  *  -0.72593102  *
    11       H          3.95504995  *   0.46159024  *  -0.12577829  *
    12       H          3.80208223  *  -0.93372700  *   1.00124076  *
    13       H          0.01718068  *  -1.08172115  *  -0.95822667  *
    14       H         -0.78872281  *   1.13295354  *   0.86634780  *
    15       H         -1.20245122  *  -0.51676202  *   1.41310261  *
    16       H         -1.99199680  *   0.63655644  *  -1.36764344  *
    17       H         -3.61525194  *  -1.31543692  *  -1.35147530  *
    18       H         -1.94470536  *  -1.86914475  *  -1.31825774  *
    19       H         -2.91210093  *  -1.89580757  *   0.16112011  *
    20       H         -3.08826029  *   1.90696304  *   0.49939745  *
    21       H         -3.64832395  *   0.39918650  *   1.23946741  *
    22       H         -4.27917570  *   0.90425327  *  -0.32868188  *

                             CARTESIAN COORDINATES

   1    C        3.687628415    -0.597168268    -0.035392513
   2    O        2.348240300    -0.806920978    -0.475387379
   3    C        1.408066317    -0.137031925     0.270940995
   4    O        1.673112183     0.592785536     1.200834751
   5    N        0.159156982    -0.419444397    -0.215204559
   6    C       -1.012614882     0.099474912     0.505263822
   7    C       -2.250437565     0.106535718    -0.418408082
   8    C       -2.700418158    -1.319914701    -0.747288896
   9    C       -3.374569512     0.869905896     0.288463367
  10    H        4.267971160    -1.220061208    -0.725931016
  11    H        3.955049955     0.461590239    -0.125778290
  12    H        3.802082232    -0.933726998     1.001240758
  13    H        0.017180675    -1.081721149    -0.958226673
  14    H       -0.788722806     1.132953536     0.866347803
  15    H       -1.202451217    -0.516762023     1.413102605
  16    H       -1.991996801     0.636556440    -1.367643437
  17    H       -3.615251940    -1.315436916    -1.351475299
  18    H       -1.944705363    -1.869144745    -1.318257745
  19    H       -2.912100927    -1.895807566     0.161120114
  20    H       -3.088260287     1.906963042     0.499397455
  21    H       -3.648323954     0.399186503     1.239467415
  22    H       -4.279175697     0.904253273    -0.328681878


           Empirical Formula: C6 H13 N O2  =    22 atoms



      MOLECULAR POINT GROUP   :   C1  


                  EIGENVALUES  
 -36.87433 -30.66355 -29.70068 -29.10183 -25.01507 -24.35936 -23.47985 -20.97852
 -19.91331 -18.38478 -16.76367 -16.36308 -15.96554 -15.48049 -14.88155 -14.66985
 -14.13565 -13.91317 -13.54073 -13.16972 -12.83864 -12.34153 -12.04745 -11.85949
 -11.08459 -10.89713  -9.73059   1.11523   1.66886   2.92164   3.54051   3.78633
   3.98616   4.26661   4.48076   5.30769   5.45154   5.47873   5.53903   5.55870
   5.57661   5.61199   5.75375   5.84249   5.96409   6.13434   6.57324   6.75960
   6.80725


              NET ATOMIC CHARGES AND DIPOLE CONTRIBUTIONS

  ATOM NO.   TYPE          CHARGE      No. of ELECS.   s-Pop       p-Pop       
    1          C          -0.153041        4.1530     1.08641     3.06663
    2          O          -0.426094        6.4261     1.87197     4.55413
    3          C           0.712059        3.2879     1.05572     2.23222
    4          O          -0.556908        6.5569     1.88038     4.67653
    5          N          -0.598473        5.5985     1.54955     4.04892
    6          C          -0.067304        4.0673     1.07403     2.99327
    7          C          -0.084232        4.0842     1.06071     3.02352
    8          C          -0.452725        4.4527     1.05532     3.39740
    9          C          -0.452831        4.4528     1.05533     3.39750
   10          H           0.144466        0.8555     0.85553
   11          H           0.141817        0.8582     0.85818
   12          H           0.140823        0.8592     0.85918
   13          H           0.324186        0.6758     0.67581
   14          H           0.162090        0.8379     0.83791
   15          H           0.139775        0.8602     0.86023
   16          H           0.144259        0.8557     0.85574
   17          H           0.148420        0.8516     0.85158
   18          H           0.138718        0.8613     0.86128
   19          H           0.149910        0.8501     0.85009
   20          H           0.148760        0.8512     0.85124
   21          H           0.148423        0.8516     0.85158
   22          H           0.147902        0.8521     0.85210
 DIPOLE           X         Y         Z       TOTAL
 POINT-CHG.    -1.549    -0.986    -1.112     2.147
 HYBRID        -0.147    -0.459    -0.285     0.560
 SUM           -1.696    -1.445    -1.397     2.630


          ATOMIC ORBITAL ELECTRON POPULATIONS

     Atom    s        px        py        pz   
    1  C   1.08641   0.78981   1.14978   1.12704
    2  O   1.87197   1.26037   1.70163   1.59212
    3  C   1.05572   0.74956   0.73984   0.74282
    4  O   1.88038   1.81269   1.47878   1.38506
    5  N   1.54955   1.11094   1.53498   1.40300
    6  C   1.07403   0.85663   1.12573   1.01090
    7  C   1.06071   0.96581   0.99591   1.06180
    8  C   1.05532   1.16401   1.06133   1.17206
    9  C   1.05533   1.10424   1.14093   1.15233
   10  H   0.85553
   11  H   0.85818
   12  H   0.85918
   13  H   0.67581
   14  H   0.83791
   15  H   0.86023
   16  H   0.85574
   17  H   0.85158
   18  H   0.86128
   19  H   0.85009
   20  H   0.85124
   21  H   0.85158
   22  H   0.85210

 **********************
 *                    *
 * JOB ENDED NORMALLY *
 *                    *
 **********************



 TOTAL JOB TIME:             1.05 SECONDS

 == MOPAC DONE ==
