 *******************************************************************************
 **                                                                           **
 **                              MOPAC v23.2                                  **
 **                                                                           **
 *******************************************************************************
 **          Digital Object Identifier (DOI): 10.5281/zenodo.6511958          **
 **    Visit the DOI location for information on how to cite this program.    **
 *******************************************************************************

                              PM7 CALCULATION RESULTS

 *******************************************************************************
 *  CALCULATION DONE: (MAX THREADS = 40)             Fri Sep 19 21:27:25 2025  *
 *  PM7        - The PM7 Hamiltonian to be used
 *
 *
 *
 *                 CHARGE ON SYSTEM = +1
 *
 *
 *
 *  1SCF       - DO 1 SCF AND THEN STOP 
 *  T=         - A TIME OF 172800.0 SECONDS REQUESTED
 *  DUMP=N     - RESTART FILE WRITTEN EVERY 7200.0 SECONDS REQUESTED
 *  RELSCF     - DEFAULT SCF CRITERION MULTIPLIED BY 0.0001
 *              (DEFAULT SCF CRITERION = 0.00010)
 *  GRADIENTS  - ALL GRADIENTS TO BE PRINTED
 *  DISP       - PRINT DISPERSION AND HYDROGEN BOND ENERGIES
 *******************************************************************************
PM7 1SCF GRADIENTS DISP RELSCF=0.0001 CHARGE=1
 Title: ASE calculation

   ATOM   CHEMICAL          X               Y               Z
  NUMBER   SYMBOL      (ANGSTROMS)     (ANGSTROMS)     (ANGSTROMS)

     1       N         -2.85967218  *   1.45482491  *   0.92988059  *
     2       C         -1.91167053  *   0.72582138  *   0.57296038  *
     3       C         -0.48141694  *   0.43290348  *   1.03884759  *
     4       C          0.00528790  *  -0.56301680  *   0.07871215  *
     5       N          1.20076301  *  -1.20511397  *  -0.02093699  *
     6       O          2.07516390  *  -0.86370662  *   0.89476947  *
     7       C         -1.06290601  *  -0.84846925  *  -0.89770035  *
     8       O         -2.18502656  *  -0.05589293  *  -0.55985140  *
     9       H         -2.91406720  *   2.09460877  *   1.69569866  *
    10       H         -0.46901144  *   0.08799932  *   2.10642471  *
    11       H          0.13005617  *   1.37302339  *   1.07598997  *
    12       H          2.92096010  *  -1.45731993  *   0.66135786  *
    13       H         -1.41074306  *  -1.92140951  *  -0.91803173  *
    14       H         -0.80154336  *  -0.61108199  *  -1.96897807  *



          CARTESIAN COORDINATES 

    NO.       ATOM           X           Y           Z

     1         N         -2.8597      1.4548      0.9299
     2         C         -1.9117      0.7258      0.5730
     3         C         -0.4814      0.4329      1.0388
     4         C          0.0053     -0.5630      0.0787
     5         N          1.2008     -1.2051     -0.0209
     6         O          2.0752     -0.8637      0.8948
     7         C         -1.0629     -0.8485     -0.8977
     8         O         -2.1850     -0.0559     -0.5599
     9         H         -2.9141      2.0946      1.6957
    10         H         -0.4690      0.0880      2.1064
    11         H          0.1301      1.3730      1.0760
    12         H          2.9210     -1.4573      0.6614
    13         H         -1.4107     -1.9214     -0.9180
    14         H         -0.8015     -0.6111     -1.9690

 General Reference for PM7:
 "Optimization of Parameters for Semiempirical Methods VI: More Modifications to the 
 NDDO Approximations and Re-optimization of Parameters", J. J. P. Stewart, J. Mol. Mod., 1:32, 19 (2013)
 https://link.springer.com/article/10.1007/s00894-012-1667-x

           Empirical Formula: C4 H6 N2 O2  =    14 atoms



      MOLECULAR POINT GROUP   :   Cs  


          UHF CALCULATION, NO. OF ALPHA ELECTRONS =   22
                           NO. OF BETA  ELECTRONS =   21
  SCF CRITERION =    0.1000E-07

 -------------------------------------------------------------------------------
 PM7 1SCF GRADIENTS DISP RELSCF=0.0001 CHARGE=1
 Title: ASE calculation



     1SCF WAS SPECIFIED, SO BFGS WAS NOT USED                 
     SCF FIELD WAS ACHIEVED                                   


                              PM7 CALCULATION
                                                       MOPAC v23.2 Linux
                                                       Fri Sep 19 21:27:26 2025




          FINAL HEAT OF FORMATION =        199.50203 KCAL/MOL =     834.71650 KJ/MOL

          TOTAL ENERGY            =     -35141.23477 KCAL/MOL = ELECTRONIC ENERGY + CORE-CORE REPULSION
          ENERGY OF ATOMS         =      35341.90304 KCAL/MOL
                              SUM =        200.66827 KCAL/MOL
          DISPERSION ENERGY       =         -1.16623 KCAL/MOL
                              SUM =        199.50203 KCAL/MOL = FINAL HEAT OF FORMATION



          TOTAL ENERGY            =      -1523.86817 EV
          ELECTRONIC ENERGY       =      -6185.12355 EV 
          CORE-CORE REPULSION     =       4661.25539 EV
          COSMO AREA              =        142.22 SQUARE ANGSTROMS
          COSMO VOLUME            =        130.09 CUBIC ANGSTROMS

          GRADIENT NORM           =          0.49173          =       0.13142 PER ATOM
          IONIZATION POTENTIAL    =         14.582718 EV
          ALPHA SOMO LUMO (EV)    =        -14.583 -6.563
          BETA  SOMO LUMO (EV)    =        -14.586 -8.711
          NO. OF ALPHA ELECTRONS  =         22
          NO. OF BETA  ELECTRONS  =         21
          MOLECULAR WEIGHT        =        114.1036         POINT GROUP:  Cs  

          MOLECULAR DIMENSIONS (Angstroms)

            Atom       Atom       Distance
            H    12    H     9     6.90895
            H    10    H    14     4.09071
            H    11    H    13     3.19065


          SCF CALCULATIONS        =          1

          WALL-CLOCK TIME         =      0.539 SECONDS
          COMPUTATION TIME        =      0.518 SECONDS

          LARGEST ATOMIC GRADIENTS

          Atom     Label                     Cartesian Gradients           Cartesian Coordinates       |Gradient|
                                           X          Y          Z        X          Y          Z

            13       H                  -0.100     -0.137      0.065   -1.41074   -1.92141   -0.91803      0.182
             2       C                  -0.068      0.123      0.115   -1.91167    0.72582    0.57296      0.182
             8       O                   0.046      0.084      0.149   -2.18503   -0.05589   -0.55985      0.177
            14       H                   0.018      0.109     -0.125   -0.80154   -0.61108   -1.96898      0.167
             9       H                   0.053     -0.109     -0.096   -2.91407    2.09461    1.69570      0.154
             1       N                  -0.145      0.039     -0.025   -2.85967    1.45482    0.92988      0.152
             6       O                   0.024     -0.078      0.118    2.07516   -0.86371    0.89477      0.144
             5       N                   0.134      0.040     -0.008    1.20076   -1.20511   -0.02094      0.140
            11       H                  -0.036      0.012     -0.082    0.13006    1.37302    1.07599      0.091
            12       H                   0.081     -0.002     -0.034    2.92096   -1.45732    0.66136      0.088



       FINAL  POINT  AND  DERIVATIVES

   PARAMETER     ATOM    TYPE            VALUE        GRADIENT
      1          1  N    CARTESIAN X    -2.859672     -0.144808  KCAL/ANGSTROM
      2          1  N    CARTESIAN Y     1.454825      0.039333  KCAL/ANGSTROM
      3          1  N    CARTESIAN Z     0.929881     -0.024596  KCAL/ANGSTROM
      4          2  C    CARTESIAN X    -1.911671     -0.068352  KCAL/ANGSTROM
      5          2  C    CARTESIAN Y     0.725821      0.122813  KCAL/ANGSTROM
      6          2  C    CARTESIAN Z     0.572960      0.115376  KCAL/ANGSTROM
      7          3  C    CARTESIAN X    -0.481417     -0.007791  KCAL/ANGSTROM
      8          3  C    CARTESIAN Y     0.432903      0.005180  KCAL/ANGSTROM
      9          3  C    CARTESIAN Z     1.038848     -0.015468  KCAL/ANGSTROM
     10          4  C    CARTESIAN X     0.005288      0.055353  KCAL/ANGSTROM
     11          4  C    CARTESIAN Y    -0.563017     -0.050778  KCAL/ANGSTROM
     12          4  C    CARTESIAN Z     0.078712     -0.041135  KCAL/ANGSTROM
     13          5  N    CARTESIAN X     1.200763      0.133990  KCAL/ANGSTROM
     14          5  N    CARTESIAN Y    -1.205114      0.039879  KCAL/ANGSTROM
     15          5  N    CARTESIAN Z    -0.020937     -0.007954  KCAL/ANGSTROM
     16          6  O    CARTESIAN X     2.075164      0.024159  KCAL/ANGSTROM
     17          6  O    CARTESIAN Y    -0.863707     -0.078412  KCAL/ANGSTROM
     18          6  O    CARTESIAN Z     0.894769      0.118268  KCAL/ANGSTROM
     19          7  C    CARTESIAN X    -1.062906     -0.008613  KCAL/ANGSTROM
     20          7  C    CARTESIAN Y    -0.848469      0.004750  KCAL/ANGSTROM
     21          7  C    CARTESIAN Z    -0.897700      0.016700  KCAL/ANGSTROM
     22          8  O    CARTESIAN X    -2.185027      0.045790  KCAL/ANGSTROM
     23          8  O    CARTESIAN Y    -0.055893      0.083885  KCAL/ANGSTROM
     24          8  O    CARTESIAN Z    -0.559851      0.148848  KCAL/ANGSTROM
     25          9  H    CARTESIAN X    -2.914067      0.053030  KCAL/ANGSTROM
     26          9  H    CARTESIAN Y     2.094609     -0.108686  KCAL/ANGSTROM
     27          9  H    CARTESIAN Z     1.695699     -0.095625  KCAL/ANGSTROM
     28         10  H    CARTESIAN X    -0.469011     -0.045567  KCAL/ANGSTROM
     29         10  H    CARTESIAN Y     0.087999     -0.040488  KCAL/ANGSTROM
     30         10  H    CARTESIAN Z     2.106425     -0.038588  KCAL/ANGSTROM
     31         11  H    CARTESIAN X     0.130056     -0.035928  KCAL/ANGSTROM
     32         11  H    CARTESIAN Y     1.373023      0.012221  KCAL/ANGSTROM
     33         11  H    CARTESIAN Z     1.075990     -0.082204  KCAL/ANGSTROM
     34         12  H    CARTESIAN X     2.920960      0.081296  KCAL/ANGSTROM
     35         12  H    CARTESIAN Y    -1.457320     -0.001604  KCAL/ANGSTROM
     36         12  H    CARTESIAN Z     0.661358     -0.033760  KCAL/ANGSTROM
     37         13  H    CARTESIAN X    -1.410743     -0.100458  KCAL/ANGSTROM
     38         13  H    CARTESIAN Y    -1.921410     -0.137064  KCAL/ANGSTROM
     39         13  H    CARTESIAN Z    -0.918032      0.065398  KCAL/ANGSTROM
     40         14  H    CARTESIAN X    -0.801543      0.017900  KCAL/ANGSTROM
     41         14  H    CARTESIAN Y    -0.611082      0.108967  KCAL/ANGSTROM
     42         14  H    CARTESIAN Z    -1.968978     -0.125263  KCAL/ANGSTROM




   ATOM   CHEMICAL          X               Y               Z
  NUMBER   SYMBOL      (ANGSTROMS)     (ANGSTROMS)     (ANGSTROMS)

     1       N         -2.85967218  *   1.45482491  *   0.92988059  *
     2       C         -1.91167053  *   0.72582138  *   0.57296038  *
     3       C         -0.48141694  *   0.43290348  *   1.03884759  *
     4       C          0.00528790  *  -0.56301680  *   0.07871215  *
     5       N          1.20076301  *  -1.20511397  *  -0.02093699  *
     6       O          2.07516390  *  -0.86370662  *   0.89476947  *
     7       C         -1.06290601  *  -0.84846925  *  -0.89770035  *
     8       O         -2.18502656  *  -0.05589293  *  -0.55985140  *
     9       H         -2.91406720  *   2.09460877  *   1.69569866  *
    10       H         -0.46901144  *   0.08799932  *   2.10642471  *
    11       H          0.13005617  *   1.37302339  *   1.07598997  *
    12       H          2.92096010  *  -1.45731993  *   0.66135786  *
    13       H         -1.41074306  *  -1.92140951  *  -0.91803173  *
    14       H         -0.80154336  *  -0.61108199  *  -1.96897807  *

                             CARTESIAN COORDINATES

   1    N       -2.859672178     1.454824909     0.929880593
   2    C       -1.911670531     0.725821382     0.572960383
   3    C       -0.481416935     0.432903479     1.038847592
   4    C        0.005287902    -0.563016796     0.078712148
   5    N        1.200763006    -1.205113972    -0.020936991
   6    O        2.075163900    -0.863706616     0.894769470
   7    C       -1.062906008    -0.848469246    -0.897700347
   8    O       -2.185026561    -0.055892932    -0.559851398
   9    H       -2.914067195     2.094608768     1.695698655
  10    H       -0.469011435     0.087999321     2.106424708
  11    H        0.130056171     1.373023385     1.075989974
  12    H        2.920960100    -1.457319928     0.661357859
  13    H       -1.410743060    -1.921409513    -0.918031731
  14    H       -0.801543360    -0.611081985    -1.968978070


           Empirical Formula: C4 H6 N2 O2  =    14 atoms



      MOLECULAR POINT GROUP   :   Cs  


          ALPHA EIGENVALUES  
 -42.03200 -39.76734 -37.36082 -35.80735 -32.32363 -30.18145 -26.33839 -25.71893
 -23.91805 -23.49454 -22.70599 -21.80327 -21.13324 -20.47939 -19.66710 -19.29345
 -18.40208 -17.90666 -17.63710 -16.52586 -14.82063 -14.58272  -6.56342  -5.17672
  -3.43862  -3.25109  -3.03285  -2.63144  -2.36146  -1.81726  -1.49871  -0.65347
  -0.59050  -0.30134   0.04022   0.27323   0.45261   3.06138


           BETA EIGENVALUES 
 -41.07556 -39.78090 -36.71243 -34.94648 -32.10580 -30.05189 -26.17788 -25.52888
 -23.64180 -23.30641 -22.09689 -21.70634 -20.44115 -19.84911 -19.44147 -19.22865
 -18.35899 -17.41779 -17.30664 -14.70433 -14.58587  -8.71131  -5.27377  -4.71009
  -3.38959  -3.25065  -2.95865  -2.55396  -2.25066  -1.70227  -1.33936  -0.62274
  -0.55394  -0.21276   0.03765   0.30596   0.48617   3.05669


              NET ATOMIC CHARGES AND DIPOLE CONTRIBUTIONS

  ATOM NO.   TYPE          CHARGE      No. of ELECS.   s-Pop       p-Pop       
    1          N          -0.446548        5.4465     1.67338     3.77317
    2          C           0.366476        3.6335     1.07237     2.56115
    3          C          -0.467578        4.4676     1.08078     3.38679
    4          C           0.367735        3.6323     1.15419     2.47807
    5          N          -0.170379        5.1704     1.81619     3.35419
    6          O           0.017518        5.9825     1.90996     4.07252
    7          C          -0.139318        4.1393     1.10066     3.03866
    8          O          -0.225479        6.2255     1.88951     4.33597
    9          H           0.334162        0.6658     0.66584
   10          H           0.246897        0.7531     0.75310
   11          H           0.246935        0.7531     0.75306
   12          H           0.376469        0.6235     0.62353
   13          H           0.246648        0.7534     0.75335
   14          H           0.246464        0.7535     0.75354
 DIPOLE           X         Y         Z       TOTAL
 POINT-CHG.     6.616    -2.189     1.118     7.058
 HYBRID         0.908     0.527     1.175     1.575
 SUM            7.524    -1.663     2.293     8.040


          ATOMIC ORBITAL ELECTRON POPULATIONS

     Atom    s        px        py        pz   
    1  N   1.67338   1.31420   1.15413   1.30484
    2  C   1.07237   0.81579   0.88869   0.85668
    3  C   1.08078   1.13490   1.12301   1.12888
    4  C   1.15419   0.87038   0.74313   0.86456
    5  N   1.81619   1.03812   1.19470   1.12137
    6  O   1.90996   1.29537   1.46949   1.30766
    7  C   1.10066   0.88383   1.08585   1.06897
    8  O   1.88951   1.30855   1.55235   1.47506
    9  H   0.66584
   10  H   0.75310
   11  H   0.75306
   12  H   0.62353
   13  H   0.75335
   14  H   0.75354


                    (SZ)    =    0.500000
                    (S**2)  =    0.758085


          ATOMIC ORBITAL SPIN POPULATIONS

    Atom   Total    s     px     py     pz   
         Atomic
    1  N -0.0094 -0.000 -0.002 -0.004 -0.003
    2  C  0.0032 -0.000  0.000  0.002  0.001
    3  C  0.0023 -0.002 -0.000  0.004  0.000
    4  C  0.1472  0.001  0.012  0.081  0.053
    5  N  0.3319  0.007  0.045  0.170  0.110
    6  O  0.4286  0.009  0.059  0.211  0.149
    7  C  0.0128 -0.003  0.000  0.012  0.004
    8  O  0.0268  0.001  0.003  0.014  0.009
    9  H  0.0001  0.000
   10  H  0.0116  0.012
   11  H  0.0117  0.012
   12  H -0.0216 -0.022
   13  H  0.0275  0.027
   14  H  0.0272  0.027

 **********************
 *                    *
 * JOB ENDED NORMALLY *
 *                    *
 **********************



 TOTAL JOB TIME:             0.97 SECONDS

 == MOPAC DONE ==
