 *******************************************************************************
 **                                                                           **
 **                              MOPAC v23.2                                  **
 **                                                                           **
 *******************************************************************************
 **          Digital Object Identifier (DOI): 10.5281/zenodo.6511958          **
 **    Visit the DOI location for information on how to cite this program.    **
 *******************************************************************************

                              PM7 CALCULATION RESULTS

 *******************************************************************************
 *  CALCULATION DONE: (MAX THREADS = 40)             Fri Sep 19 21:32:34 2025  *
 *  PM7        - The PM7 Hamiltonian to be used
 *
 *
 *
 *                 CHARGE ON SYSTEM = +1
 *
 *
 *
 *  1SCF       - DO 1 SCF AND THEN STOP 
 *  T=         - A TIME OF 172800.0 SECONDS REQUESTED
 *  DUMP=N     - RESTART FILE WRITTEN EVERY 7200.0 SECONDS REQUESTED
 *  RELSCF     - DEFAULT SCF CRITERION MULTIPLIED BY 0.0001
 *              (DEFAULT SCF CRITERION = 0.00010)
 *  GRADIENTS  - ALL GRADIENTS TO BE PRINTED
 *  DISP       - PRINT DISPERSION AND HYDROGEN BOND ENERGIES
 *******************************************************************************
PM7 1SCF GRADIENTS DISP RELSCF=0.0001 CHARGE=1
 Title: ASE calculation

   ATOM   CHEMICAL          X               Y               Z
  NUMBER   SYMBOL      (ANGSTROMS)     (ANGSTROMS)     (ANGSTROMS)

     1       C         -2.31464133  *  -0.13105162  *   1.23445360  *
     2       C         -1.60290011  *   0.33069197  *  -0.02063305  *
     3       C         -2.52885570  *   0.92362064  *  -1.05921101  *
     4       C         -0.65582684  *  -0.78063153  *  -0.59401751  *
     5       C          0.68161927  *  -0.39193283  *  -0.10239079  *
     6       N          1.77460095  *  -1.02254803  *  -0.45686709  *
     7       O          2.85259381  *  -1.13147387  *   0.26737637  *
     8       C          0.56226871  *   0.91533136  *   0.64269583  *
     9       O         -0.70826518  *   1.41590727  *   0.32355446  *
    10       H         -1.64899292  *  -0.60129651  *   1.96476335  *
    11       H         -3.12605731  *  -0.84018932  *   1.01427466  *
    12       H         -2.78438961  *   0.72560276  *   1.75181960  *
    13       H         -3.24296917  *   0.18397514  *  -1.44642907  *
    14       H         -1.98738570  *   1.35506328  *  -1.91306593  *
    15       H         -3.12527471  *   1.75174164  *  -0.63463478  *
    16       H         -0.97438452  *  -1.80381593  *  -0.28994271  *
    17       H         -0.70915268  *  -0.82185672  *  -1.71141447  *
    18       H          3.62819949  *  -1.29649976  *  -0.42787362  *
    19       H          0.64287497  *   0.74633192  *   1.74699043  *
    20       H          1.27850100  *   1.71713508  *   0.35253398  *



          CARTESIAN COORDINATES 

    NO.       ATOM           X           Y           Z

     1         C         -2.3146     -0.1311      1.2345
     2         C         -1.6029      0.3307     -0.0206
     3         C         -2.5289      0.9236     -1.0592
     4         C         -0.6558     -0.7806     -0.5940
     5         C          0.6816     -0.3919     -0.1024
     6         N          1.7746     -1.0225     -0.4569
     7         O          2.8526     -1.1315      0.2674
     8         C          0.5623      0.9153      0.6427
     9         O         -0.7083      1.4159      0.3236
    10         H         -1.6490     -0.6013      1.9648
    11         H         -3.1261     -0.8402      1.0143
    12         H         -2.7844      0.7256      1.7518
    13         H         -3.2430      0.1840     -1.4464
    14         H         -1.9874      1.3551     -1.9131
    15         H         -3.1253      1.7517     -0.6346
    16         H         -0.9744     -1.8038     -0.2899
    17         H         -0.7092     -0.8219     -1.7114
    18         H          3.6282     -1.2965     -0.4279
    19         H          0.6429      0.7463      1.7470
    20         H          1.2785      1.7171      0.3525

 General Reference for PM7:
 "Optimization of Parameters for Semiempirical Methods VI: More Modifications to the 
 NDDO Approximations and Re-optimization of Parameters", J. J. P. Stewart, J. Mol. Mod., 1:32, 19 (2013)
 https://link.springer.com/article/10.1007/s00894-012-1667-x

           Empirical Formula: C6 H11 N O2  =    20 atoms



      MOLECULAR POINT GROUP   :   C1  


          UHF CALCULATION, NO. OF ALPHA ELECTRONS =   26
                           NO. OF BETA  ELECTRONS =   25
  SCF CRITERION =    0.1000E-07

 -------------------------------------------------------------------------------
 PM7 1SCF GRADIENTS DISP RELSCF=0.0001 CHARGE=1
 Title: ASE calculation



     1SCF WAS SPECIFIED, SO BFGS WAS NOT USED                 
     SCF FIELD WAS ACHIEVED                                   


                              PM7 CALCULATION
                                                       MOPAC v23.2 Linux
                                                       Fri Sep 19 21:32:35 2025




          FINAL HEAT OF FORMATION =        146.71276 KCAL/MOL =     613.84619 KJ/MOL

          TOTAL ENERGY            =     -38105.05022 KCAL/MOL = ELECTRONIC ENERGY + CORE-CORE REPULSION
          ENERGY OF ATOMS         =      38253.74801 KCAL/MOL
                              SUM =        148.69779 KCAL/MOL
          DISPERSION ENERGY       =         -1.98503 KCAL/MOL
                              SUM =        146.71276 KCAL/MOL = FINAL HEAT OF FORMATION



          TOTAL ENERGY            =      -1652.39137 EV
          ELECTRONIC ENERGY       =      -7984.91992 EV 
          CORE-CORE REPULSION     =       6332.52855 EV
          COSMO AREA              =        167.37 SQUARE ANGSTROMS
          COSMO VOLUME            =        165.29 CUBIC ANGSTROMS

          GRADIENT NORM           =          1.12206          =       0.25090 PER ATOM
          IONIZATION POTENTIAL    =         14.499439 EV
          ALPHA SOMO LUMO (EV)    =        -14.542 -6.166
          BETA  SOMO LUMO (EV)    =        -14.499 -7.723
          NO. OF ALPHA ELECTRONS  =         26
          NO. OF BETA  ELECTRONS  =         25
          MOLECULAR WEIGHT        =        129.1584         POINT GROUP:  C1  

          MOLECULAR DIMENSIONS (Angstroms)

            Atom       Atom       Distance
            H    18    H    15     7.41242
            H    11    H    20     4.20920
            H    19    H    17     3.73750


          SCF CALCULATIONS        =          1

          WALL-CLOCK TIME         =      1.039 SECONDS
          COMPUTATION TIME        =      0.497 SECONDS

          LARGEST ATOMIC GRADIENTS

          Atom     Label                     Cartesian Gradients           Cartesian Coordinates       |Gradient|
                                           X          Y          Z        X          Y          Z

             7       O                  -0.306     -0.255     -0.062    2.85259   -1.13147    0.26738      0.403
             9       O                  -0.327     -0.106     -0.163   -0.70827    1.41591    0.32355      0.380
             6       N                   0.125     -0.217     -0.242    1.77460   -1.02255   -0.45687      0.348
            12       H                   0.339      0.035     -0.030   -2.78439    0.72560    1.75182      0.342
            19       H                  -0.206      0.002      0.255    0.64287    0.74633    1.74699      0.328
            10       H                   0.150      0.254     -0.141   -1.64899   -0.60130    1.96476      0.327
            20       H                   0.126      0.224      0.061    1.27850    1.71714    0.35253      0.264
             8       C                  -0.242      0.032     -0.066    0.56227    0.91533    0.64270      0.253
            18       H                  -0.087      0.210      0.090    3.62820   -1.29650   -0.42787      0.244
            13       H                   0.228     -0.034      0.081   -3.24297    0.18398   -1.44643      0.244



       FINAL  POINT  AND  DERIVATIVES

   PARAMETER     ATOM    TYPE            VALUE        GRADIENT
      1          1  C    CARTESIAN X    -2.314641     -0.060831  KCAL/ANGSTROM
      2          1  C    CARTESIAN Y    -0.131052     -0.028792  KCAL/ANGSTROM
      3          1  C    CARTESIAN Z     1.234454     -0.012207  KCAL/ANGSTROM
      4          2  C    CARTESIAN X    -1.602900     -0.030941  KCAL/ANGSTROM
      5          2  C    CARTESIAN Y     0.330692     -0.145131  KCAL/ANGSTROM
      6          2  C    CARTESIAN Z    -0.020633     -0.054952  KCAL/ANGSTROM
      7          3  C    CARTESIAN X    -2.528856     -0.016816  KCAL/ANGSTROM
      8          3  C    CARTESIAN Y     0.923621      0.018501  KCAL/ANGSTROM
      9          3  C    CARTESIAN Z    -1.059211      0.015846  KCAL/ANGSTROM
     10          4  C    CARTESIAN X    -0.655827      0.178398  KCAL/ANGSTROM
     11          4  C    CARTESIAN Y    -0.780632     -0.089500  KCAL/ANGSTROM
     12          4  C    CARTESIAN Z    -0.594018      0.110865  KCAL/ANGSTROM
     13          5  C    CARTESIAN X     0.681619     -0.027196  KCAL/ANGSTROM
     14          5  C    CARTESIAN Y    -0.391933     -0.120773  KCAL/ANGSTROM
     15          5  C    CARTESIAN Z    -0.102391      0.036948  KCAL/ANGSTROM
     16          6  N    CARTESIAN X     1.774601      0.125381  KCAL/ANGSTROM
     17          6  N    CARTESIAN Y    -1.022548     -0.216547  KCAL/ANGSTROM
     18          6  N    CARTESIAN Z    -0.456867     -0.241865  KCAL/ANGSTROM
     19          7  O    CARTESIAN X     2.852594     -0.306466  KCAL/ANGSTROM
     20          7  O    CARTESIAN Y    -1.131474     -0.254746  KCAL/ANGSTROM
     21          7  O    CARTESIAN Z     0.267376     -0.062138  KCAL/ANGSTROM
     22          8  C    CARTESIAN X     0.562269     -0.242020  KCAL/ANGSTROM
     23          8  C    CARTESIAN Y     0.915331      0.032245  KCAL/ANGSTROM
     24          8  C    CARTESIAN Z     0.642696     -0.065560  KCAL/ANGSTROM
     25          9  O    CARTESIAN X    -0.708265     -0.326605  KCAL/ANGSTROM
     26          9  O    CARTESIAN Y     1.415907     -0.106350  KCAL/ANGSTROM
     27          9  O    CARTESIAN Z     0.323554     -0.162553  KCAL/ANGSTROM
     28         10  H    CARTESIAN X    -1.648993      0.150326  KCAL/ANGSTROM
     29         10  H    CARTESIAN Y    -0.601297      0.253829  KCAL/ANGSTROM
     30         10  H    CARTESIAN Z     1.964763     -0.141223  KCAL/ANGSTROM
     31         11  H    CARTESIAN X    -3.126057      0.052538  KCAL/ANGSTROM
     32         11  H    CARTESIAN Y    -0.840189     -0.021326  KCAL/ANGSTROM
     33         11  H    CARTESIAN Z     1.014275     -0.037973  KCAL/ANGSTROM
     34         12  H    CARTESIAN X    -2.784390      0.339174  KCAL/ANGSTROM
     35         12  H    CARTESIAN Y     0.725603      0.035376  KCAL/ANGSTROM
     36         12  H    CARTESIAN Z     1.751820     -0.030472  KCAL/ANGSTROM
     37         13  H    CARTESIAN X    -3.242969      0.227966  KCAL/ANGSTROM
     38         13  H    CARTESIAN Y     0.183975     -0.034284  KCAL/ANGSTROM
     39         13  H    CARTESIAN Z    -1.446429      0.081130  KCAL/ANGSTROM
     40         14  H    CARTESIAN X    -1.987386     -0.111196  KCAL/ANGSTROM
     41         14  H    CARTESIAN Y     1.355063      0.112459  KCAL/ANGSTROM
     42         14  H    CARTESIAN Z    -1.913066      0.031350  KCAL/ANGSTROM
     43         15  H    CARTESIAN X    -3.125275     -0.003897  KCAL/ANGSTROM
     44         15  H    CARTESIAN Y     1.751742      0.170233  KCAL/ANGSTROM
     45         15  H    CARTESIAN Z    -0.634635      0.059819  KCAL/ANGSTROM
     46         16  H    CARTESIAN X    -0.974385      0.207035  KCAL/ANGSTROM
     47         16  H    CARTESIAN Y    -1.803816      0.023528  KCAL/ANGSTROM
     48         16  H    CARTESIAN Z    -0.289943     -0.096268  KCAL/ANGSTROM
     49         17  H    CARTESIAN X    -0.709153      0.012472  KCAL/ANGSTROM
     50         17  H    CARTESIAN Y    -0.821857     -0.064259  KCAL/ANGSTROM
     51         17  H    CARTESIAN Z    -1.711414      0.162509  KCAL/ANGSTROM
     52         18  H    CARTESIAN X     3.628199     -0.086529  KCAL/ANGSTROM
     53         18  H    CARTESIAN Y    -1.296500      0.210105  KCAL/ANGSTROM
     54         18  H    CARTESIAN Z    -0.427874      0.090091  KCAL/ANGSTROM
     55         19  H    CARTESIAN X     0.642875     -0.206314  KCAL/ANGSTROM
     56         19  H    CARTESIAN Y     0.746332      0.001843  KCAL/ANGSTROM
     57         19  H    CARTESIAN Z     1.746990      0.255214  KCAL/ANGSTROM
     58         20  H    CARTESIAN X     1.278501      0.125522  KCAL/ANGSTROM
     59         20  H    CARTESIAN Y     1.717135      0.223585  KCAL/ANGSTROM
     60         20  H    CARTESIAN Z     0.352534      0.061437  KCAL/ANGSTROM




   ATOM   CHEMICAL          X               Y               Z
  NUMBER   SYMBOL      (ANGSTROMS)     (ANGSTROMS)     (ANGSTROMS)

     1       C         -2.31464133  *  -0.13105162  *   1.23445360  *
     2       C         -1.60290011  *   0.33069197  *  -0.02063305  *
     3       C         -2.52885570  *   0.92362064  *  -1.05921101  *
     4       C         -0.65582684  *  -0.78063153  *  -0.59401751  *
     5       C          0.68161927  *  -0.39193283  *  -0.10239079  *
     6       N          1.77460095  *  -1.02254803  *  -0.45686709  *
     7       O          2.85259381  *  -1.13147387  *   0.26737637  *
     8       C          0.56226871  *   0.91533136  *   0.64269583  *
     9       O         -0.70826518  *   1.41590727  *   0.32355446  *
    10       H         -1.64899292  *  -0.60129651  *   1.96476335  *
    11       H         -3.12605731  *  -0.84018932  *   1.01427466  *
    12       H         -2.78438961  *   0.72560276  *   1.75181960  *
    13       H         -3.24296917  *   0.18397514  *  -1.44642907  *
    14       H         -1.98738570  *   1.35506328  *  -1.91306593  *
    15       H         -3.12527471  *   1.75174164  *  -0.63463478  *
    16       H         -0.97438452  *  -1.80381593  *  -0.28994271  *
    17       H         -0.70915268  *  -0.82185672  *  -1.71141447  *
    18       H          3.62819949  *  -1.29649976  *  -0.42787362  *
    19       H          0.64287497  *   0.74633192  *   1.74699043  *
    20       H          1.27850100  *   1.71713508  *   0.35253398  *

                             CARTESIAN COORDINATES

   1    C       -2.314641335    -0.131051621     1.234453603
   2    C       -1.602900113     0.330691972    -0.020633047
   3    C       -2.528855703     0.923620642    -1.059211010
   4    C       -0.655826837    -0.780631531    -0.594017513
   5    C        0.681619274    -0.391932835    -0.102390793
   6    N        1.774600953    -1.022548031    -0.456867085
   7    O        2.852593805    -1.131473873     0.267376374
   8    C        0.562268708     0.915331355     0.642695835
   9    O       -0.708265176     1.415907266     0.323554456
  10    H       -1.648992924    -0.601296510     1.964763355
  11    H       -3.126057310    -0.840189316     1.014274655
  12    H       -2.784389608     0.725602763     1.751819604
  13    H       -3.242969174     0.183975144    -1.446429075
  14    H       -1.987385704     1.355063278    -1.913065932
  15    H       -3.125274713     1.751741644    -0.634634783
  16    H       -0.974384523    -1.803815929    -0.289942711
  17    H       -0.709152678    -0.821856723    -1.711414472
  18    H        3.628199490    -1.296499758    -0.427873618
  19    H        0.642874973     0.746331920     1.746990428
  20    H        1.278501005     1.717135080     0.352533978


           Empirical Formula: C6 H11 N O2  =    20 atoms



      MOLECULAR POINT GROUP   :   C1  


          ALPHA EIGENVALUES  
 -42.15388 -37.18304 -35.46924 -32.17776 -30.94784 -28.64338 -27.88709 -26.05043
 -24.51967 -23.67971 -22.36587 -21.97895 -20.80358 -20.46863 -19.58307 -19.22721
 -18.74159 -18.23537 -17.58344 -17.33237 -16.80051 -16.45520 -16.37605 -16.09581
 -16.00916 -14.54239  -6.16624  -4.94419  -2.76254  -2.35278  -1.98498  -1.68069
  -1.02779  -0.86607  -0.28537  -0.06842   0.25730   0.34984   0.53420   0.90463
   1.24365   1.99974   2.11669   2.21759   2.22241   3.27124   3.42272


           BETA EIGENVALUES 
 -41.05675 -36.44706 -34.90858 -32.14919 -30.67151 -28.57750 -27.86787 -25.64655
 -24.38793 -23.31353 -22.14593 -21.37863 -20.58219 -19.98528 -19.37444 -19.00415
 -18.58384 -18.06861 -17.40556 -16.99694 -16.63973 -16.32195 -16.29533 -16.00914
 -14.49944  -7.72336  -5.49979  -4.36300  -2.69800  -2.07601  -1.90411  -1.51668
  -0.94989  -0.52303  -0.27062  -0.05925   0.29579   0.37100   0.54702   0.91945
   1.25324   1.99980   2.11659   2.21761   2.22236   3.27124   3.42273


              NET ATOMIC CHARGES AND DIPOLE CONTRIBUTIONS

  ATOM NO.   TYPE          CHARGE      No. of ELECS.   s-Pop       p-Pop       
    1          C          -0.508698        4.5087     1.06133     3.44737
    2          C           0.317598        3.6824     1.09031     2.59210
    3          C          -0.486497        4.4865     1.05882     3.42768
    4          C          -0.400680        4.4007     1.08671     3.31397
    5          C           0.330783        3.6692     1.15799     2.51123
    6          N          -0.143317        5.1433     1.72053     3.42279
    7          O           0.020126        5.9799     1.91017     4.06971
    8          C          -0.099583        4.0996     1.10384     2.99574
    9          O          -0.337463        6.3375     1.88941     4.44806
   10          H           0.155547        0.8445     0.84445
   11          H           0.182871        0.8171     0.81713
   12          H           0.195989        0.8040     0.80401
   13          H           0.179654        0.8203     0.82035
   14          H           0.173943        0.8261     0.82606
   15          H           0.194155        0.8058     0.80585
   16          H           0.223592        0.7764     0.77641
   17          H           0.233287        0.7667     0.76671
   18          H           0.357885        0.6421     0.64211
   19          H           0.201541        0.7985     0.79846
   20          H           0.209269        0.7907     0.79073
 DIPOLE           X         Y         Z       TOTAL
 POINT-CHG.     4.597    -2.876    -0.607     5.456
 HYBRID         0.878    -0.187     0.226     0.926
 SUM            5.475    -3.063    -0.381     6.285


          ATOMIC ORBITAL ELECTRON POPULATIONS

     Atom    s        px        py        pz   
    1  C   1.06133   1.16496   1.20342   1.07899
    2  C   1.09031   0.85891   0.79031   0.94288
    3  C   1.05882   1.13154   1.18097   1.11517
    4  C   1.08671   0.95900   1.16983   1.18515
    5  C   1.15799   0.88631   0.93188   0.69304
    6  N   1.72053   1.00852   1.13528   1.27898
    7  O   1.91017   1.16683   1.65220   1.25068
    8  C   1.10384   0.94982   0.96634   1.07959
    9  O   1.88941   1.22442   1.34147   1.88217
   10  H   0.84445
   11  H   0.81713
   12  H   0.80401
   13  H   0.82035
   14  H   0.82606
   15  H   0.80585
   16  H   0.77641
   17  H   0.76671
   18  H   0.64211
   19  H   0.79846
   20  H   0.79073


                    (SZ)    =    0.500000
                    (S**2)  =    0.762121


          ATOMIC ORBITAL SPIN POPULATIONS

    Atom   Total    s     px     py     pz   
         Atomic
    1  C -0.0002 -0.000 -0.000  0.000 -0.000
    2  C -0.0017 -0.000 -0.000 -0.001 -0.000
    3  C -0.0001 -0.000 -0.000 -0.000  0.000
    4  C  0.0137  0.001  0.003  0.001  0.009
    5  C  0.0405 -0.006 -0.004 -0.046  0.096
    6  N  0.5281  0.046  0.036  0.421  0.025
    7  O  0.3464  0.007  0.053  0.268  0.018
    8  C  0.0466  0.002  0.005  0.007  0.032
    9  O  0.0151  0.001  0.002  0.000  0.012
   10  H  0.0000  0.000
   11  H -0.0001 -0.000
   12  H -0.0000 -0.000
   13  H  0.0000  0.000
   14  H -0.0000 -0.000
   15  H -0.0000 -0.000
   16  H  0.0011  0.001
   17  H  0.0080  0.008
   18  H -0.0166 -0.017
   19  H  0.0186  0.019
   20  H  0.0006  0.001

 **********************
 *                    *
 * JOB ENDED NORMALLY *
 *                    *
 **********************



 TOTAL JOB TIME:             1.57 SECONDS

 == MOPAC DONE ==
