 *******************************************************************************
 **                                                                           **
 **                              MOPAC v23.2                                  **
 **                                                                           **
 *******************************************************************************
 **          Digital Object Identifier (DOI): 10.5281/zenodo.6511958          **
 **    Visit the DOI location for information on how to cite this program.    **
 *******************************************************************************

                              PM7 CALCULATION RESULTS

 *******************************************************************************
 *  CALCULATION DONE: (MAX THREADS = 40)             Fri Sep 19 21:27:34 2025  *
 *  PM7        - The PM7 Hamiltonian to be used
 *  1SCF       - DO 1 SCF AND THEN STOP 
 *  T=         - A TIME OF 172800.0 SECONDS REQUESTED
 *  DUMP=N     - RESTART FILE WRITTEN EVERY 7200.0 SECONDS REQUESTED
 *  RELSCF     - DEFAULT SCF CRITERION MULTIPLIED BY 0.0001
 *              (DEFAULT SCF CRITERION = 0.00010)
 *  GRADIENTS  - ALL GRADIENTS TO BE PRINTED
 *  DISP       - PRINT DISPERSION AND HYDROGEN BOND ENERGIES
 *******************************************************************************
PM7 1SCF GRADIENTS DISP RELSCF=0.0001
 Title: ASE calculation

   ATOM   CHEMICAL          X               Y               Z
  NUMBER   SYMBOL      (ANGSTROMS)     (ANGSTROMS)     (ANGSTROMS)

     1       C          2.85729036  *  -0.41793784  *   0.86584721  *
     2       C          1.36064247  *  -0.72576497  *   0.91453529  *
     3       C          0.61660924  *   0.00166344  *  -0.21268133  *
     4       C         -0.88801111  *  -0.20305118  *  -0.13957663  *
     5       C         -1.30946938  *  -1.64958230  *  -0.29431987  *
     6       C         -1.60160345  *   0.53469372  *   1.06795224  *
     7       C         -2.35245416  *   1.41640646  *   0.05325991  *
     8       O         -1.37916691  *   2.08777564  *  -0.75616404  *
     9       C         -1.68196187  *   0.73493908  *  -1.10670857  *
    10       H          3.29753518  *  -0.72117603  *  -0.09105194  *
    11       H          3.05059857  *   0.65363336  *   0.99374295  *
    12       H          3.39646981  *  -0.94787107  *   1.65922397  *
    13       H          0.94332857  *  -0.42912024  *   1.89557352  *
    14       H          1.19987891  *  -1.81732919  *   0.83376050  *
    15       H          0.99495338  *  -0.33654826  *  -1.19665267  *
    16       H          0.84365532  *   1.08851703  *  -0.17110089  *
    17       H         -0.97361654  *  -2.25440944  *   0.55676087  *
    18       H         -2.39914121  *  -1.75581988  *  -0.35467743  *
    19       H         -0.88065437  *  -2.09689020  *  -1.19986769  *
    20       H         -0.92343987  *   1.07846345  *   1.72910086  *
    21       H         -2.24327781  *  -0.10984992  *   1.66834962  *
    22       H         -3.29892276  *   1.88545831  *   0.19557233  *
    23       H         -1.96142358  *   0.51549821  *  -2.11002628  *



          CARTESIAN COORDINATES 

    NO.       ATOM           X           Y           Z

     1         C          2.8573     -0.4179      0.8658
     2         C          1.3606     -0.7258      0.9145
     3         C          0.6166      0.0017     -0.2127
     4         C         -0.8880     -0.2031     -0.1396
     5         C         -1.3095     -1.6496     -0.2943
     6         C         -1.6016      0.5347      1.0680
     7         C         -2.3525      1.4164      0.0533
     8         O         -1.3792      2.0878     -0.7562
     9         C         -1.6820      0.7349     -1.1067
    10         H          3.2975     -0.7212     -0.0911
    11         H          3.0506      0.6536      0.9937
    12         H          3.3965     -0.9479      1.6592
    13         H          0.9433     -0.4291      1.8956
    14         H          1.1999     -1.8173      0.8338
    15         H          0.9950     -0.3365     -1.1967
    16         H          0.8437      1.0885     -0.1711
    17         H         -0.9736     -2.2544      0.5568
    18         H         -2.3991     -1.7558     -0.3547
    19         H         -0.8807     -2.0969     -1.1999
    20         H         -0.9234      1.0785      1.7291
    21         H         -2.2433     -0.1098      1.6683
    22         H         -3.2989      1.8855      0.1956
    23         H         -1.9614      0.5155     -2.1100

 General Reference for PM7:
 "Optimization of Parameters for Semiempirical Methods VI: More Modifications to the 
 NDDO Approximations and Re-optimization of Parameters", J. J. P. Stewart, J. Mol. Mod., 1:32, 19 (2013)
 https://link.springer.com/article/10.1007/s00894-012-1667-x

           Empirical Formula: C8 H14 O  =    23 atoms



      MOLECULAR POINT GROUP   :   C1  


      RHF CALCULATION, NO. OF DOUBLY OCCUPIED LEVELS = 26

  SCF CRITERION =    0.1000E-07

 -------------------------------------------------------------------------------
 PM7 1SCF GRADIENTS DISP RELSCF=0.0001
 Title: ASE calculation



     1SCF WAS SPECIFIED, SO BFGS WAS NOT USED                 
     SCF FIELD WAS ACHIEVED                                   


                              PM7 CALCULATION
                                                       MOPAC v23.2 Linux
                                                       Fri Sep 19 21:27:35 2025




          FINAL HEAT OF FORMATION =        -12.33799 KCAL/MOL =     -51.62215 KJ/MOL

          TOTAL ENERGY            =     -33792.34947 KCAL/MOL = ELECTRONIC ENERGY + CORE-CORE REPULSION
          ENERGY OF ATOMS         =      33782.22825 KCAL/MOL
                              SUM =        -10.12123 KCAL/MOL
          DISPERSION ENERGY       =         -2.21676 KCAL/MOL
                              SUM =        -12.33799 KCAL/MOL = FINAL HEAT OF FORMATION



          TOTAL ENERGY            =      -1465.37497 EV
          ELECTRONIC ENERGY       =      -7810.05457 EV 
          CORE-CORE REPULSION     =       6344.67961 EV
          COSMO AREA              =        174.27 SQUARE ANGSTROMS
          COSMO VOLUME            =        178.40 CUBIC ANGSTROMS

          GRADIENT NORM           =          1.34106          =       0.27963 PER ATOM
          IONIZATION POTENTIAL    =         10.087719 EV
          HOMO LUMO ENERGIES (EV) =        -10.088  2.102
          NO. OF FILLED LEVELS    =         26
          MOLECULAR WEIGHT        =        126.1980         POINT GROUP:  C1  

          MOLECULAR DIMENSIONS (Angstroms)

            Atom       Atom       Distance
            H    22    H    12     7.41608
            H    19    H    11     4.38628
            H    23    H    21     3.69332


          SCF CALCULATIONS        =          1

          WALL-CLOCK TIME         =      0.656 SECONDS
          COMPUTATION TIME        =      0.887 SECONDS

          LARGEST ATOMIC GRADIENTS

          Atom     Label                     Cartesian Gradients           Cartesian Coordinates       |Gradient|
                                           X          Y          Z        X          Y          Z

            22       H                   0.394      0.189     -0.116   -3.29892    1.88546    0.19557      0.452
            17       H                  -0.045      0.338     -0.288   -0.97362   -2.25441    0.55676      0.446
             7       C                  -0.036     -0.406     -0.113   -2.35245    1.41641    0.05326      0.423
             4       C                  -0.317      0.159      0.228   -0.88801   -0.20305   -0.13958      0.422
            18       H                   0.116     -0.040      0.390   -2.39914   -1.75582   -0.35468      0.409
             9       C                  -0.153     -0.244      0.233   -1.68196    0.73494   -1.10671      0.371
            19       H                   0.291     -0.166      0.095   -0.88065   -2.09689   -1.19987      0.348
            10       H                   0.129     -0.203     -0.176    3.29754   -0.72118   -0.09105      0.298
            12       H                   0.089     -0.241      0.151    3.39647   -0.94787    1.65922      0.298
             8       O                  -0.168      0.209     -0.093   -1.37917    2.08778   -0.75616      0.284



       FINAL  POINT  AND  DERIVATIVES

   PARAMETER     ATOM    TYPE            VALUE        GRADIENT
      1          1  C    CARTESIAN X     2.857290      0.069792  KCAL/ANGSTROM
      2          1  C    CARTESIAN Y    -0.417938      0.002119  KCAL/ANGSTROM
      3          1  C    CARTESIAN Z     0.865847     -0.041309  KCAL/ANGSTROM
      4          2  C    CARTESIAN X     1.360642     -0.069907  KCAL/ANGSTROM
      5          2  C    CARTESIAN Y    -0.725765      0.067863  KCAL/ANGSTROM
      6          2  C    CARTESIAN Z     0.914535     -0.022877  KCAL/ANGSTROM
      7          3  C    CARTESIAN X     0.616609     -0.002761  KCAL/ANGSTROM
      8          3  C    CARTESIAN Y     0.001663     -0.021891  KCAL/ANGSTROM
      9          3  C    CARTESIAN Z    -0.212681     -0.095361  KCAL/ANGSTROM
     10          4  C    CARTESIAN X    -0.888011     -0.317299  KCAL/ANGSTROM
     11          4  C    CARTESIAN Y    -0.203051      0.159243  KCAL/ANGSTROM
     12          4  C    CARTESIAN Z    -0.139577      0.228279  KCAL/ANGSTROM
     13          5  C    CARTESIAN X    -1.309469      0.072096  KCAL/ANGSTROM
     14          5  C    CARTESIAN Y    -1.649582      0.122888  KCAL/ANGSTROM
     15          5  C    CARTESIAN Z    -0.294320     -0.190345  KCAL/ANGSTROM
     16          6  C    CARTESIAN X    -1.601603     -0.203533  KCAL/ANGSTROM
     17          6  C    CARTESIAN Y     0.534694      0.080695  KCAL/ANGSTROM
     18          6  C    CARTESIAN Z     1.067952     -0.110849  KCAL/ANGSTROM
     19          7  C    CARTESIAN X    -2.352454     -0.036495  KCAL/ANGSTROM
     20          7  C    CARTESIAN Y     1.416406     -0.406340  KCAL/ANGSTROM
     21          7  C    CARTESIAN Z     0.053260     -0.112754  KCAL/ANGSTROM
     22          8  O    CARTESIAN X    -1.379167     -0.168161  KCAL/ANGSTROM
     23          8  O    CARTESIAN Y     2.087776      0.209099  KCAL/ANGSTROM
     24          8  O    CARTESIAN Z    -0.756164     -0.093462  KCAL/ANGSTROM
     25          9  C    CARTESIAN X    -1.681962     -0.152901  KCAL/ANGSTROM
     26          9  C    CARTESIAN Y     0.734939     -0.243922  KCAL/ANGSTROM
     27          9  C    CARTESIAN Z    -1.106709      0.233254  KCAL/ANGSTROM
     28         10  H    CARTESIAN X     3.297535      0.129426  KCAL/ANGSTROM
     29         10  H    CARTESIAN Y    -0.721176     -0.203220  KCAL/ANGSTROM
     30         10  H    CARTESIAN Z    -0.091052     -0.176141  KCAL/ANGSTROM
     31         11  H    CARTESIAN X     3.050599      0.049256  KCAL/ANGSTROM
     32         11  H    CARTESIAN Y     0.653633      0.171984  KCAL/ANGSTROM
     33         11  H    CARTESIAN Z     0.993743      0.088811  KCAL/ANGSTROM
     34         12  H    CARTESIAN X     3.396470      0.088815  KCAL/ANGSTROM
     35         12  H    CARTESIAN Y    -0.947871     -0.241095  KCAL/ANGSTROM
     36         12  H    CARTESIAN Z     1.659224      0.150853  KCAL/ANGSTROM
     37         13  H    CARTESIAN X     0.943329     -0.159072  KCAL/ANGSTROM
     38         13  H    CARTESIAN Y    -0.429120     -0.020807  KCAL/ANGSTROM
     39         13  H    CARTESIAN Z     1.895574      0.109462  KCAL/ANGSTROM
     40         14  H    CARTESIAN X     1.199879     -0.069364  KCAL/ANGSTROM
     41         14  H    CARTESIAN Y    -1.817329      0.015833  KCAL/ANGSTROM
     42         14  H    CARTESIAN Z     0.833760     -0.056806  KCAL/ANGSTROM
     43         15  H    CARTESIAN X     0.994953      0.129518  KCAL/ANGSTROM
     44         15  H    CARTESIAN Y    -0.336548      0.117806  KCAL/ANGSTROM
     45         15  H    CARTESIAN Z    -1.196653     -0.067202  KCAL/ANGSTROM
     46         16  H    CARTESIAN X     0.843655      0.014879  KCAL/ANGSTROM
     47         16  H    CARTESIAN Y     1.088517     -0.077690  KCAL/ANGSTROM
     48         16  H    CARTESIAN Z    -0.171101     -0.000328  KCAL/ANGSTROM
     49         17  H    CARTESIAN X    -0.973617     -0.044602  KCAL/ANGSTROM
     50         17  H    CARTESIAN Y    -2.254409      0.338360  KCAL/ANGSTROM
     51         17  H    CARTESIAN Z     0.556761     -0.287867  KCAL/ANGSTROM
     52         18  H    CARTESIAN X    -2.399141      0.116135  KCAL/ANGSTROM
     53         18  H    CARTESIAN Y    -1.755820     -0.040474  KCAL/ANGSTROM
     54         18  H    CARTESIAN Z    -0.354677      0.389858  KCAL/ANGSTROM
     55         19  H    CARTESIAN X    -0.880654      0.290859  KCAL/ANGSTROM
     56         19  H    CARTESIAN Y    -2.096890     -0.165941  KCAL/ANGSTROM
     57         19  H    CARTESIAN Z    -1.199868      0.094574  KCAL/ANGSTROM
     58         20  H    CARTESIAN X    -0.923440      0.014271  KCAL/ANGSTROM
     59         20  H    CARTESIAN Y     1.078463      0.027427  KCAL/ANGSTROM
     60         20  H    CARTESIAN Z     1.729101     -0.027101  KCAL/ANGSTROM
     61         21  H    CARTESIAN X    -2.243278     -0.032653  KCAL/ANGSTROM
     62         21  H    CARTESIAN Y    -0.109850     -0.196860  KCAL/ANGSTROM
     63         21  H    CARTESIAN Z     1.668350     -0.021267  KCAL/ANGSTROM
     64         22  H    CARTESIAN X    -3.298923      0.393520  KCAL/ANGSTROM
     65         22  H    CARTESIAN Y     1.885458      0.188910  KCAL/ANGSTROM
     66         22  H    CARTESIAN Z     0.195572     -0.116055  KCAL/ANGSTROM
     67         23  H    CARTESIAN X    -1.961424     -0.111817  KCAL/ANGSTROM
     68         23  H    CARTESIAN Y     0.515498      0.116014  KCAL/ANGSTROM
     69         23  H    CARTESIAN Z    -2.110026      0.124631  KCAL/ANGSTROM




   ATOM   CHEMICAL          X               Y               Z
  NUMBER   SYMBOL      (ANGSTROMS)     (ANGSTROMS)     (ANGSTROMS)

     1       C          2.85729036  *  -0.41793784  *   0.86584721  *
     2       C          1.36064247  *  -0.72576497  *   0.91453529  *
     3       C          0.61660924  *   0.00166344  *  -0.21268133  *
     4       C         -0.88801111  *  -0.20305118  *  -0.13957663  *
     5       C         -1.30946938  *  -1.64958230  *  -0.29431987  *
     6       C         -1.60160345  *   0.53469372  *   1.06795224  *
     7       C         -2.35245416  *   1.41640646  *   0.05325991  *
     8       O         -1.37916691  *   2.08777564  *  -0.75616404  *
     9       C         -1.68196187  *   0.73493908  *  -1.10670857  *
    10       H          3.29753518  *  -0.72117603  *  -0.09105194  *
    11       H          3.05059857  *   0.65363336  *   0.99374295  *
    12       H          3.39646981  *  -0.94787107  *   1.65922397  *
    13       H          0.94332857  *  -0.42912024  *   1.89557352  *
    14       H          1.19987891  *  -1.81732919  *   0.83376050  *
    15       H          0.99495338  *  -0.33654826  *  -1.19665267  *
    16       H          0.84365532  *   1.08851703  *  -0.17110089  *
    17       H         -0.97361654  *  -2.25440944  *   0.55676087  *
    18       H         -2.39914121  *  -1.75581988  *  -0.35467743  *
    19       H         -0.88065437  *  -2.09689020  *  -1.19986769  *
    20       H         -0.92343987  *   1.07846345  *   1.72910086  *
    21       H         -2.24327781  *  -0.10984992  *   1.66834962  *
    22       H         -3.29892276  *   1.88545831  *   0.19557233  *
    23       H         -1.96142358  *   0.51549821  *  -2.11002628  *

                             CARTESIAN COORDINATES

   1    C        2.857290359    -0.417937838     0.865847205
   2    C        1.360642470    -0.725764972     0.914535294
   3    C        0.616609237     0.001663438    -0.212681330
   4    C       -0.888011109    -0.203051181    -0.139576630
   5    C       -1.309469376    -1.649582297    -0.294319871
   6    C       -1.601603445     0.534693723     1.067952241
   7    C       -2.352454163     1.416406456     0.053259910
   8    O       -1.379166912     2.087775642    -0.756164035
   9    C       -1.681961868     0.734939076    -1.106708567
  10    H        3.297535181    -0.721176034    -0.091051944
  11    H        3.050598567     0.653633357     0.993742954
  12    H        3.396469810    -0.947871068     1.659223970
  13    H        0.943328575    -0.429120239     1.895573515
  14    H        1.199878912    -1.817329195     0.833760499
  15    H        0.994953378    -0.336548263    -1.196652666
  16    H        0.843655321     1.088517025    -0.171100889
  17    H       -0.973616544    -2.254409437     0.556760875
  18    H       -2.399141215    -1.755819878    -0.354677428
  19    H       -0.880654372    -2.096890204    -1.199867688
  20    H       -0.923439866     1.078463447     1.729100856
  21    H       -2.243277810    -0.109849922     1.668349619
  22    H       -3.298922755     1.885458314     0.195572328
  23    H       -1.961423584     0.515498214    -2.110026280


           Empirical Formula: C8 H14 O  =    23 atoms



      MOLECULAR POINT GROUP   :   C1  


                  EIGENVALUES  
 -32.86858 -29.14651 -27.30536 -25.00382 -23.68779 -22.56431 -21.00239 -19.93005
 -18.13524 -16.93649 -16.01401 -15.79341 -15.57790 -14.63200 -14.09675 -14.00628
 -13.45007 -13.05058 -12.86318 -12.40780 -12.14958 -11.80727 -11.36230 -11.22395
 -10.77052 -10.08772   2.10180   2.56119   3.14219   3.25748   3.68368   4.03933
   4.32582   4.62374   4.74696   4.89642   5.48182   5.65170   5.66117   5.69715
   5.81925   5.85343   5.90375   5.94941   6.19992   6.41393   6.66691   6.77024
   6.87988   7.06522


              NET ATOMIC CHARGES AND DIPOLE CONTRIBUTIONS

  ATOM NO.   TYPE          CHARGE      No. of ELECS.   s-Pop       p-Pop       
    1          C          -0.439160        4.4392     1.05232     3.38684
    2          C          -0.245679        4.2457     1.05444     3.19124
    3          C          -0.294978        4.2950     1.06140     3.23358
    4          C           0.064326        3.9357     1.07194     2.86373
    5          C          -0.462508        4.4625     1.05403     3.40848
    6          C          -0.327702        4.3277     1.08122     3.24648
    7          C          -0.005145        4.0051     1.09566     2.90948
    8          O          -0.336153        6.3362     1.92174     4.41441
    9          C          -0.041916        4.0419     1.10851     2.93341
   10          H           0.142995        0.8570     0.85701
   11          H           0.145717        0.8543     0.85428
   12          H           0.140096        0.8599     0.85990
   13          H           0.134557        0.8654     0.86544
   14          H           0.132659        0.8673     0.86734
   15          H           0.144033        0.8560     0.85597
   16          H           0.161034        0.8390     0.83897
   17          H           0.153155        0.8468     0.84685
   18          H           0.149849        0.8502     0.85015
   19          H           0.152648        0.8474     0.84735
   20          H           0.159577        0.8404     0.84042
   21          H           0.150499        0.8495     0.84950
   22          H           0.160773        0.8392     0.83923
   23          H           0.161325        0.8387     0.83868
 DIPOLE           X         Y         Z       TOTAL
 POINT-CHG.    -0.812    -2.417     0.635     2.628
 HYBRID         0.256     0.497    -0.120     0.572
 SUM           -0.556    -1.920     0.516     2.064


          ATOMIC ORBITAL ELECTRON POPULATIONS

     Atom    s        px        py        pz   
    1  C   1.05232   1.04478   1.17034   1.17172
    2  C   1.05444   0.99358   1.11673   1.08094
    3  C   1.06140   0.99414   1.14794   1.09150
    4  C   1.07194   0.96808   0.93906   0.95660
    5  C   1.05403   1.16741   1.05931   1.18175
    6  C   1.08122   1.10681   1.08493   1.05473
    7  C   1.09566   0.98047   0.98294   0.94607
    8  O   1.92174   1.62091   1.23959   1.55391
    9  C   1.10851   1.04424   0.85116   1.03801
   10  H   0.85701
   11  H   0.85428
   12  H   0.85990
   13  H   0.86544
   14  H   0.86734
   15  H   0.85597
   16  H   0.83897
   17  H   0.84685
   18  H   0.85015
   19  H   0.84735
   20  H   0.84042
   21  H   0.84950
   22  H   0.83923
   23  H   0.83868

 **********************
 *                    *
 * JOB ENDED NORMALLY *
 *                    *
 **********************



 TOTAL JOB TIME:             1.01 SECONDS

 == MOPAC DONE ==
