 *******************************************************************************
 **                                                                           **
 **                              MOPAC v23.2                                  **
 **                                                                           **
 *******************************************************************************
 **          Digital Object Identifier (DOI): 10.5281/zenodo.6511958          **
 **    Visit the DOI location for information on how to cite this program.    **
 *******************************************************************************

                              PM7 CALCULATION RESULTS

 *******************************************************************************
 *  CALCULATION DONE: (MAX THREADS = 40)             Fri Sep 19 21:28:05 2025  *
 *  PM7        - The PM7 Hamiltonian to be used
 *
 *
 *
 *                 CHARGE ON SYSTEM = +1
 *
 *
 *
 *  1SCF       - DO 1 SCF AND THEN STOP 
 *  T=         - A TIME OF 172800.0 SECONDS REQUESTED
 *  DUMP=N     - RESTART FILE WRITTEN EVERY 7200.0 SECONDS REQUESTED
 *  RELSCF     - DEFAULT SCF CRITERION MULTIPLIED BY 0.0001
 *              (DEFAULT SCF CRITERION = 0.00010)
 *  GRADIENTS  - ALL GRADIENTS TO BE PRINTED
 *  DISP       - PRINT DISPERSION AND HYDROGEN BOND ENERGIES
 *******************************************************************************
PM7 1SCF GRADIENTS DISP RELSCF=0.0001 CHARGE=1
 Title: ASE calculation

   ATOM   CHEMICAL          X               Y               Z
  NUMBER   SYMBOL      (ANGSTROMS)     (ANGSTROMS)     (ANGSTROMS)

     1       O         -1.26032768  *   1.18470998  *   1.82429455  *
     2       C         -0.80046451  *   0.24750297  *   0.95437142  *
     3       C         -1.60692354  *  -1.08653103  *   1.13441800  *
     4       O         -1.41083097  *  -1.79480196  *  -0.04735290  *
     5       C         -0.59186510  *  -0.93849222  *  -0.96022065  *
     6       C         -1.10964607  *   0.45319885  *  -0.57392055  *
     7       C          0.78837809  *  -1.05579583  *  -0.30252674  *
     8       C          1.59068348  *   0.21543169  *  -0.12241060  *
     9       C          0.66682172  *  -0.20932154  *   0.98607137  *
    10       H         -0.58702314  *   1.89388428  *   2.01146859  *
    11       H         -1.32457167  *  -1.75388281  *   1.98787463  *
    12       H         -2.71191939  *  -0.92121759  *   1.29229096  *
    13       H         -0.73541750  *  -1.34628038  *  -1.97051122  *
    14       H         -2.17076899  *   0.64597382  *  -0.80143106  *
    15       H         -0.57620798  *   1.29897484  *  -1.03836788  *
    16       H          1.29059182  *  -2.01835144  *  -0.38221908  *
    17       H          2.67487493  *   0.12008462  *   0.03141501  *
    18       H          1.41105386  *   1.10162342  *  -0.73039038  *
    19       H          1.06781478  *  -0.49106846  *   1.95846106  *



          CARTESIAN COORDINATES 

    NO.       ATOM           X           Y           Z

     1         O         -1.2603      1.1847      1.8243
     2         C         -0.8005      0.2475      0.9544
     3         C         -1.6069     -1.0865      1.1344
     4         O         -1.4108     -1.7948     -0.0474
     5         C         -0.5919     -0.9385     -0.9602
     6         C         -1.1096      0.4532     -0.5739
     7         C          0.7884     -1.0558     -0.3025
     8         C          1.5907      0.2154     -0.1224
     9         C          0.6668     -0.2093      0.9861
    10         H         -0.5870      1.8939      2.0115
    11         H         -1.3246     -1.7539      1.9879
    12         H         -2.7119     -0.9212      1.2923
    13         H         -0.7354     -1.3463     -1.9705
    14         H         -2.1708      0.6460     -0.8014
    15         H         -0.5762      1.2990     -1.0384
    16         H          1.2906     -2.0184     -0.3822
    17         H          2.6749      0.1201      0.0314
    18         H          1.4111      1.1016     -0.7304
    19         H          1.0678     -0.4911      1.9585

 General Reference for PM7:
 "Optimization of Parameters for Semiempirical Methods VI: More Modifications to the 
 NDDO Approximations and Re-optimization of Parameters", J. J. P. Stewart, J. Mol. Mod., 1:32, 19 (2013)
 https://link.springer.com/article/10.1007/s00894-012-1667-x

           Empirical Formula: C7 H10 O2  =    19 atoms



      MOLECULAR POINT GROUP   :   C1  


          UHF CALCULATION, NO. OF ALPHA ELECTRONS =   25
                           NO. OF BETA  ELECTRONS =   24
  SCF CRITERION =    0.1000E-07

 -------------------------------------------------------------------------------
 PM7 1SCF GRADIENTS DISP RELSCF=0.0001 CHARGE=1
 Title: ASE calculation



     1SCF WAS SPECIFIED, SO BFGS WAS NOT USED                 
     SCF FIELD WAS ACHIEVED                                   


                              PM7 CALCULATION
                                                       MOPAC v23.2 Linux
                                                       Fri Sep 19 21:28:05 2025




          FINAL HEAT OF FORMATION =        167.72156 KCAL/MOL =     701.74701 KJ/MOL

          TOTAL ENERGY            =     -36313.25729 KCAL/MOL = ELECTRONIC ENERGY + CORE-CORE REPULSION
          ENERGY OF ATOMS         =      36482.50324 KCAL/MOL
                              SUM =        169.24594 KCAL/MOL
          DISPERSION ENERGY       =         -1.52438 KCAL/MOL
                              SUM =        167.72156 KCAL/MOL = FINAL HEAT OF FORMATION



          TOTAL ENERGY            =      -1574.69187 EV
          ELECTRONIC ENERGY       =      -7929.80354 EV 
          CORE-CORE REPULSION     =       6355.11166 EV
          COSMO AREA              =        150.30 SQUARE ANGSTROMS
          COSMO VOLUME            =        151.17 CUBIC ANGSTROMS

          GRADIENT NORM           =          1.07158          =       0.24584 PER ATOM
          IONIZATION POTENTIAL    =         15.316520 EV
          ALPHA SOMO LUMO (EV)    =        -15.327 -5.146
          BETA  SOMO LUMO (EV)    =        -15.317 -8.282
          NO. OF ALPHA ELECTRONS  =         25
          NO. OF BETA  ELECTRONS  =         24
          MOLECULAR WEIGHT        =        126.1548         POINT GROUP:  C1  

          MOLECULAR DIMENSIONS (Angstroms)

            Atom       Atom       Distance
            H    17    H    12     5.62954
            H    10    H    13     5.13363
            H    15    H    11     3.88400


          SCF CALCULATIONS        =          1

          WALL-CLOCK TIME         =      0.695 SECONDS
          COMPUTATION TIME        =      0.401 SECONDS

          LARGEST ATOMIC GRADIENTS

          Atom     Label                     Cartesian Gradients           Cartesian Coordinates       |Gradient|
                                           X          Y          Z        X          Y          Z

             1       O                  -0.012     -0.337      0.310   -1.26033    1.18471    1.82429      0.458
            15       H                  -0.262     -0.178     -0.172   -0.57621    1.29897   -1.03837      0.361
            12       H                   0.266      0.064      0.200   -2.71192   -0.92122    1.29229      0.339
             8       C                  -0.002      0.169      0.285    1.59068    0.21543   -0.12241      0.331
            11       H                  -0.159      0.062     -0.234   -1.32457   -1.75388    1.98787      0.290
            18       H                   0.027     -0.240     -0.154    1.41105    1.10162   -0.73039      0.286
             2       C                  -0.076      0.246      0.002   -0.80046    0.24750    0.95437      0.258
            17       H                  -0.118     -0.161     -0.099    2.67487    0.12008    0.03142      0.223
             6       C                  -0.072      0.112      0.178   -1.10965    0.45320   -0.57392      0.222
             3       C                   0.074      0.131     -0.133   -1.60692   -1.08653    1.13442      0.201



       FINAL  POINT  AND  DERIVATIVES

   PARAMETER     ATOM    TYPE            VALUE        GRADIENT
      1          1  O    CARTESIAN X    -1.260328     -0.012449  KCAL/ANGSTROM
      2          1  O    CARTESIAN Y     1.184710     -0.336803  KCAL/ANGSTROM
      3          1  O    CARTESIAN Z     1.824295      0.309574  KCAL/ANGSTROM
      4          2  C    CARTESIAN X    -0.800465     -0.075528  KCAL/ANGSTROM
      5          2  C    CARTESIAN Y     0.247503      0.246474  KCAL/ANGSTROM
      6          2  C    CARTESIAN Z     0.954371      0.002033  KCAL/ANGSTROM
      7          3  C    CARTESIAN X    -1.606924      0.073974  KCAL/ANGSTROM
      8          3  C    CARTESIAN Y    -1.086531      0.131093  KCAL/ANGSTROM
      9          3  C    CARTESIAN Z     1.134418     -0.132802  KCAL/ANGSTROM
     10          4  O    CARTESIAN X    -1.410831      0.015635  KCAL/ANGSTROM
     11          4  O    CARTESIAN Y    -1.794802      0.112992  KCAL/ANGSTROM
     12          4  O    CARTESIAN Z    -0.047353     -0.101827  KCAL/ANGSTROM
     13          5  C    CARTESIAN X    -0.591865      0.094385  KCAL/ANGSTROM
     14          5  C    CARTESIAN Y    -0.938492      0.089611  KCAL/ANGSTROM
     15          5  C    CARTESIAN Z    -0.960221      0.049561  KCAL/ANGSTROM
     16          6  C    CARTESIAN X    -1.109646     -0.072059  KCAL/ANGSTROM
     17          6  C    CARTESIAN Y     0.453199      0.111662  KCAL/ANGSTROM
     18          6  C    CARTESIAN Z    -0.573921      0.178357  KCAL/ANGSTROM
     19          7  C    CARTESIAN X     0.788378      0.058671  KCAL/ANGSTROM
     20          7  C    CARTESIAN Y    -1.055796      0.070329  KCAL/ANGSTROM
     21          7  C    CARTESIAN Z    -0.302527      0.050770  KCAL/ANGSTROM
     22          8  C    CARTESIAN X     1.590683     -0.002079  KCAL/ANGSTROM
     23          8  C    CARTESIAN Y     0.215432      0.168851  KCAL/ANGSTROM
     24          8  C    CARTESIAN Z    -0.122411      0.284723  KCAL/ANGSTROM
     25          9  C    CARTESIAN X     0.666822     -0.059578  KCAL/ANGSTROM
     26          9  C    CARTESIAN Y    -0.209322      0.150997  KCAL/ANGSTROM
     27          9  C    CARTESIAN Z     0.986071      0.082391  KCAL/ANGSTROM
     28         10  H    CARTESIAN X    -0.587023     -0.046327  KCAL/ANGSTROM
     29         10  H    CARTESIAN Y     1.893884     -0.067182  KCAL/ANGSTROM
     30         10  H    CARTESIAN Z     2.011469     -0.082032  KCAL/ANGSTROM
     31         11  H    CARTESIAN X    -1.324572     -0.159229  KCAL/ANGSTROM
     32         11  H    CARTESIAN Y    -1.753883      0.062167  KCAL/ANGSTROM
     33         11  H    CARTESIAN Z     1.987875     -0.234385  KCAL/ANGSTROM
     34         12  H    CARTESIAN X    -2.711919      0.265921  KCAL/ANGSTROM
     35         12  H    CARTESIAN Y    -0.921218      0.064481  KCAL/ANGSTROM
     36         12  H    CARTESIAN Z     1.292291      0.200435  KCAL/ANGSTROM
     37         13  H    CARTESIAN X    -0.735417      0.172891  KCAL/ANGSTROM
     38         13  H    CARTESIAN Y    -1.346280     -0.023170  KCAL/ANGSTROM
     39         13  H    CARTESIAN Z    -1.970511      0.049070  KCAL/ANGSTROM
     40         14  H    CARTESIAN X    -2.170769      0.030111  KCAL/ANGSTROM
     41         14  H    CARTESIAN Y     0.645974     -0.066249  KCAL/ANGSTROM
     42         14  H    CARTESIAN Z    -0.801431     -0.171567  KCAL/ANGSTROM
     43         15  H    CARTESIAN X    -0.576208     -0.262335  KCAL/ANGSTROM
     44         15  H    CARTESIAN Y     1.298975     -0.177631  KCAL/ANGSTROM
     45         15  H    CARTESIAN Z    -1.038368     -0.172287  KCAL/ANGSTROM
     46         16  H    CARTESIAN X     1.290592     -0.069636  KCAL/ANGSTROM
     47         16  H    CARTESIAN Y    -2.018351     -0.079818  KCAL/ANGSTROM
     48         16  H    CARTESIAN Z    -0.382219      0.037483  KCAL/ANGSTROM
     49         17  H    CARTESIAN X     2.674875     -0.117752  KCAL/ANGSTROM
     50         17  H    CARTESIAN Y     0.120085     -0.161002  KCAL/ANGSTROM
     51         17  H    CARTESIAN Z     0.031415     -0.098781  KCAL/ANGSTROM
     52         18  H    CARTESIAN X     1.411054      0.026966  KCAL/ANGSTROM
     53         18  H    CARTESIAN Y     1.101623     -0.239979  KCAL/ANGSTROM
     54         18  H    CARTESIAN Z    -0.730390     -0.154128  KCAL/ANGSTROM
     55         19  H    CARTESIAN X     1.067815      0.138414  KCAL/ANGSTROM
     56         19  H    CARTESIAN Y    -0.491068     -0.056825  KCAL/ANGSTROM
     57         19  H    CARTESIAN Z     1.958461     -0.096594  KCAL/ANGSTROM




   ATOM   CHEMICAL          X               Y               Z
  NUMBER   SYMBOL      (ANGSTROMS)     (ANGSTROMS)     (ANGSTROMS)

     1       O         -1.26032768  *   1.18470998  *   1.82429455  *
     2       C         -0.80046451  *   0.24750297  *   0.95437142  *
     3       C         -1.60692354  *  -1.08653103  *   1.13441800  *
     4       O         -1.41083097  *  -1.79480196  *  -0.04735290  *
     5       C         -0.59186510  *  -0.93849222  *  -0.96022065  *
     6       C         -1.10964607  *   0.45319885  *  -0.57392055  *
     7       C          0.78837809  *  -1.05579583  *  -0.30252674  *
     8       C          1.59068348  *   0.21543169  *  -0.12241060  *
     9       C          0.66682172  *  -0.20932154  *   0.98607137  *
    10       H         -0.58702314  *   1.89388428  *   2.01146859  *
    11       H         -1.32457167  *  -1.75388281  *   1.98787463  *
    12       H         -2.71191939  *  -0.92121759  *   1.29229096  *
    13       H         -0.73541750  *  -1.34628038  *  -1.97051122  *
    14       H         -2.17076899  *   0.64597382  *  -0.80143106  *
    15       H         -0.57620798  *   1.29897484  *  -1.03836788  *
    16       H          1.29059182  *  -2.01835144  *  -0.38221908  *
    17       H          2.67487493  *   0.12008462  *   0.03141501  *
    18       H          1.41105386  *   1.10162342  *  -0.73039038  *
    19       H          1.06781478  *  -0.49106846  *   1.95846106  *

                             CARTESIAN COORDINATES

   1    O       -1.260327685     1.184709979     1.824294546
   2    C       -0.800464506     0.247502965     0.954371421
   3    C       -1.606923537    -1.086531029     1.134418000
   4    O       -1.410830974    -1.794801960    -0.047352904
   5    C       -0.591865101    -0.938492224    -0.960220648
   6    C       -1.109646075     0.453198855    -0.573920553
   7    C        0.788378090    -1.055795826    -0.302526738
   8    C        1.590683477     0.215431691    -0.122410603
   9    C        0.666821720    -0.209321544     0.986071373
  10    H       -0.587023143     1.893884276     2.011468593
  11    H       -1.324571666    -1.753882806     1.987874634
  12    H       -2.711919392    -0.921217589     1.292290960
  13    H       -0.735417499    -1.346280379    -1.970511221
  14    H       -2.170768990     0.645973815    -0.801431059
  15    H       -0.576207980     1.298974841    -1.038367875
  16    H        1.290591824    -2.018351441    -0.382219080
  17    H        2.674874929     0.120084622     0.031415009
  18    H        1.411053860     1.101623416    -0.730390375
  19    H        1.067814775    -0.491068456     1.958461061


           Empirical Formula: C7 H10 O2  =    19 atoms



      MOLECULAR POINT GROUP   :   C1  


          ALPHA EIGENVALUES  
 -40.22942 -36.88434 -34.44142 -31.93583 -30.95338 -27.68124 -26.99921 -24.70711
 -24.09611 -23.32917 -23.09103 -22.03179 -21.21274 -20.78687 -19.58647 -19.34029
 -18.98623 -18.70437 -18.06310 -17.68482 -17.13940 -16.95689 -16.27769 -16.11694
 -15.32723  -5.14563  -3.22411  -2.78451  -2.20445  -2.17227  -2.03124  -1.71872
  -1.49369  -1.21743  -0.73886  -0.63248  -0.46297  -0.01361   0.19667   0.55348
   1.04766   1.30940   1.37892   1.45100   1.59181   1.96488


           BETA EIGENVALUES 
 -38.63453 -35.33455 -34.43252 -31.44711 -30.75164 -27.46483 -26.81425 -24.56582
 -23.97407 -23.19115 -22.71668 -21.21178 -20.90456 -20.39205 -19.23823 -19.01107
 -18.74417 -18.54439 -17.80157 -17.35207 -16.90278 -16.35362 -16.07196 -15.31652
  -8.28171  -4.60433  -3.04881  -2.63559  -2.14950  -2.07099  -1.99610  -1.71370
  -1.46640  -1.20902  -0.69152  -0.48341  -0.43409   0.10644   0.20747   0.55499
   1.05122   1.31263   1.38017   1.45143   1.59274   1.96712


              NET ATOMIC CHARGES AND DIPOLE CONTRIBUTIONS

  ATOM NO.   TYPE          CHARGE      No. of ELECS.   s-Pop       p-Pop       
    1          O          -0.481237        6.4812     1.83938     4.64186
    2          C           0.315573        3.6844     1.08436     2.60007
    3          C          -0.253764        4.2538     1.13622     3.11755
    4          O           0.203584        5.7964     1.91206     3.88436
    5          C           0.018968        3.9810     1.14179     2.83924
    6          C          -0.386275        4.3863     1.09154     3.29473
    7          C          -0.221826        4.2218     1.07098     3.15085
    8          C          -0.234041        4.2340     1.06261     3.17143
    9          C          -0.245552        4.2456     1.07865     3.16690
   10          H           0.366509        0.6335     0.63349
   11          H           0.249161        0.7508     0.75084
   12          H           0.267691        0.7323     0.73231
   13          H           0.207149        0.7929     0.79285
   14          H           0.198326        0.8017     0.80167
   15          H           0.210861        0.7891     0.78914
   16          H           0.203106        0.7969     0.79689
   17          H           0.198783        0.8012     0.80122
   18          H           0.182410        0.8176     0.81759
   19          H           0.200574        0.7994     0.79943
 DIPOLE           X         Y         Z       TOTAL
 POINT-CHG.    -0.364    -1.797    -0.898     2.042
 HYBRID        -0.264    -0.156    -0.003     0.307
 SUM           -0.629    -1.953    -0.901     2.241


          ATOMIC ORBITAL ELECTRON POPULATIONS

     Atom    s        px        py        pz   
    1  O   1.83938   1.51547   1.47100   1.65538
    2  C   1.08436   0.90486   0.82983   0.86538
    3  C   1.13622   1.14336   1.06746   0.90672
    4  O   1.91206   1.26251   1.37464   1.24720
    5  C   1.14179   0.92377   0.93399   0.98149
    6  C   1.09154   1.20298   1.04178   1.04997
    7  C   1.07098   1.00744   1.09648   1.04692
    8  C   1.06261   1.10139   1.03122   1.03882
    9  C   1.07865   1.02088   1.11264   1.03338
   10  H   0.63349
   11  H   0.75084
   12  H   0.73231
   13  H   0.79285
   14  H   0.80167
   15  H   0.78914
   16  H   0.79689
   17  H   0.80122
   18  H   0.81759
   19  H   0.79943


                    (SZ)    =    0.500000
                    (S**2)  =    0.758668


          ATOMIC ORBITAL SPIN POPULATIONS

    Atom   Total    s     px     py     pz   
         Atomic
    1  O -0.0010 -0.000  0.000 -0.000 -0.001
    2  C  0.0017 -0.001  0.004  0.000 -0.001
    3  C  0.0088 -0.009  0.045 -0.003 -0.024
    4  O  0.8372  0.016  0.551  0.133  0.137
    5  C -0.0512 -0.005 -0.010 -0.017 -0.020
    6  C  0.0220  0.001  0.002  0.013  0.006
    7  C  0.0450  0.004  0.032  0.001  0.008
    8  C  0.0071 -0.000  0.000  0.000  0.007
    9  C -0.0015 -0.000  0.004 -0.004 -0.001
   10  H -0.0001 -0.000
   11  H  0.0559  0.056
   12  H  0.0762  0.076
   13  H  0.0030  0.003
   14  H -0.0008 -0.001
   15  H -0.0021 -0.002
   16  H -0.0004 -0.000
   17  H  0.0003  0.000
   18  H -0.0001 -0.000
   19  H  0.0000  0.000

 **********************
 *                    *
 * JOB ENDED NORMALLY *
 *                    *
 **********************



 TOTAL JOB TIME:             1.13 SECONDS

 == MOPAC DONE ==
