 *******************************************************************************
 **                                                                           **
 **                              MOPAC v23.2                                  **
 **                                                                           **
 *******************************************************************************
 **          Digital Object Identifier (DOI): 10.5281/zenodo.6511958          **
 **    Visit the DOI location for information on how to cite this program.    **
 *******************************************************************************

                              PM7 CALCULATION RESULTS

 *******************************************************************************
 *  CALCULATION DONE: (MAX THREADS = 40)             Fri Sep 19 21:32:27 2025  *
 *  PM7        - The PM7 Hamiltonian to be used
 *
 *
 *
 *                 CHARGE ON SYSTEM = +1
 *
 *
 *
 *  1SCF       - DO 1 SCF AND THEN STOP 
 *  T=         - A TIME OF 172800.0 SECONDS REQUESTED
 *  DUMP=N     - RESTART FILE WRITTEN EVERY 7200.0 SECONDS REQUESTED
 *  RELSCF     - DEFAULT SCF CRITERION MULTIPLIED BY 0.0001
 *              (DEFAULT SCF CRITERION = 0.00010)
 *  GRADIENTS  - ALL GRADIENTS TO BE PRINTED
 *  DISP       - PRINT DISPERSION AND HYDROGEN BOND ENERGIES
 *******************************************************************************
PM7 1SCF GRADIENTS DISP RELSCF=0.0001 CHARGE=1
 Title: ASE calculation

   ATOM   CHEMICAL          X               Y               Z
  NUMBER   SYMBOL      (ANGSTROMS)     (ANGSTROMS)     (ANGSTROMS)

     1       O          2.19982553  *  -1.44453675  *  -1.50531084  *
     2       C          1.42949713  *  -1.69203131  *  -0.63024972  *
     3       C          0.71167493  *  -0.52169865  *   0.11542376  *
     4       C          0.76116731  *   0.71160884  *  -0.67521095  *
     5       C         -0.43341296  *   1.44250314  *  -0.90484334  *
     6       C         -1.68797049  *   0.80908678  *  -0.50791107  *
     7       C         -1.44100843  *   0.38449364  *   1.01415252  *
     8       C         -0.74296354  *  -0.89042430  *   0.45561569  *
     9       C         -1.59706123  *  -0.72879901  *  -0.83944204  *
    10       H          1.16527385  *  -2.69250931  *  -0.27068710  *
    11       H          1.31398869  *  -0.40187976  *   1.07248486  *
    12       H          1.72530398  *   1.03304691  *  -1.10051300  *
    13       H         -0.42194289  *   2.45464682  *  -1.32832136  *
    14       H         -2.62756817  *   1.32340245  *  -0.74261374  *
    15       H         -0.85414303  *   1.06120702  *   1.63504746  *
    16       H         -2.38969439  *   0.19494998  *   1.53997533  *
    17       H         -0.85539961  *  -1.81638383  *   1.02935308  *
    18       H         -2.57575429  *  -1.23147193  *  -0.79944812  *
    19       H         -1.13542047  *  -0.99876621  *  -1.79053417  *



          CARTESIAN COORDINATES 

    NO.       ATOM           X           Y           Z

     1         O          2.1998     -1.4445     -1.5053
     2         C          1.4295     -1.6920     -0.6302
     3         C          0.7117     -0.5217      0.1154
     4         C          0.7612      0.7116     -0.6752
     5         C         -0.4334      1.4425     -0.9048
     6         C         -1.6880      0.8091     -0.5079
     7         C         -1.4410      0.3845      1.0142
     8         C         -0.7430     -0.8904      0.4556
     9         C         -1.5971     -0.7288     -0.8394
    10         H          1.1653     -2.6925     -0.2707
    11         H          1.3140     -0.4019      1.0725
    12         H          1.7253      1.0330     -1.1005
    13         H         -0.4219      2.4546     -1.3283
    14         H         -2.6276      1.3234     -0.7426
    15         H         -0.8541      1.0612      1.6350
    16         H         -2.3897      0.1949      1.5400
    17         H         -0.8554     -1.8164      1.0294
    18         H         -2.5758     -1.2315     -0.7994
    19         H         -1.1354     -0.9988     -1.7905

 General Reference for PM7:
 "Optimization of Parameters for Semiempirical Methods VI: More Modifications to the 
 NDDO Approximations and Re-optimization of Parameters", J. J. P. Stewart, J. Mol. Mod., 1:32, 19 (2013)
 https://link.springer.com/article/10.1007/s00894-012-1667-x

           Empirical Formula: C8 H10 O  =    19 atoms



      MOLECULAR POINT GROUP   :   C1  


          UHF CALCULATION, NO. OF ALPHA ELECTRONS =   24
                           NO. OF BETA  ELECTRONS =   23
  SCF CRITERION =    0.1000E-07

 -------------------------------------------------------------------------------
 PM7 1SCF GRADIENTS DISP RELSCF=0.0001 CHARGE=1
 Title: ASE calculation



     1SCF WAS SPECIFIED, SO BFGS WAS NOT USED                 
     SCF FIELD WAS ACHIEVED                                   


                              PM7 CALCULATION
                                                       MOPAC v23.2 Linux
                                                       Fri Sep 19 21:32:29 2025




          FINAL HEAT OF FORMATION =        207.96435 KCAL/MOL =     870.12286 KJ/MOL

          TOTAL ENERGY            =     -32342.97089 KCAL/MOL = ELECTRONIC ENERGY + CORE-CORE REPULSION
          ENERGY OF ATOMS         =      32552.68886 KCAL/MOL
                              SUM =        209.71797 KCAL/MOL
          DISPERSION ENERGY       =         -1.75362 KCAL/MOL
                              SUM =        207.96435 KCAL/MOL = FINAL HEAT OF FORMATION



          TOTAL ENERGY            =      -1402.52396 EV
          ELECTRONIC ENERGY       =      -7035.64476 EV 
          CORE-CORE REPULSION     =       5633.12080 EV
          COSMO AREA              =        155.87 SQUARE ANGSTROMS
          COSMO VOLUME            =        158.26 CUBIC ANGSTROMS

          GRADIENT NORM           =          0.79917          =       0.18334 PER ATOM
          IONIZATION POTENTIAL    =         14.716023 EV
          ALPHA SOMO LUMO (EV)    =        -14.721 -6.174
          BETA  SOMO LUMO (EV)    =        -14.716 -8.106
          NO. OF ALPHA ELECTRONS  =         24
          NO. OF BETA  ELECTRONS  =         23
          MOLECULAR WEIGHT        =        122.1664         POINT GROUP:  C1  

          MOLECULAR DIMENSIONS (Angstroms)

            Atom       Atom       Distance
            H    16    O     1     5.74677
            H    13    H    10     5.03964
            H    11    H    18     3.97425


          SCF CALCULATIONS        =          1

          WALL-CLOCK TIME         =      1.281 SECONDS
          COMPUTATION TIME        =      0.892 SECONDS

          LARGEST ATOMIC GRADIENTS

          Atom     Label                     Cartesian Gradients           Cartesian Coordinates       |Gradient|
                                           X          Y          Z        X          Y          Z

             1       O                  -0.325     -0.046      0.188    2.19983   -1.44454   -1.50531      0.378
             2       C                   0.249     -0.039     -0.129    1.42950   -1.69203   -0.63025      0.283
            19       H                   0.205     -0.066      0.111   -1.13542   -0.99877   -1.79053      0.242
             6       C                   0.082      0.158      0.140   -1.68797    0.80909   -0.50791      0.226
             3       C                   0.029     -0.200     -0.095    0.71167   -0.52170    0.11542      0.223
            13       H                  -0.030      0.091     -0.198   -0.42194    2.45465   -1.32832      0.220
            15       H                  -0.068     -0.098      0.155   -0.85414    1.06121    1.63505      0.196
            10       H                  -0.016      0.169      0.093    1.16527   -2.69251   -0.27069      0.193
            12       H                  -0.061      0.151      0.039    1.72530    1.03305   -1.10051      0.167
             8       C                  -0.022     -0.071     -0.117   -0.74296   -0.89042    0.45562      0.139



       FINAL  POINT  AND  DERIVATIVES

   PARAMETER     ATOM    TYPE            VALUE        GRADIENT
      1          1  O    CARTESIAN X     2.199826     -0.325143  KCAL/ANGSTROM
      2          1  O    CARTESIAN Y    -1.444537     -0.045868  KCAL/ANGSTROM
      3          1  O    CARTESIAN Z    -1.505311      0.188123  KCAL/ANGSTROM
      4          2  C    CARTESIAN X     1.429497      0.249039  KCAL/ANGSTROM
      5          2  C    CARTESIAN Y    -1.692031     -0.039067  KCAL/ANGSTROM
      6          2  C    CARTESIAN Z    -0.630250     -0.129224  KCAL/ANGSTROM
      7          3  C    CARTESIAN X     0.711675      0.029076  KCAL/ANGSTROM
      8          3  C    CARTESIAN Y    -0.521699     -0.200065  KCAL/ANGSTROM
      9          3  C    CARTESIAN Z     0.115424     -0.094668  KCAL/ANGSTROM
     10          4  C    CARTESIAN X     0.761167     -0.002416  KCAL/ANGSTROM
     11          4  C    CARTESIAN Y     0.711609     -0.106980  KCAL/ANGSTROM
     12          4  C    CARTESIAN Z    -0.675211     -0.053614  KCAL/ANGSTROM
     13          5  C    CARTESIAN X    -0.433413      0.044790  KCAL/ANGSTROM
     14          5  C    CARTESIAN Y     1.442503      0.110371  KCAL/ANGSTROM
     15          5  C    CARTESIAN Z    -0.904843     -0.058538  KCAL/ANGSTROM
     16          6  C    CARTESIAN X    -1.687970      0.081502  KCAL/ANGSTROM
     17          6  C    CARTESIAN Y     0.809087      0.158167  KCAL/ANGSTROM
     18          6  C    CARTESIAN Z    -0.507911      0.140055  KCAL/ANGSTROM
     19          7  C    CARTESIAN X    -1.441008     -0.029247  KCAL/ANGSTROM
     20          7  C    CARTESIAN Y     0.384494      0.012413  KCAL/ANGSTROM
     21          7  C    CARTESIAN Z     1.014153     -0.058149  KCAL/ANGSTROM
     22          8  C    CARTESIAN X    -0.742964     -0.021999  KCAL/ANGSTROM
     23          8  C    CARTESIAN Y    -0.890424     -0.070822  KCAL/ANGSTROM
     24          8  C    CARTESIAN Z     0.455616     -0.117225  KCAL/ANGSTROM
     25          9  C    CARTESIAN X    -1.597061      0.010595  KCAL/ANGSTROM
     26          9  C    CARTESIAN Y    -0.728799     -0.072483  KCAL/ANGSTROM
     27          9  C    CARTESIAN Z    -0.839442      0.016827  KCAL/ANGSTROM
     28         10  H    CARTESIAN X     1.165274     -0.016478  KCAL/ANGSTROM
     29         10  H    CARTESIAN Y    -2.692509      0.169141  KCAL/ANGSTROM
     30         10  H    CARTESIAN Z    -0.270687      0.092502  KCAL/ANGSTROM
     31         11  H    CARTESIAN X     1.313989      0.045010  KCAL/ANGSTROM
     32         11  H    CARTESIAN Y    -0.401880     -0.107185  KCAL/ANGSTROM
     33         11  H    CARTESIAN Z     1.072485     -0.040441  KCAL/ANGSTROM
     34         12  H    CARTESIAN X     1.725304     -0.061030  KCAL/ANGSTROM
     35         12  H    CARTESIAN Y     1.033047      0.150800  KCAL/ANGSTROM
     36         12  H    CARTESIAN Z    -1.100513      0.038819  KCAL/ANGSTROM
     37         13  H    CARTESIAN X    -0.421943     -0.029883  KCAL/ANGSTROM
     38         13  H    CARTESIAN Y     2.454647      0.091438  KCAL/ANGSTROM
     39         13  H    CARTESIAN Z    -1.328321     -0.198038  KCAL/ANGSTROM
     40         14  H    CARTESIAN X    -2.627568     -0.059744  KCAL/ANGSTROM
     41         14  H    CARTESIAN Y     1.323402     -0.019671  KCAL/ANGSTROM
     42         14  H    CARTESIAN Z    -0.742614      0.031542  KCAL/ANGSTROM
     43         15  H    CARTESIAN X    -0.854143     -0.068405  KCAL/ANGSTROM
     44         15  H    CARTESIAN Y     1.061207     -0.098451  KCAL/ANGSTROM
     45         15  H    CARTESIAN Z     1.635047      0.154563  KCAL/ANGSTROM
     46         16  H    CARTESIAN X    -2.389694     -0.033273  KCAL/ANGSTROM
     47         16  H    CARTESIAN Y     0.194950      0.069643  KCAL/ANGSTROM
     48         16  H    CARTESIAN Z     1.539975      0.048229  KCAL/ANGSTROM
     49         17  H    CARTESIAN X    -0.855400      0.055049  KCAL/ANGSTROM
     50         17  H    CARTESIAN Y    -1.816384      0.020111  KCAL/ANGSTROM
     51         17  H    CARTESIAN Z     1.029353     -0.051737  KCAL/ANGSTROM
     52         18  H    CARTESIAN X    -2.575754     -0.072120  KCAL/ANGSTROM
     53         18  H    CARTESIAN Y    -1.231472      0.044970  KCAL/ANGSTROM
     54         18  H    CARTESIAN Z    -0.799448     -0.020017  KCAL/ANGSTROM
     55         19  H    CARTESIAN X    -1.135420      0.204677  KCAL/ANGSTROM
     56         19  H    CARTESIAN Y    -0.998766     -0.066468  KCAL/ANGSTROM
     57         19  H    CARTESIAN Z    -1.790534      0.110987  KCAL/ANGSTROM




   ATOM   CHEMICAL          X               Y               Z
  NUMBER   SYMBOL      (ANGSTROMS)     (ANGSTROMS)     (ANGSTROMS)

     1       O          2.19982553  *  -1.44453675  *  -1.50531084  *
     2       C          1.42949713  *  -1.69203131  *  -0.63024972  *
     3       C          0.71167493  *  -0.52169865  *   0.11542376  *
     4       C          0.76116731  *   0.71160884  *  -0.67521095  *
     5       C         -0.43341296  *   1.44250314  *  -0.90484334  *
     6       C         -1.68797049  *   0.80908678  *  -0.50791107  *
     7       C         -1.44100843  *   0.38449364  *   1.01415252  *
     8       C         -0.74296354  *  -0.89042430  *   0.45561569  *
     9       C         -1.59706123  *  -0.72879901  *  -0.83944204  *
    10       H          1.16527385  *  -2.69250931  *  -0.27068710  *
    11       H          1.31398869  *  -0.40187976  *   1.07248486  *
    12       H          1.72530398  *   1.03304691  *  -1.10051300  *
    13       H         -0.42194289  *   2.45464682  *  -1.32832136  *
    14       H         -2.62756817  *   1.32340245  *  -0.74261374  *
    15       H         -0.85414303  *   1.06120702  *   1.63504746  *
    16       H         -2.38969439  *   0.19494998  *   1.53997533  *
    17       H         -0.85539961  *  -1.81638383  *   1.02935308  *
    18       H         -2.57575429  *  -1.23147193  *  -0.79944812  *
    19       H         -1.13542047  *  -0.99876621  *  -1.79053417  *

                             CARTESIAN COORDINATES

   1    O        2.199825531    -1.444536748    -1.505310836
   2    C        1.429497134    -1.692031308    -0.630249717
   3    C        0.711674932    -0.521698651     0.115423756
   4    C        0.761167315     0.711608845    -0.675210952
   5    C       -0.433412961     1.442503136    -0.904843335
   6    C       -1.687970493     0.809086777    -0.507911071
   7    C       -1.441008431     0.384493638     1.014152518
   8    C       -0.742963535    -0.890424305     0.455615693
   9    C       -1.597061228    -0.728799014    -0.839442038
  10    H        1.165273846    -2.692509315    -0.270687101
  11    H        1.313988694    -0.401879758     1.072484864
  12    H        1.725303978     1.033046912    -1.100512996
  13    H       -0.421942888     2.454646815    -1.328321361
  14    H       -2.627568167     1.323402452    -0.742613736
  15    H       -0.854143033     1.061207018     1.635047455
  16    H       -2.389694391     0.194949977     1.539975334
  17    H       -0.855399611    -1.816383829     1.029353078
  18    H       -2.575754291    -1.231471933    -0.799448122
  19    H       -1.135420468    -0.998766208    -1.790534174


           Empirical Formula: C8 H10 O  =    19 atoms



      MOLECULAR POINT GROUP   :   C1  


          ALPHA EIGENVALUES  
 -37.65583 -36.18491 -32.22732 -31.54066 -27.93233 -27.33370 -25.81813 -25.01658
 -23.05880 -22.15631 -21.17795 -20.46897 -19.81936 -19.63357 -19.54878 -18.97690
 -18.79639 -18.24279 -17.75765 -16.68466 -16.52813 -16.19539 -15.80215 -14.72139
  -6.17423  -3.90743  -2.28691  -2.08457  -2.00708  -1.88769  -1.64454  -1.44919
  -1.29358  -1.11942  -0.24874  -0.07748   0.06484   0.19583   0.37826   0.73468
   0.86261   1.05366   1.21354   1.36195   1.67558   1.82200


           BETA EIGENVALUES 
 -37.56217 -36.07775 -32.07092 -31.39062 -27.86508 -27.24517 -25.72055 -24.91478
 -22.97264 -22.11909 -20.93521 -20.40330 -19.67316 -19.53450 -19.48722 -18.88790
 -18.33199 -18.19872 -17.61941 -16.56262 -16.48330 -16.11721 -14.71602  -8.10570
  -4.91748  -3.87633  -2.18291  -1.95564  -1.90346  -1.83563  -1.54870  -1.39401
  -1.18899  -1.06555  -0.17601  -0.02120   0.11358   0.25558   0.42983   0.78407
   0.87817   1.06587   1.21771   1.36605   1.68709   1.82606


              NET ATOMIC CHARGES AND DIPOLE CONTRIBUTIONS

  ATOM NO.   TYPE          CHARGE      No. of ELECS.   s-Pop       p-Pop       
    1          O          -0.319840        6.3198     1.87625     4.44359
    2          C           0.355799        3.6442     1.16258     2.48162
    3          C          -0.333541        4.3335     1.09283     3.24071
    4          C           0.091796        3.9082     1.16114     2.74707
    5          C           0.099371        3.9006     1.16469     2.73594
    6          C          -0.192646        4.1926     1.08629     3.10635
    7          C          -0.238222        4.2382     1.08881     3.14941
    8          C          -0.109018        4.1090     1.07934     3.02967
    9          C          -0.259867        4.2599     1.08211     3.17775
   10          H           0.171859        0.8281     0.82814
   11          H           0.239861        0.7601     0.76014
   12          H           0.209587        0.7904     0.79041
   13          H           0.200253        0.7997     0.79975
   14          H           0.199617        0.8004     0.80038
   15          H           0.161613        0.8384     0.83839
   16          H           0.191202        0.8088     0.80880
   17          H           0.179649        0.8204     0.82035
   18          H           0.188892        0.8111     0.81111
   19          H           0.163637        0.8364     0.83636
 DIPOLE           X         Y         Z       TOTAL
 POINT-CHG.    -1.596     2.051     1.702     3.106
 HYBRID         0.244     0.655    -0.211     0.731
 SUM           -1.352     2.706     1.490     3.372


          ATOMIC ORBITAL ELECTRON POPULATIONS

     Atom    s        px        py        pz   
    1  O   1.87625   1.31019   1.83734   1.29606
    2  C   1.16258   0.75320   0.95041   0.77801
    3  C   1.09283   1.09556   1.02887   1.11629
    4  C   1.16114   1.05241   0.89453   0.80013
    5  C   1.16469   0.99538   1.03846   0.70211
    6  C   1.08629   1.05077   1.03844   1.01714
    7  C   1.08881   1.16430   1.03246   0.95265
    8  C   1.07934   0.92099   1.07480   1.03388
    9  C   1.08211   1.15499   0.95495   1.06782
   10  H   0.82814
   11  H   0.76014
   12  H   0.79041
   13  H   0.79975
   14  H   0.80038
   15  H   0.83839
   16  H   0.80880
   17  H   0.82035
   18  H   0.81111
   19  H   0.83636


                    (SZ)    =    0.500000
                    (S**2)  =    0.753879


          ATOMIC ORBITAL SPIN POPULATIONS

    Atom   Total    s     px     py     pz   
         Atomic
    1  O  0.0367  0.001  0.005  0.029  0.001
    2  C  0.0236  0.000  0.002  0.021  0.001
    3  C  0.0071 -0.005 -0.004  0.010  0.006
    4  C  0.4143  0.008  0.024  0.141  0.242
    5  C  0.4070  0.007  0.005  0.048  0.346
    6  C -0.0042 -0.003 -0.007 -0.008  0.014
    7  C  0.0708  0.005  0.001  0.024  0.040
    8  C -0.0047 -0.001 -0.001 -0.002 -0.002
    9  C  0.0316  0.003  0.001  0.026  0.001
   10  H  0.0121  0.012
   11  H  0.0273  0.027
   12  H -0.0110 -0.011
   13  H -0.0099 -0.010
   14  H  0.0000  0.000
   15  H -0.0023 -0.002
   16  H  0.0021  0.002
   17  H  0.0006  0.001
   18  H -0.0002 -0.000
   19  H -0.0008 -0.001

 **********************
 *                    *
 * JOB ENDED NORMALLY *
 *                    *
 **********************



 TOTAL JOB TIME:             1.91 SECONDS

 == MOPAC DONE ==
