 *******************************************************************************
 **                                                                           **
 **                              MOPAC v23.2                                  **
 **                                                                           **
 *******************************************************************************
 **          Digital Object Identifier (DOI): 10.5281/zenodo.6511958          **
 **    Visit the DOI location for information on how to cite this program.    **
 *******************************************************************************

                              PM7 CALCULATION RESULTS

 *******************************************************************************
 *  CALCULATION DONE: (MAX THREADS = 40)             Fri Sep 19 21:29:07 2025  *
 *  PM7        - The PM7 Hamiltonian to be used
 *  1SCF       - DO 1 SCF AND THEN STOP 
 *  T=         - A TIME OF 172800.0 SECONDS REQUESTED
 *  DUMP=N     - RESTART FILE WRITTEN EVERY 7200.0 SECONDS REQUESTED
 *  RELSCF     - DEFAULT SCF CRITERION MULTIPLIED BY 0.0001
 *              (DEFAULT SCF CRITERION = 0.00010)
 *  GRADIENTS  - ALL GRADIENTS TO BE PRINTED
 *  DISP       - PRINT DISPERSION AND HYDROGEN BOND ENERGIES
 *******************************************************************************
PM7 1SCF GRADIENTS DISP RELSCF=0.0001
 Title: ASE calculation

   ATOM   CHEMICAL          X               Y               Z
  NUMBER   SYMBOL      (ANGSTROMS)     (ANGSTROMS)     (ANGSTROMS)

     1       C         -0.68608886  *  -1.67055097  *  -0.12295877  *
     2       C         -0.63382372  *  -0.23035753  *   0.41110094  *
     3       C         -1.89698454  *   0.01744241  *   1.27041077  *
     4       O         -1.94735342  *   1.34683065  *   1.74299475  *
     5       C          0.58710196  *  -0.09043338  *   1.27637914  *
     6       C          1.68112103  *   0.58391011  *   0.91228989  *
     7       C          1.81396542  *   1.30930860  *  -0.38664127  *
     8       C          0.75611904  *   0.86582061  *  -1.40680871  *
     9       C         -0.62355149  *   0.78551854  *  -0.74804040  *
    10       H         -0.73500404  *  -2.40247857  *   0.69017223  *
    11       H         -1.55241327  *  -1.82895913  *  -0.77279873  *
    12       H          0.21157704  *  -1.89849108  *  -0.71082885  *
    13       H         -2.82515455  *  -0.07267304  *   0.67742020  *
    14       H         -1.94857399  *  -0.66198768  *   2.13883739  *
    15       H         -1.08860135  *   1.60541114  *   2.13540065  *
    16       H          0.52901978  *  -0.60672241  *   2.23287776  *
    17       H          2.55048209  *   0.65343513  *   1.56498638  *
    18       H          2.82771792  *   1.15865230  *  -0.80991610  *
    19       H          1.72583530  *   2.40168909  *  -0.20227477  *
    20       H          1.03102748  *  -0.11756125  *  -1.83094732  *
    21       H          0.73102171  *   1.56921112  *  -2.25822702  *
    22       H         -1.39380115  *   0.52155410  *  -1.49402035  *
    23       H         -0.91275130  *   1.78577397  *  -0.36378422  *



          CARTESIAN COORDINATES 

    NO.       ATOM           X           Y           Z

     1         C         -0.6861     -1.6706     -0.1230
     2         C         -0.6338     -0.2304      0.4111
     3         C         -1.8970      0.0174      1.2704
     4         O         -1.9474      1.3468      1.7430
     5         C          0.5871     -0.0904      1.2764
     6         C          1.6811      0.5839      0.9123
     7         C          1.8140      1.3093     -0.3866
     8         C          0.7561      0.8658     -1.4068
     9         C         -0.6236      0.7855     -0.7480
    10         H         -0.7350     -2.4025      0.6902
    11         H         -1.5524     -1.8290     -0.7728
    12         H          0.2116     -1.8985     -0.7108
    13         H         -2.8252     -0.0727      0.6774
    14         H         -1.9486     -0.6620      2.1388
    15         H         -1.0886      1.6054      2.1354
    16         H          0.5290     -0.6067      2.2329
    17         H          2.5505      0.6534      1.5650
    18         H          2.8277      1.1587     -0.8099
    19         H          1.7258      2.4017     -0.2023
    20         H          1.0310     -0.1176     -1.8309
    21         H          0.7310      1.5692     -2.2582
    22         H         -1.3938      0.5216     -1.4940
    23         H         -0.9128      1.7858     -0.3638

 General Reference for PM7:
 "Optimization of Parameters for Semiempirical Methods VI: More Modifications to the 
 NDDO Approximations and Re-optimization of Parameters", J. J. P. Stewart, J. Mol. Mod., 1:32, 19 (2013)
 https://link.springer.com/article/10.1007/s00894-012-1667-x

           Empirical Formula: C8 H14 O  =    23 atoms



      MOLECULAR POINT GROUP   :   C1  


      RHF CALCULATION, NO. OF DOUBLY OCCUPIED LEVELS = 26

  SCF CRITERION =    0.1000E-07

 -------------------------------------------------------------------------------
 PM7 1SCF GRADIENTS DISP RELSCF=0.0001
 Title: ASE calculation



     1SCF WAS SPECIFIED, SO BFGS WAS NOT USED                 
     SCF FIELD WAS ACHIEVED                                   


                              PM7 CALCULATION
                                                       MOPAC v23.2 Linux
                                                       Fri Sep 19 21:29:07 2025




          FINAL HEAT OF FORMATION =        -55.26689 KCAL/MOL =    -231.23665 KJ/MOL

          TOTAL ENERGY            =     -33834.94668 KCAL/MOL = ELECTRONIC ENERGY + CORE-CORE REPULSION
          ENERGY OF ATOMS         =      33782.22825 KCAL/MOL
                              SUM =        -52.71844 KCAL/MOL
          DISPERSION ENERGY       =         -2.54845 KCAL/MOL
                              SUM =        -55.26689 KCAL/MOL = FINAL HEAT OF FORMATION



          TOTAL ENERGY            =      -1467.22216 EV
          ELECTRONIC ENERGY       =      -7930.01798 EV 
          CORE-CORE REPULSION     =       6462.79583 EV
          COSMO AREA              =        168.26 SQUARE ANGSTROMS
          COSMO VOLUME            =        176.60 CUBIC ANGSTROMS

          GRADIENT NORM           =          1.21753          =       0.25387 PER ATOM
          IONIZATION POTENTIAL    =          9.776345 EV
          HOMO LUMO ENERGIES (EV) =         -9.776  1.005
          NO. OF FILLED LEVELS    =         26
          MOLECULAR WEIGHT        =        126.1980         POINT GROUP:  C1  

          MOLECULAR DIMENSIONS (Angstroms)

            Atom       Atom       Distance
            H    18    H    13     5.97355
            H    16    H    21     4.67496
            H    15    H    12     4.48278


          SCF CALCULATIONS        =          1

          WALL-CLOCK TIME         =      0.508 SECONDS
          COMPUTATION TIME        =      0.784 SECONDS

          LARGEST ATOMIC GRADIENTS

          Atom     Label                     Cartesian Gradients           Cartesian Coordinates       |Gradient|
                                           X          Y          Z        X          Y          Z

            16       H                  -0.223      0.072      0.374    0.52902   -0.60672    2.23288      0.441
             4       O                   0.117      0.001     -0.397   -1.94735    1.34683    1.74299      0.414
            14       H                  -0.251      0.183      0.269   -1.94857   -0.66199    2.13884      0.411
            21       H                   0.039     -0.103      0.359    0.73102    1.56921   -2.25823      0.375
             5       C                   0.299     -0.110     -0.148    0.58710   -0.09043    1.27638      0.352
            20       H                  -0.131      0.311      0.006    1.03103   -0.11756   -1.83095      0.337
             6       C                   0.013     -0.193     -0.268    1.68112    0.58391    0.91229      0.331
            13       H                  -0.211     -0.214      0.082   -2.82515   -0.07267    0.67742      0.312
            22       H                  -0.186      0.155      0.045   -1.39380    0.52155   -1.49402      0.246
             7       C                   0.001      0.008     -0.231    1.81397    1.30931   -0.38664      0.231



       FINAL  POINT  AND  DERIVATIVES

   PARAMETER     ATOM    TYPE            VALUE        GRADIENT
      1          1  C    CARTESIAN X    -0.686089      0.038969  KCAL/ANGSTROM
      2          1  C    CARTESIAN Y    -1.670551      0.044635  KCAL/ANGSTROM
      3          1  C    CARTESIAN Z    -0.122959      0.045748  KCAL/ANGSTROM
      4          2  C    CARTESIAN X    -0.633824      0.154823  KCAL/ANGSTROM
      5          2  C    CARTESIAN Y    -0.230358      0.079754  KCAL/ANGSTROM
      6          2  C    CARTESIAN Z     0.411101     -0.137506  KCAL/ANGSTROM
      7          3  C    CARTESIAN X    -1.896985      0.031409  KCAL/ANGSTROM
      8          3  C    CARTESIAN Y     0.017442     -0.068115  KCAL/ANGSTROM
      9          3  C    CARTESIAN Z     1.270411     -0.094651  KCAL/ANGSTROM
     10          4  O    CARTESIAN X    -1.947353      0.117247  KCAL/ANGSTROM
     11          4  O    CARTESIAN Y     1.346831      0.000939  KCAL/ANGSTROM
     12          4  O    CARTESIAN Z     1.742995     -0.397414  KCAL/ANGSTROM
     13          5  C    CARTESIAN X     0.587102      0.299333  KCAL/ANGSTROM
     14          5  C    CARTESIAN Y    -0.090433     -0.110235  KCAL/ANGSTROM
     15          5  C    CARTESIAN Z     1.276379     -0.148040  KCAL/ANGSTROM
     16          6  C    CARTESIAN X     1.681121      0.013334  KCAL/ANGSTROM
     17          6  C    CARTESIAN Y     0.583910     -0.193313  KCAL/ANGSTROM
     18          6  C    CARTESIAN Z     0.912290     -0.267777  KCAL/ANGSTROM
     19          7  C    CARTESIAN X     1.813965      0.000773  KCAL/ANGSTROM
     20          7  C    CARTESIAN Y     1.309309      0.007759  KCAL/ANGSTROM
     21          7  C    CARTESIAN Z    -0.386641     -0.231070  KCAL/ANGSTROM
     22          8  C    CARTESIAN X     0.756119     -0.077110  KCAL/ANGSTROM
     23          8  C    CARTESIAN Y     0.865821      0.048893  KCAL/ANGSTROM
     24          8  C    CARTESIAN Z    -1.406809      0.054242  KCAL/ANGSTROM
     25          9  C    CARTESIAN X    -0.623551      0.009661  KCAL/ANGSTROM
     26          9  C    CARTESIAN Y     0.785519      0.060974  KCAL/ANGSTROM
     27          9  C    CARTESIAN Z    -0.748040     -0.128325  KCAL/ANGSTROM
     28         10  H    CARTESIAN X    -0.735004      0.008274  KCAL/ANGSTROM
     29         10  H    CARTESIAN Y    -2.402479     -0.078817  KCAL/ANGSTROM
     30         10  H    CARTESIAN Z     0.690172      0.030345  KCAL/ANGSTROM
     31         11  H    CARTESIAN X    -1.552413      0.164699  KCAL/ANGSTROM
     32         11  H    CARTESIAN Y    -1.828959     -0.072763  KCAL/ANGSTROM
     33         11  H    CARTESIAN Z    -0.772799     -0.057972  KCAL/ANGSTROM
     34         12  H    CARTESIAN X     0.211577      0.060540  KCAL/ANGSTROM
     35         12  H    CARTESIAN Y    -1.898491      0.127399  KCAL/ANGSTROM
     36         12  H    CARTESIAN Z    -0.710829     -0.005349  KCAL/ANGSTROM
     37         13  H    CARTESIAN X    -2.825155     -0.211469  KCAL/ANGSTROM
     38         13  H    CARTESIAN Y    -0.072673     -0.214455  KCAL/ANGSTROM
     39         13  H    CARTESIAN Z     0.677420      0.082085  KCAL/ANGSTROM
     40         14  H    CARTESIAN X    -1.948574     -0.250669  KCAL/ANGSTROM
     41         14  H    CARTESIAN Y    -0.661988      0.182512  KCAL/ANGSTROM
     42         14  H    CARTESIAN Z     2.138837      0.269106  KCAL/ANGSTROM
     43         15  H    CARTESIAN X    -1.088601      0.008578  KCAL/ANGSTROM
     44         15  H    CARTESIAN Y     1.605411     -0.086018  KCAL/ANGSTROM
     45         15  H    CARTESIAN Z     2.135401      0.088321  KCAL/ANGSTROM
     46         16  H    CARTESIAN X     0.529020     -0.222528  KCAL/ANGSTROM
     47         16  H    CARTESIAN Y    -0.606722      0.072481  KCAL/ANGSTROM
     48         16  H    CARTESIAN Z     2.232878      0.374179  KCAL/ANGSTROM
     49         17  H    CARTESIAN X     2.550482     -0.004339  KCAL/ANGSTROM
     50         17  H    CARTESIAN Y     0.653435      0.122870  KCAL/ANGSTROM
     51         17  H    CARTESIAN Z     1.564986      0.056476  KCAL/ANGSTROM
     52         18  H    CARTESIAN X     2.827718      0.002178  KCAL/ANGSTROM
     53         18  H    CARTESIAN Y     1.158652     -0.146401  KCAL/ANGSTROM
     54         18  H    CARTESIAN Z    -0.809916     -0.023586  KCAL/ANGSTROM
     55         19  H    CARTESIAN X     1.725835      0.122400  KCAL/ANGSTROM
     56         19  H    CARTESIAN Y     2.401689     -0.062301  KCAL/ANGSTROM
     57         19  H    CARTESIAN Z    -0.202275      0.031527  KCAL/ANGSTROM
     58         20  H    CARTESIAN X     1.031027     -0.130676  KCAL/ANGSTROM
     59         20  H    CARTESIAN Y    -0.117561      0.310905  KCAL/ANGSTROM
     60         20  H    CARTESIAN Z    -1.830947      0.005949  KCAL/ANGSTROM
     61         21  H    CARTESIAN X     0.731022      0.038538  KCAL/ANGSTROM
     62         21  H    CARTESIAN Y     1.569211     -0.103189  KCAL/ANGSTROM
     63         21  H    CARTESIAN Z    -2.258227      0.358970  KCAL/ANGSTROM
     64         22  H    CARTESIAN X    -1.393801     -0.185737  KCAL/ANGSTROM
     65         22  H    CARTESIAN Y     0.521554      0.155255  KCAL/ANGSTROM
     66         22  H    CARTESIAN Z    -1.494020      0.044749  KCAL/ANGSTROM
     67         23  H    CARTESIAN X    -0.912751      0.011771  KCAL/ANGSTROM
     68         23  H    CARTESIAN Y     1.785774     -0.078769  KCAL/ANGSTROM
     69         23  H    CARTESIAN Z    -0.363784      0.049993  KCAL/ANGSTROM




   ATOM   CHEMICAL          X               Y               Z
  NUMBER   SYMBOL      (ANGSTROMS)     (ANGSTROMS)     (ANGSTROMS)

     1       C         -0.68608886  *  -1.67055097  *  -0.12295877  *
     2       C         -0.63382372  *  -0.23035753  *   0.41110094  *
     3       C         -1.89698454  *   0.01744241  *   1.27041077  *
     4       O         -1.94735342  *   1.34683065  *   1.74299475  *
     5       C          0.58710196  *  -0.09043338  *   1.27637914  *
     6       C          1.68112103  *   0.58391011  *   0.91228989  *
     7       C          1.81396542  *   1.30930860  *  -0.38664127  *
     8       C          0.75611904  *   0.86582061  *  -1.40680871  *
     9       C         -0.62355149  *   0.78551854  *  -0.74804040  *
    10       H         -0.73500404  *  -2.40247857  *   0.69017223  *
    11       H         -1.55241327  *  -1.82895913  *  -0.77279873  *
    12       H          0.21157704  *  -1.89849108  *  -0.71082885  *
    13       H         -2.82515455  *  -0.07267304  *   0.67742020  *
    14       H         -1.94857399  *  -0.66198768  *   2.13883739  *
    15       H         -1.08860135  *   1.60541114  *   2.13540065  *
    16       H          0.52901978  *  -0.60672241  *   2.23287776  *
    17       H          2.55048209  *   0.65343513  *   1.56498638  *
    18       H          2.82771792  *   1.15865230  *  -0.80991610  *
    19       H          1.72583530  *   2.40168909  *  -0.20227477  *
    20       H          1.03102748  *  -0.11756125  *  -1.83094732  *
    21       H          0.73102171  *   1.56921112  *  -2.25822702  *
    22       H         -1.39380115  *   0.52155410  *  -1.49402035  *
    23       H         -0.91275130  *   1.78577397  *  -0.36378422  *

                             CARTESIAN COORDINATES

   1    C       -0.686088860    -1.670550966    -0.122958771
   2    C       -0.633823720    -0.230357528     0.411100939
   3    C       -1.896984542     0.017442415     1.270410767
   4    O       -1.947353417     1.346830652     1.742994751
   5    C        0.587101958    -0.090433379     1.276379139
   6    C        1.681121034     0.583910110     0.912289893
   7    C        1.813965425     1.309308599    -0.386641274
   8    C        0.756119037     0.865820606    -1.406808715
   9    C       -0.623551494     0.785518542    -0.748040402
  10    H       -0.735004037    -2.402478566     0.690172235
  11    H       -1.552413266    -1.828959132    -0.772798732
  12    H        0.211577038    -1.898491078    -0.710828849
  13    H       -2.825154554    -0.072673040     0.677420197
  14    H       -1.948573988    -0.661987680     2.138837393
  15    H       -1.088601348     1.605411141     2.135400647
  16    H        0.529019783    -0.606722406     2.232877758
  17    H        2.550482089     0.653435128     1.564986379
  18    H        2.827717923     1.158652304    -0.809916105
  19    H        1.725835303     2.401689095    -0.202274770
  20    H        1.031027481    -0.117561246    -1.830947317
  21    H        0.731021711     1.569211118    -2.258227016
  22    H       -1.393801146     0.521554098    -1.494020354
  23    H       -0.912751303     1.785773972    -0.363784221


           Empirical Formula: C8 H14 O  =    23 atoms



      MOLECULAR POINT GROUP   :   C1  


                  EIGENVALUES  
 -30.83706 -28.90073 -27.28022 -25.86344 -23.54912 -23.21639 -20.90925 -20.10495
 -17.53132 -17.10268 -16.24477 -15.46343 -15.07270 -14.82071 -14.28163 -13.62755
 -13.57348 -13.30029 -12.80364 -12.61940 -12.11365 -11.43513 -11.27493 -10.93822
 -10.35959  -9.77635   1.00476   3.06571   3.71313   3.82624   4.19109   4.25274
   4.46809   4.73149   5.02022   5.48470   5.61234   5.73038   5.73396   5.83859
   5.85218   5.91802   6.11612   6.14975   6.23946   6.45050   6.46962   6.58286
   6.79078   6.95055


              NET ATOMIC CHARGES AND DIPOLE CONTRIBUTIONS

  ATOM NO.   TYPE          CHARGE      No. of ELECS.   s-Pop       p-Pop       
    1          C          -0.456274        4.4563     1.05742     3.39886
    2          C           0.029712        3.9703     1.05956     2.91072
    3          C          -0.022749        4.0227     1.09375     2.92900
    4          O          -0.549000        6.5490     1.84929     4.69971
    5          C          -0.208433        4.2084     1.09295     3.11548
    6          C          -0.136687        4.1367     1.09071     3.04597
    7          C          -0.276108        4.2761     1.05366     3.22245
    8          C          -0.259133        4.2591     1.05715     3.20199
    9          C          -0.281567        4.2816     1.06283     3.21874
   10          H           0.145679        0.8543     0.85432
   11          H           0.146793        0.8532     0.85321
   12          H           0.154306        0.8457     0.84569
   13          H           0.141385        0.8586     0.85861
   14          H           0.116668        0.8833     0.88333
   15          H           0.316395        0.6836     0.68361
   16          H           0.142577        0.8574     0.85742
   17          H           0.138564        0.8614     0.86144
   18          H           0.142756        0.8572     0.85724
   19          H           0.150419        0.8496     0.84958
   20          H           0.137440        0.8626     0.86256
   21          H           0.132359        0.8676     0.86764
   22          H           0.136733        0.8633     0.86327
   23          H           0.158165        0.8418     0.84184
 DIPOLE           X         Y         Z       TOTAL
 POINT-CHG.     1.226    -1.284    -0.726     1.918
 HYBRID         0.333     0.180     0.143     0.405
 SUM            1.559    -1.105    -0.583     1.998


          ATOMIC ORBITAL ELECTRON POPULATIONS

     Atom    s        px        py        pz   
    1  C   1.05742   1.18164   1.05590   1.16131
    2  C   1.05956   0.96905   0.96335   0.97833
    3  C   1.09375   1.05116   0.82499   1.05286
    4  O   1.84929   1.48000   1.37898   1.84073
    5  C   1.09295   1.00491   1.04328   1.06730
    6  C   1.09071   1.03863   0.99105   1.01629
    7  C   1.05366   1.09222   1.11281   1.01741
    8  C   1.05715   1.00139   1.14746   1.05314
    9  C   1.06283   1.04037   1.11492   1.06344
   10  H   0.85432
   11  H   0.85321
   12  H   0.84569
   13  H   0.85861
   14  H   0.88333
   15  H   0.68361
   16  H   0.85742
   17  H   0.86144
   18  H   0.85724
   19  H   0.84958
   20  H   0.86256
   21  H   0.86764
   22  H   0.86327
   23  H   0.84184

 **********************
 *                    *
 * JOB ENDED NORMALLY *
 *                    *
 **********************



 TOTAL JOB TIME:             0.93 SECONDS

 == MOPAC DONE ==
