 *******************************************************************************
 **                                                                           **
 **                              MOPAC v23.2                                  **
 **                                                                           **
 *******************************************************************************
 **          Digital Object Identifier (DOI): 10.5281/zenodo.6511958          **
 **    Visit the DOI location for information on how to cite this program.    **
 *******************************************************************************

                              PM7 CALCULATION RESULTS

 *******************************************************************************
 *  CALCULATION DONE: (MAX THREADS = 40)             Fri Sep 19 21:45:07 2025  *
 *  PM7        - The PM7 Hamiltonian to be used
 *
 *
 *
 *                 CHARGE ON SYSTEM = +1
 *
 *
 *
 *  EPS=37.5   - USE ANDREAS KLAMT'S COSMO IMPLICIT SOLVATION MODEL
 *  1SCF       - DO 1 SCF AND THEN STOP 
 *  T=         - A TIME OF 172800.0 SECONDS REQUESTED
 *  DUMP=N     - RESTART FILE WRITTEN EVERY 7200.0 SECONDS REQUESTED
 *  RELSCF     - DEFAULT SCF CRITERION MULTIPLIED BY 0.0001
 *              (DEFAULT SCF CRITERION = 0.00010)
 *  GRADIENTS  - ALL GRADIENTS TO BE PRINTED
 *  DISP       - PRINT DISPERSION AND HYDROGEN BOND ENERGIES
 *******************************************************************************
PM7 1SCF GRADIENTS EPS=37.5 DISP RELSCF=0.0001 CHARGE=1
 Title: ASE calculation

   ATOM   CHEMICAL          X               Y               Z
  NUMBER   SYMBOL      (ANGSTROMS)     (ANGSTROMS)     (ANGSTROMS)

     1       C          2.78394493  *  -1.94659397  *   0.64813817  *
     2       C          1.66983095  *  -1.13755639  *   0.36914638  *
     3       C          0.63107779  *  -0.40435099  *   0.10309596  *
     4       C         -0.44316603  *   0.38750953  *  -0.17426617  *
     5       O         -0.28483235  *   1.68952941  *  -0.10743110  *
     6       C         -1.55091845  *   2.37579727  *  -0.45100183  *
     7       C         -2.51339143  *   1.30375740  *  -0.72471130  *
     8       C         -1.84368386  *  -0.01326257  *  -0.57510461  *
     9       C         -2.50319303  *  -0.90319213  *   0.47206979  *
    10       H          2.52625285  *  -3.02246571  *   0.80243337  *
    11       H          3.54455042  *  -1.93154126  *  -0.17478489  *
    12       H          3.34339900  *  -1.62237594  *   1.56216594  *
    13       H         -1.77747763  *   3.00842395  *   0.43395209  *
    14       H         -1.29314518  *   3.02246571  *  -1.31756539  *
    15       H         -3.54455042  *   1.43863747  *  -0.97253569  *
    16       H         -1.82184366  *  -0.56698800  *  -1.56216594  *
    17       H         -2.61701064  *  -0.40204434  *   1.44339056  *
    18       H         -3.51796393  *  -1.20103029  *   0.15552683  *
    19       H         -1.94157807  *  -1.83271996  *   0.64067383  *



          CARTESIAN COORDINATES 

    NO.       ATOM           X           Y           Z

     1         C          2.7839     -1.9466      0.6481
     2         C          1.6698     -1.1376      0.3691
     3         C          0.6311     -0.4044      0.1031
     4         C         -0.4432      0.3875     -0.1743
     5         O         -0.2848      1.6895     -0.1074
     6         C         -1.5509      2.3758     -0.4510
     7         C         -2.5134      1.3038     -0.7247
     8         C         -1.8437     -0.0133     -0.5751
     9         C         -2.5032     -0.9032      0.4721
    10         H          2.5263     -3.0225      0.8024
    11         H          3.5446     -1.9315     -0.1748
    12         H          3.3434     -1.6224      1.5622
    13         H         -1.7775      3.0084      0.4340
    14         H         -1.2931      3.0225     -1.3176
    15         H         -3.5446      1.4386     -0.9725
    16         H         -1.8218     -0.5670     -1.5622
    17         H         -2.6170     -0.4020      1.4434
    18         H         -3.5180     -1.2010      0.1555
    19         H         -1.9416     -1.8327      0.6407

 General Reference for PM7:
 "Optimization of Parameters for Semiempirical Methods VI: More Modifications to the 
 NDDO Approximations and Re-optimization of Parameters", J. J. P. Stewart, J. Mol. Mod., 1:32, 19 (2013)
 https://link.springer.com/article/10.1007/s00894-012-1667-x

           Empirical Formula: C8 H10 O  =    19 atoms



      MOLECULAR POINT GROUP   :   C1  


          UHF CALCULATION, NO. OF ALPHA ELECTRONS =   24
                           NO. OF BETA  ELECTRONS =   23
  SCF CRITERION =    0.1000E-07

 -------------------------------------------------------------------------------
 PM7 1SCF GRADIENTS EPS=37.5 DISP RELSCF=0.0001 CHARGE=1
 Title: ASE calculation



     1SCF WAS SPECIFIED, SO BFGS WAS NOT USED                 
     SCF FIELD WAS ACHIEVED                                   


                              PM7 CALCULATION
                                                       MOPAC v23.2 Linux
                                                       Fri Sep 19 21:45:09 2025




          FINAL HEAT OF FORMATION =        147.52298 KCAL/MOL =     617.23617 KJ/MOL

          TOTAL ENERGY            =     -32405.92438 KCAL/MOL = ELECTRONIC ENERGY + CORE-CORE REPULSION + SOLVATION ENERGY
          ENERGY OF ATOMS         =      32552.68886 KCAL/MOL
                              SUM =        146.76448 KCAL/MOL
          DISPERSION ENERGY       =         -1.73568 KCAL/MOL
                              SUM =        145.02880 KCAL/MOL = FINAL HEAT OF FORMATION

     *    WARNING - An energy term is incorrect or missing!

     *    FINAL HEAT OF FORMATION     =    147.52299 KCAL/MOL
     *    SUM OF CONTRIBUTIONS TO HoF =    145.02880 KCAL/MOL
     *                     DIFFERENCE =      2.49419 KCAL/MOL

          VAN DER WAALS AREA      =        174.96 SQUARE ANGSTROMS


          TOTAL ENERGY            =      -1405.25388 EV
          ELECTRONIC ENERGY       =      -1968.66497 EV 
          CORE-CORE REPULSION     =        563.41108 EV

          DIELECTRIC ENERGY       =         -1.98687 EV
          COSMO AREA              =        174.96 SQUARE ANGSTROMS
          COSMO VOLUME            =        165.35 CUBIC ANGSTROMS

          GRADIENT NORM           =         12.77927          =       2.93177 PER ATOM
          IONIZATION POTENTIAL    =          9.846504 EV
          ALPHA SOMO LUMO (EV)    =         -9.847 -1.995
          BETA  SOMO LUMO (EV)    =        -11.319 -1.988
          NO. OF ALPHA ELECTRONS  =         24
          NO. OF BETA  ELECTRONS  =         23
          MOLECULAR WEIGHT        =        122.1664         POINT GROUP:  C1  

          MOLECULAR DIMENSIONS (Angstroms)

            Atom       Atom       Distance
            H    15    H    12     7.95226
            H    18    H    14     4.99294
            H    11    H    13     3.34496


          SCF CALCULATIONS        =          2

          WALL-CLOCK TIME         =      2.297 SECONDS
          COMPUTATION TIME        =      0.814 SECONDS

          LARGEST ATOMIC GRADIENTS

          Atom     Label                     Cartesian Gradients           Cartesian Coordinates       |Gradient|
                                           X          Y          Z        X          Y          Z

             3       C                   5.181     -4.616      1.114    0.63108   -0.40435    0.10310      7.028
             4       C                  -1.796      6.061     -0.114   -0.44317    0.38751   -0.17427      6.323
             2       C                  -4.443      4.034     -0.984    1.66983   -1.13756    0.36915      6.081
             1       C                   2.194     -1.608      0.158    2.78394   -1.94659    0.64814      2.724
             8       C                  -0.107     -1.021     -2.396   -1.84368   -0.01326   -0.57510      2.607
             9       C                   2.243      0.676     -0.042   -2.50319   -0.90319    0.47207      2.343
             5       O                   0.573     -2.261      0.181   -0.28483    1.68953   -0.10743      2.340
            15       H                  -1.492     -0.130     -0.093   -3.54455    1.43864   -0.97254      1.501
            16       H                  -1.066     -0.227      0.924   -1.82184   -0.56699   -1.56217      1.429
            18       H                  -1.233     -0.611      0.353   -3.51796   -1.20103    0.15553      1.421



       FINAL  POINT  AND  DERIVATIVES

   PARAMETER     ATOM    TYPE            VALUE        GRADIENT
      1          1  C    CARTESIAN X     2.783945      2.193811  KCAL/ANGSTROM
      2          1  C    CARTESIAN Y    -1.946594     -1.607669  KCAL/ANGSTROM
      3          1  C    CARTESIAN Z     0.648138      0.158328  KCAL/ANGSTROM
      4          2  C    CARTESIAN X     1.669831     -4.442945  KCAL/ANGSTROM
      5          2  C    CARTESIAN Y    -1.137556      4.033679  KCAL/ANGSTROM
      6          2  C    CARTESIAN Z     0.369146     -0.983808  KCAL/ANGSTROM
      7          3  C    CARTESIAN X     0.631078      5.181017  KCAL/ANGSTROM
      8          3  C    CARTESIAN Y    -0.404351     -4.615912  KCAL/ANGSTROM
      9          3  C    CARTESIAN Z     0.103096      1.113676  KCAL/ANGSTROM
     10          4  C    CARTESIAN X    -0.443166     -1.796273  KCAL/ANGSTROM
     11          4  C    CARTESIAN Y     0.387510      6.061304  KCAL/ANGSTROM
     12          4  C    CARTESIAN Z    -0.174266     -0.113848  KCAL/ANGSTROM
     13          5  O    CARTESIAN X    -0.284832      0.573417  KCAL/ANGSTROM
     14          5  O    CARTESIAN Y     1.689529     -2.261312  KCAL/ANGSTROM
     15          5  O    CARTESIAN Z    -0.107431      0.180934  KCAL/ANGSTROM
     16          6  C    CARTESIAN X    -1.550918      0.130517  KCAL/ANGSTROM
     17          6  C    CARTESIAN Y     2.375797      0.654606  KCAL/ANGSTROM
     18          6  C    CARTESIAN Z    -0.451002      0.009287  KCAL/ANGSTROM
     19          7  C    CARTESIAN X    -2.513391      0.445682  KCAL/ANGSTROM
     20          7  C    CARTESIAN Y     1.303757      0.356974  KCAL/ANGSTROM
     21          7  C    CARTESIAN Z    -0.724711     -0.165158  KCAL/ANGSTROM
     22          8  C    CARTESIAN X    -1.843684     -0.107082  KCAL/ANGSTROM
     23          8  C    CARTESIAN Y    -0.013263     -1.021182  KCAL/ANGSTROM
     24          8  C    CARTESIAN Z    -0.575105     -2.395783  KCAL/ANGSTROM
     25          9  C    CARTESIAN X    -2.503193      2.243397  KCAL/ANGSTROM
     26          9  C    CARTESIAN Y    -0.903192      0.676311  KCAL/ANGSTROM
     27          9  C    CARTESIAN Z     0.472070     -0.041755  KCAL/ANGSTROM
     28         10  H    CARTESIAN X     2.526253      0.083326  KCAL/ANGSTROM
     29         10  H    CARTESIAN Y    -3.022466     -0.747166  KCAL/ANGSTROM
     30         10  H    CARTESIAN Z     0.802433      0.119737  KCAL/ANGSTROM
     31         11  H    CARTESIAN X     3.544550      0.558417  KCAL/ANGSTROM
     32         11  H    CARTESIAN Y    -1.931541     -0.156735  KCAL/ANGSTROM
     33         11  H    CARTESIAN Z    -0.174785     -0.054466  KCAL/ANGSTROM
     34         12  H    CARTESIAN X     3.343399      0.643662  KCAL/ANGSTROM
     35         12  H    CARTESIAN Y    -1.622376      0.027827  KCAL/ANGSTROM
     36         12  H    CARTESIAN Z     1.562166      0.549270  KCAL/ANGSTROM
     37         13  H    CARTESIAN X    -1.777478     -0.194289  KCAL/ANGSTROM
     38         13  H    CARTESIAN Y     3.008424      0.240112  KCAL/ANGSTROM
     39         13  H    CARTESIAN Z     0.433952      0.051465  KCAL/ANGSTROM
     40         14  H    CARTESIAN X    -1.293145      0.298292  KCAL/ANGSTROM
     41         14  H    CARTESIAN Y     3.022466      0.366031  KCAL/ANGSTROM
     42         14  H    CARTESIAN Z    -1.317565      0.021114  KCAL/ANGSTROM
     43         15  H    CARTESIAN X    -3.544550     -1.492199  KCAL/ANGSTROM
     44         15  H    CARTESIAN Y     1.438637     -0.130309  KCAL/ANGSTROM
     45         15  H    CARTESIAN Z    -0.972536     -0.093345  KCAL/ANGSTROM
     46         16  H    CARTESIAN X    -1.821844     -1.066308  KCAL/ANGSTROM
     47         16  H    CARTESIAN Y    -0.566988     -0.226783  KCAL/ANGSTROM
     48         16  H    CARTESIAN Z    -1.562166      0.924161  KCAL/ANGSTROM
     49         17  H    CARTESIAN X    -2.617011     -1.163198  KCAL/ANGSTROM
     50         17  H    CARTESIAN Y    -0.402044     -0.465119  KCAL/ANGSTROM
     51         17  H    CARTESIAN Z     1.443391      0.109891  KCAL/ANGSTROM
     52         18  H    CARTESIAN X    -3.517964     -1.233126  KCAL/ANGSTROM
     53         18  H    CARTESIAN Y    -1.201030     -0.611076  KCAL/ANGSTROM
     54         18  H    CARTESIAN Z     0.155527      0.353301  KCAL/ANGSTROM
     55         19  H    CARTESIAN X    -1.941578     -0.856122  KCAL/ANGSTROM
     56         19  H    CARTESIAN Y    -1.832720     -0.573585  KCAL/ANGSTROM
     57         19  H    CARTESIAN Z     0.640674      0.256994  KCAL/ANGSTROM




   ATOM   CHEMICAL          X               Y               Z
  NUMBER   SYMBOL      (ANGSTROMS)     (ANGSTROMS)     (ANGSTROMS)

     1       C          2.78394493  *  -1.94659397  *   0.64813817  *
     2       C          1.66983095  *  -1.13755639  *   0.36914638  *
     3       C          0.63107779  *  -0.40435099  *   0.10309596  *
     4       C         -0.44316603  *   0.38750953  *  -0.17426617  *
     5       O         -0.28483235  *   1.68952941  *  -0.10743110  *
     6       C         -1.55091845  *   2.37579727  *  -0.45100183  *
     7       C         -2.51339143  *   1.30375740  *  -0.72471130  *
     8       C         -1.84368386  *  -0.01326257  *  -0.57510461  *
     9       C         -2.50319303  *  -0.90319213  *   0.47206979  *
    10       H          2.52625285  *  -3.02246571  *   0.80243337  *
    11       H          3.54455042  *  -1.93154126  *  -0.17478489  *
    12       H          3.34339900  *  -1.62237594  *   1.56216594  *
    13       H         -1.77747763  *   3.00842395  *   0.43395209  *
    14       H         -1.29314518  *   3.02246571  *  -1.31756539  *
    15       H         -3.54455042  *   1.43863747  *  -0.97253569  *
    16       H         -1.82184366  *  -0.56698800  *  -1.56216594  *
    17       H         -2.61701064  *  -0.40204434  *   1.44339056  *
    18       H         -3.51796393  *  -1.20103029  *   0.15552683  *
    19       H         -1.94157807  *  -1.83271996  *   0.64067383  *

                             CARTESIAN COORDINATES

   1    C        2.783944930    -1.946593969     0.648138171
   2    C        1.669830947    -1.137556387     0.369146379
   3    C        0.631077788    -0.404350990     0.103095959
   4    C       -0.443166031     0.387509535    -0.174266167
   5    O       -0.284832352     1.689529406    -0.107431100
   6    C       -1.550918446     2.375797275    -0.451001833
   7    C       -2.513391435     1.303757400    -0.724711303
   8    C       -1.843683864    -0.013262574    -0.575104606
   9    C       -2.503193032    -0.903192130     0.472069786
  10    H        2.526252854    -3.022465715     0.802433366
  11    H        3.544550424    -1.931541258    -0.174784892
  12    H        3.343399003    -1.622375937     1.562165940
  13    H       -1.777477626     3.008423946     0.433952094
  14    H       -1.293145175     3.022465715    -1.317565390
  15    H       -3.544550424     1.438637471    -0.972535694
  16    H       -1.821843661    -0.566988004    -1.562165940
  17    H       -2.617010642    -0.402044341     1.443390565
  18    H       -3.517963929    -1.201030286     0.155526829
  19    H       -1.941578072    -1.832719961     0.640673835


           Empirical Formula: C8 H10 O  =    19 atoms



      MOLECULAR POINT GROUP   :   C1  


          ALPHA EIGENVALUES  
 -33.56129 -29.49086 -28.40832 -27.57220 -25.48678 -24.09650 -22.04456 -20.99025
 -19.00534 -17.61771 -16.94315 -16.32487 -15.57901 -15.37799 -15.27078 -15.15468
 -14.46012 -14.18230 -13.92170 -13.16953 -12.85234 -11.48942 -11.32243  -9.84650
  -1.99473  -0.55403   0.69134   0.77210   1.82101   2.47747   2.85274   3.37855
   3.46056   3.55138   3.89438   4.70103   4.71170   4.76341   4.78326   4.86254
   5.09299   5.30968   5.37573   5.60200   5.96973   6.45051


           BETA EIGENVALUES 
 -33.52707 -29.41795 -28.39975 -27.50326 -25.43623 -24.08071 -21.92811 -20.82794
 -18.94348 -17.46800 -16.89194 -16.27041 -15.52282 -15.35484 -15.20037 -15.11378
 -14.29726 -14.09841 -13.65523 -13.12488 -12.75423 -11.46652 -11.31882  -1.98845
  -0.55715  -0.27027   0.68273   0.77501   1.82527   2.58624   2.87306   3.44556
   3.62346   3.77773   4.01874   4.71133   4.76388   4.78323   4.81080   4.92522
   5.15802   5.31972   5.38351   5.80805   5.96963   6.45420


              NET ATOMIC CHARGES AND DIPOLE CONTRIBUTIONS

  ATOM NO.   TYPE          CHARGE      No. of ELECS.   s-Pop       p-Pop       
    1          C          -0.485844        4.4858     1.04478     3.44106
    2          C           0.423294        3.5767     1.16017     2.41654
    3          C          -0.454780        4.4548     1.04992     3.40486
    4          C           0.540317        3.4597     1.13777     2.32191
    5          O          -0.218292        6.2183     1.87351     4.34478
    6          C          -0.059603        4.0596     1.11304     2.94656
    7          C          -0.218018        4.2180     1.12405     3.09397
    8          C          -0.167789        4.1678     1.06857     3.09922
    9          C          -0.433664        4.4337     1.05287     3.38080
   10          H           0.232167        0.7678     0.76783
   11          H           0.243900        0.7561     0.75610
   12          H           0.239128        0.7609     0.76087
   13          H           0.202694        0.7973     0.79731
   14          H           0.203754        0.7962     0.79625
   15          H           0.197675        0.8023     0.80232
   16          H           0.233509        0.7665     0.76649
   17          H           0.170962        0.8290     0.82904
   18          H           0.181184        0.8188     0.81882
   19          H           0.169408        0.8306     0.83059
 DIPOLE           X         Y         Z       TOTAL
 POINT-CHG.     2.299    -2.333     0.010     3.275
 HYBRID         0.438     0.301     0.097     0.540
 SUM            2.737    -2.032     0.107     3.411


          ATOMIC ORBITAL ELECTRON POPULATIONS

     Atom    s        px        py        pz   
    1  C   1.04478   1.07043   1.14962   1.22102
    2  C   1.16017   0.88499   0.87197   0.65957
    3  C   1.04992   1.05401   1.12113   1.22972
    4  C   1.13777   0.93339   0.80091   0.58761
    5  O   1.87351   1.42794   1.25257   1.66427
    6  C   1.11304   0.79406   0.99389   1.15862
    7  C   1.12405   1.08285   0.94899   1.06213
    8  C   1.06857   0.93296   1.04689   1.11937
    9  C   1.05287   1.16490   1.12017   1.09572
   10  H   0.76783
   11  H   0.75610
   12  H   0.76087
   13  H   0.79731
   14  H   0.79625
   15  H   0.80232
   16  H   0.76649
   17  H   0.82904
   18  H   0.81882
   19  H   0.83059


                    (SZ)    =    0.500000
                    (S**2)  =    0.753587


          ATOMIC ORBITAL SPIN POPULATIONS

    Atom   Total    s     px     py     pz   
         Atomic
    1  C  0.0000  0.000  0.000  0.000 -0.000
    2  C -0.0019 -0.000 -0.000 -0.000 -0.001
    3  C  0.0007 -0.000  0.000  0.000  0.000
    4  C  0.0001  0.000  0.001 -0.000 -0.001
    5  O  0.0020 -0.000  0.001  0.000  0.001
    6  C -0.0414 -0.007 -0.012 -0.018 -0.004
    7  C  1.0055  0.026  0.082  0.034  0.863
    8  C -0.0440 -0.006 -0.008 -0.024 -0.006
    9  C  0.0288  0.005  0.003  0.010  0.010
   10  H -0.0000 -0.000
   11  H -0.0001 -0.000
   12  H -0.0001 -0.000
   13  H  0.0276  0.028
   14  H  0.0280  0.028
   15  H -0.0269 -0.027
   16  H  0.0241  0.024
   17  H -0.0011 -0.001
   18  H -0.0008 -0.001
   19  H -0.0005 -0.001

 **********************
 *                    *
 * JOB ENDED NORMALLY *
 *                    *
 **********************



 TOTAL JOB TIME:             2.78 SECONDS

 == MOPAC DONE ==
