 *******************************************************************************
 **                                                                           **
 **                              MOPAC v23.2                                  **
 **                                                                           **
 *******************************************************************************
 **          Digital Object Identifier (DOI): 10.5281/zenodo.6511958          **
 **    Visit the DOI location for information on how to cite this program.    **
 *******************************************************************************

                              PM7 CALCULATION RESULTS

 *******************************************************************************
 *  CALCULATION DONE: (MAX THREADS = 40)             Fri Sep 19 22:06:43 2025  *
 *  PM7        - The PM7 Hamiltonian to be used
 *  EPS=37.5   - USE ANDREAS KLAMT'S COSMO IMPLICIT SOLVATION MODEL
 *  1SCF       - DO 1 SCF AND THEN STOP 
 *  T=         - A TIME OF 172800.0 SECONDS REQUESTED
 *  DUMP=N     - RESTART FILE WRITTEN EVERY 7200.0 SECONDS REQUESTED
 *  RELSCF     - DEFAULT SCF CRITERION MULTIPLIED BY 0.0001
 *              (DEFAULT SCF CRITERION = 0.00010)
 *  GRADIENTS  - ALL GRADIENTS TO BE PRINTED
 *  DISP       - PRINT DISPERSION AND HYDROGEN BOND ENERGIES
 *******************************************************************************
PM7 1SCF GRADIENTS EPS=37.5 DISP RELSCF=0.0001
 Title: ASE calculation

   ATOM   CHEMICAL          X               Y               Z
  NUMBER   SYMBOL      (ANGSTROMS)     (ANGSTROMS)     (ANGSTROMS)

     1       O         -2.38572753  *  -0.73360476  *   1.29681280  *
     2       C         -1.31788603  *  -1.55328213  *   0.85423747  *
     3       C         -0.25400425  *  -0.76368760  *   0.19843070  *
     4       C          0.68621402  *   0.26188268  *   0.92190896  *
     5       C          0.35699024  *   1.61219010  *   0.27345627  *
     6       C          0.04455150  *   1.26713546  *  -1.21014379  *
     7       C         -0.20305019  *  -0.23570694  *  -1.22948045  *
     8       C          0.90935628  *  -1.15928885  *  -0.71684999  *
     9       C          1.90836626  *  -0.39198669  *   0.16794082  *
    10       H         -2.56563327  *  -0.02714836  *   0.64505453  *
    11       H         -1.74716417  *  -2.32583490  *   0.18513046  *
    12       H         -0.97279401  *  -2.03438648  *   1.79347171  *
    13       H          0.71102128  *   0.24461971  *   2.00641487  *
    14       H         -0.51735728  *   2.07520424  *   0.75955905  *
    15       H          1.18823785  *   2.32583490  *   0.36330584  *
    16       H         -0.83375084  *   1.82255827  *  -1.57337491  *
    17       H          0.88483858  *   1.53990094  *  -1.86973368  *
    18       H         -0.86399032  *  -0.60301923  *  -2.00641487  *
    19       H          1.14891954  *  -2.09629187  *  -1.16992722  *
    20       H          2.56563327  *   0.30478086  *  -0.35150038  *
    21       H          2.51732100  *  -1.04265512  *   0.79918992  *



          CARTESIAN COORDINATES 

    NO.       ATOM           X           Y           Z

     1         O         -2.3857     -0.7336      1.2968
     2         C         -1.3179     -1.5533      0.8542
     3         C         -0.2540     -0.7637      0.1984
     4         C          0.6862      0.2619      0.9219
     5         C          0.3570      1.6122      0.2735
     6         C          0.0446      1.2671     -1.2101
     7         C         -0.2031     -0.2357     -1.2295
     8         C          0.9094     -1.1593     -0.7168
     9         C          1.9084     -0.3920      0.1679
    10         H         -2.5656     -0.0271      0.6451
    11         H         -1.7472     -2.3258      0.1851
    12         H         -0.9728     -2.0344      1.7935
    13         H          0.7110      0.2446      2.0064
    14         H         -0.5174      2.0752      0.7596
    15         H          1.1882      2.3258      0.3633
    16         H         -0.8338      1.8226     -1.5734
    17         H          0.8848      1.5399     -1.8697
    18         H         -0.8640     -0.6030     -2.0064
    19         H          1.1489     -2.0963     -1.1699
    20         H          2.5656      0.3048     -0.3515
    21         H          2.5173     -1.0427      0.7992

 General Reference for PM7:
 "Optimization of Parameters for Semiempirical Methods VI: More Modifications to the 
 NDDO Approximations and Re-optimization of Parameters", J. J. P. Stewart, J. Mol. Mod., 1:32, 19 (2013)
 https://link.springer.com/article/10.1007/s00894-012-1667-x

           Empirical Formula: C8 H12 O  =    21 atoms



      MOLECULAR POINT GROUP   :   C1  


      RHF CALCULATION, NO. OF DOUBLY OCCUPIED LEVELS = 25

  SCF CRITERION =    0.1000E-07

 -------------------------------------------------------------------------------
 PM7 1SCF GRADIENTS EPS=37.5 DISP RELSCF=0.0001
 Title: ASE calculation



     1SCF WAS SPECIFIED, SO BFGS WAS NOT USED                 
     SCF FIELD WAS ACHIEVED                                   


                              PM7 CALCULATION
                                                       MOPAC v23.2 Linux
                                                       Fri Sep 19 22:06:43 2025




          FINAL HEAT OF FORMATION =         -9.50330 KCAL/MOL =     -39.76182 KJ/MOL

          TOTAL ENERGY            =     -33175.02272 KCAL/MOL = ELECTRONIC ENERGY + CORE-CORE REPULSION + SOLVATION ENERGY
          ENERGY OF ATOMS         =      33167.45855 KCAL/MOL
                              SUM =         -7.56417 KCAL/MOL
          DISPERSION ENERGY       =         -1.93913 KCAL/MOL
                              SUM =         -9.50330 KCAL/MOL = FINAL HEAT OF FORMATION

          VAN DER WAALS AREA      =        160.77 SQUARE ANGSTROMS


          TOTAL ENERGY            =      -1438.60514 EV
          ELECTRONIC ENERGY       =      -2423.98805 EV 
          CORE-CORE REPULSION     =        985.38291 EV

          DIELECTRIC ENERGY       =         -0.26468 EV
          COSMO AREA              =        160.77 SQUARE ANGSTROMS
          COSMO VOLUME            =        165.47 CUBIC ANGSTROMS

          GRADIENT NORM           =          7.03141          =       1.53438 PER ATOM
          IONIZATION POTENTIAL    =         10.273928 EV
          HOMO LUMO ENERGIES (EV) =        -10.274  1.842
          NO. OF FILLED LEVELS    =         25
          MOLECULAR WEIGHT        =        124.1822         POINT GROUP:  C1  

          MOLECULAR DIMENSIONS (Angstroms)

            Atom       Atom       Distance
            H    15    H    11     5.50330
            H    21    H    16     4.97567
            O     1    H    19     3.96928


          SCF CALCULATIONS        =          2

          WALL-CLOCK TIME         =      0.195 SECONDS
          COMPUTATION TIME        =      3.860 SECONDS

          LARGEST ATOMIC GRADIENTS

          Atom     Label                     Cartesian Gradients           Cartesian Coordinates       |Gradient|
                                           X          Y          Z        X          Y          Z

             2       C                  -3.478      2.198     -0.596   -1.31789   -1.55328    0.85424      4.157
            10       H                   1.175     -3.345      1.804   -2.56563   -0.02715    0.64505      3.978
             3       C                   1.434     -0.824     -0.425   -0.25400   -0.76369    0.19843      1.707
             1       O                   1.200      0.326     -0.549   -2.38573   -0.73360    1.29681      1.359
             9       C                   1.143      0.352     -0.062    1.90837   -0.39199    0.16794      1.197
            19       H                   0.184      1.125      0.306    1.14892   -2.09629   -1.16993      1.180
             8       C                   0.267     -1.074     -0.116    0.90936   -1.15929   -0.71685      1.113
             7       C                  -1.011      0.033     -0.458   -0.20305   -0.23571   -1.22948      1.111
            12       H                  -0.694      0.863      0.009   -0.97279   -2.03439    1.79347      1.107
             6       C                  -0.400      0.749     -0.588    0.04455    1.26714   -1.21014      1.033



       FINAL  POINT  AND  DERIVATIVES

   PARAMETER     ATOM    TYPE            VALUE        GRADIENT
      1          1  O    CARTESIAN X    -2.385728      1.200127  KCAL/ANGSTROM
      2          1  O    CARTESIAN Y    -0.733605      0.325750  KCAL/ANGSTROM
      3          1  O    CARTESIAN Z     1.296813     -0.548610  KCAL/ANGSTROM
      4          2  C    CARTESIAN X    -1.317886     -3.478324  KCAL/ANGSTROM
      5          2  C    CARTESIAN Y    -1.553282      2.197732  KCAL/ANGSTROM
      6          2  C    CARTESIAN Z     0.854237     -0.595676  KCAL/ANGSTROM
      7          3  C    CARTESIAN X    -0.254004      1.433881  KCAL/ANGSTROM
      8          3  C    CARTESIAN Y    -0.763688     -0.823753  KCAL/ANGSTROM
      9          3  C    CARTESIAN Z     0.198431     -0.425130  KCAL/ANGSTROM
     10          4  C    CARTESIAN X     0.686214      0.016307  KCAL/ANGSTROM
     11          4  C    CARTESIAN Y     0.261883     -0.099659  KCAL/ANGSTROM
     12          4  C    CARTESIAN Z     0.921909      0.309336  KCAL/ANGSTROM
     13          5  C    CARTESIAN X     0.356990      0.205668  KCAL/ANGSTROM
     14          5  C    CARTESIAN Y     1.612190      0.670043  KCAL/ANGSTROM
     15          5  C    CARTESIAN Z     0.273456     -0.078774  KCAL/ANGSTROM
     16          6  C    CARTESIAN X     0.044551     -0.399828  KCAL/ANGSTROM
     17          6  C    CARTESIAN Y     1.267135      0.748558  KCAL/ANGSTROM
     18          6  C    CARTESIAN Z    -1.210144     -0.588332  KCAL/ANGSTROM
     19          7  C    CARTESIAN X    -0.203050     -1.011353  KCAL/ANGSTROM
     20          7  C    CARTESIAN Y    -0.235707      0.032914  KCAL/ANGSTROM
     21          7  C    CARTESIAN Z    -1.229480     -0.457631  KCAL/ANGSTROM
     22          8  C    CARTESIAN X     0.909356      0.267201  KCAL/ANGSTROM
     23          8  C    CARTESIAN Y    -1.159289     -1.073734  KCAL/ANGSTROM
     24          8  C    CARTESIAN Z    -0.716850     -0.115624  KCAL/ANGSTROM
     25          9  C    CARTESIAN X     1.908366      1.142729  KCAL/ANGSTROM
     26          9  C    CARTESIAN Y    -0.391987      0.351935  KCAL/ANGSTROM
     27          9  C    CARTESIAN Z     0.167941     -0.061902  KCAL/ANGSTROM
     28         10  H    CARTESIAN X    -2.565633      1.174561  KCAL/ANGSTROM
     29         10  H    CARTESIAN Y    -0.027148     -3.344760  KCAL/ANGSTROM
     30         10  H    CARTESIAN Z     0.645055      1.804459  KCAL/ANGSTROM
     31         11  H    CARTESIAN X    -1.747164      0.166464  KCAL/ANGSTROM
     32         11  H    CARTESIAN Y    -2.325835      0.284893  KCAL/ANGSTROM
     33         11  H    CARTESIAN Z     0.185130      0.573666  KCAL/ANGSTROM
     34         12  H    CARTESIAN X    -0.972794     -0.693553  KCAL/ANGSTROM
     35         12  H    CARTESIAN Y    -2.034386      0.863140  KCAL/ANGSTROM
     36         12  H    CARTESIAN Z     1.793472      0.008612  KCAL/ANGSTROM
     37         13  H    CARTESIAN X     0.711021     -0.427453  KCAL/ANGSTROM
     38         13  H    CARTESIAN Y     0.244620     -0.034968  KCAL/ANGSTROM
     39         13  H    CARTESIAN Z     2.006415     -0.281232  KCAL/ANGSTROM
     40         14  H    CARTESIAN X    -0.517357     -0.005505  KCAL/ANGSTROM
     41         14  H    CARTESIAN Y     2.075204     -0.464072  KCAL/ANGSTROM
     42         14  H    CARTESIAN Z     0.759559      0.005292  KCAL/ANGSTROM
     43         15  H    CARTESIAN X     1.188238     -0.191376  KCAL/ANGSTROM
     44         15  H    CARTESIAN Y     2.325835     -0.251835  KCAL/ANGSTROM
     45         15  H    CARTESIAN Z     0.363306      0.076828  KCAL/ANGSTROM
     46         16  H    CARTESIAN X    -0.833751      0.533080  KCAL/ANGSTROM
     47         16  H    CARTESIAN Y     1.822558     -0.248780  KCAL/ANGSTROM
     48         16  H    CARTESIAN Z    -1.573375     -0.002652  KCAL/ANGSTROM
     49         17  H    CARTESIAN X     0.884839     -0.139066  KCAL/ANGSTROM
     50         17  H    CARTESIAN Y     1.539901     -0.202649  KCAL/ANGSTROM
     51         17  H    CARTESIAN Z    -1.869734      0.010751  KCAL/ANGSTROM
     52         18  H    CARTESIAN X    -0.863990      0.807224  KCAL/ANGSTROM
     53         18  H    CARTESIAN Y    -0.603019      0.502915  KCAL/ANGSTROM
     54         18  H    CARTESIAN Z    -2.006415      0.208213  KCAL/ANGSTROM
     55         19  H    CARTESIAN X     1.148920      0.183851  KCAL/ANGSTROM
     56         19  H    CARTESIAN Y    -2.096292      1.124781  KCAL/ANGSTROM
     57         19  H    CARTESIAN Z    -1.169927      0.306402  KCAL/ANGSTROM
     58         20  H    CARTESIAN X     2.565633     -0.497639  KCAL/ANGSTROM
     59         20  H    CARTESIAN Y     0.304781     -0.629026  KCAL/ANGSTROM
     60         20  H    CARTESIAN Z    -0.351500      0.286396  KCAL/ANGSTROM
     61         21  H    CARTESIAN X     2.517321     -0.286998  KCAL/ANGSTROM
     62         21  H    CARTESIAN Y    -1.042655      0.070572  KCAL/ANGSTROM
     63         21  H    CARTESIAN Z     0.799190     -0.434396  KCAL/ANGSTROM




   ATOM   CHEMICAL          X               Y               Z
  NUMBER   SYMBOL      (ANGSTROMS)     (ANGSTROMS)     (ANGSTROMS)

     1       O         -2.38572753  *  -0.73360476  *   1.29681280  *
     2       C         -1.31788603  *  -1.55328213  *   0.85423747  *
     3       C         -0.25400425  *  -0.76368760  *   0.19843070  *
     4       C          0.68621402  *   0.26188268  *   0.92190896  *
     5       C          0.35699024  *   1.61219010  *   0.27345627  *
     6       C          0.04455150  *   1.26713546  *  -1.21014379  *
     7       C         -0.20305019  *  -0.23570694  *  -1.22948045  *
     8       C          0.90935628  *  -1.15928885  *  -0.71684999  *
     9       C          1.90836626  *  -0.39198669  *   0.16794082  *
    10       H         -2.56563327  *  -0.02714836  *   0.64505453  *
    11       H         -1.74716417  *  -2.32583490  *   0.18513046  *
    12       H         -0.97279401  *  -2.03438648  *   1.79347171  *
    13       H          0.71102128  *   0.24461971  *   2.00641487  *
    14       H         -0.51735728  *   2.07520424  *   0.75955905  *
    15       H          1.18823785  *   2.32583490  *   0.36330584  *
    16       H         -0.83375084  *   1.82255827  *  -1.57337491  *
    17       H          0.88483858  *   1.53990094  *  -1.86973368  *
    18       H         -0.86399032  *  -0.60301923  *  -2.00641487  *
    19       H          1.14891954  *  -2.09629187  *  -1.16992722  *
    20       H          2.56563327  *   0.30478086  *  -0.35150038  *
    21       H          2.51732100  *  -1.04265512  *   0.79918992  *

                             CARTESIAN COORDINATES

   1    O       -2.385727527    -0.733604760     1.296812799
   2    C       -1.317886030    -1.553282128     0.854237467
   3    C       -0.254004247    -0.763687599     0.198430705
   4    C        0.686214023     0.261882681     0.921908956
   5    C        0.356990242     1.612190104     0.273456274
   6    C        0.044551499     1.267135457    -1.210143791
   7    C       -0.203050194    -0.235706941    -1.229480449
   8    C        0.909356283    -1.159288852    -0.716849992
   9    C        1.908366258    -0.391986690     0.167940825
  10    H       -2.565633273    -0.027148355     0.645054528
  11    H       -1.747164172    -2.325834897     0.185130461
  12    H       -0.972794010    -2.034386475     1.793471712
  13    H        0.711021284     0.244619707     2.006414868
  14    H       -0.517357277     2.075204241     0.759559050
  15    H        1.188237848     2.325834897     0.363305841
  16    H       -0.833750843     1.822558265    -1.573374914
  17    H        0.884838578     1.539900941    -1.869733684
  18    H       -0.863990318    -0.603019230    -2.006414868
  19    H        1.148919538    -2.096291867    -1.169927222
  20    H        2.565633273     0.304780861    -0.351500378
  21    H        2.517320996    -1.042655123     0.799189919


           Empirical Formula: C8 H12 O  =    21 atoms



      MOLECULAR POINT GROUP   :   C1  


                  EIGENVALUES  
 -33.04850 -29.40658 -26.62864 -25.49185 -24.58307 -22.06256 -20.38860 -18.75915
 -18.16699 -17.74726 -16.30749 -15.54770 -15.46481 -15.01732 -14.02376 -13.61106
 -13.40120 -12.89523 -12.33548 -12.03649 -11.71344 -11.48428 -10.84003 -10.55755
 -10.27393   1.84215   2.90267   3.18555   3.34434   3.64272   3.73410   3.94290
   4.38457   4.59517   4.95748   5.27945   5.49804   5.51775   5.70259   5.82351
   6.00829   6.13850   6.16955   6.20443   6.25230   6.45729   6.59563   6.63456


              NET ATOMIC CHARGES AND DIPOLE CONTRIBUTIONS

  ATOM NO.   TYPE          CHARGE      No. of ELECS.   s-Pop       p-Pop       
    1          O          -0.619005        6.6190     1.84548     4.77353
    2          C           0.021672        3.9783     1.07516     2.90317
    3          C          -0.135733        4.1357     1.06596     3.06977
    4          C          -0.087483        4.0875     1.08222     3.00527
    5          C          -0.281936        4.2819     1.06751     3.21443
    6          C          -0.263525        4.2635     1.06249     3.20104
    7          C          -0.158554        4.1586     1.06661     3.09194
    8          C          -0.183390        4.1834     1.07035     3.11304
    9          C          -0.289579        4.2896     1.07295     3.21662
   10          H           0.353826        0.6462     0.64617
   11          H           0.138042        0.8620     0.86196
   12          H           0.153058        0.8469     0.84694
   13          H           0.144651        0.8553     0.85535
   14          H           0.145406        0.8546     0.85459
   15          H           0.145444        0.8546     0.85456
   16          H           0.145581        0.8544     0.85442
   17          H           0.147252        0.8527     0.85275
   18          H           0.161419        0.8386     0.83858
   19          H           0.163423        0.8366     0.83658
   20          H           0.151174        0.8488     0.84883
   21          H           0.148257        0.8517     0.85174
 DIPOLE           X         Y         Z       TOTAL
 POINT-CHG.     1.652     0.256    -1.655     2.352
 HYBRID        -0.234     0.236    -0.207     0.391
 SUM            1.418     0.491    -1.861     2.391


          ATOMIC ORBITAL ELECTRON POPULATIONS

     Atom    s        px        py        pz   
    1  O   1.84548   1.60489   1.57003   1.59861
    2  C   1.07516   0.86608   0.94061   1.09649
    3  C   1.06596   1.02935   1.08314   0.95728
    4  C   1.08222   0.97511   0.96496   1.06519
    5  C   1.06751   1.15453   1.04757   1.01232
    6  C   1.06249   1.15786   1.00566   1.03753
    7  C   1.06661   1.07579   0.98931   1.02684
    8  C   1.07035   0.95559   1.08940   1.06805
    9  C   1.07295   1.03601   1.10458   1.07603
   10  H   0.64617
   11  H   0.86196
   12  H   0.84694
   13  H   0.85535
   14  H   0.85459
   15  H   0.85456
   16  H   0.85442
   17  H   0.85275
   18  H   0.83858
   19  H   0.83658
   20  H   0.84883
   21  H   0.85174

 **********************
 *                    *
 * JOB ENDED NORMALLY *
 *                    *
 **********************



 TOTAL JOB TIME:             0.36 SECONDS

 == MOPAC DONE ==
