 *******************************************************************************
 **                                                                           **
 **                              MOPAC v23.2                                  **
 **                                                                           **
 *******************************************************************************
 **          Digital Object Identifier (DOI): 10.5281/zenodo.6511958          **
 **    Visit the DOI location for information on how to cite this program.    **
 *******************************************************************************

                              PM7 CALCULATION RESULTS

 *******************************************************************************
 *  CALCULATION DONE: (MAX THREADS = 40)             Fri Sep 19 21:57:00 2025  *
 *  PM7        - The PM7 Hamiltonian to be used
 *
 *
 *
 *                 CHARGE ON SYSTEM = +1
 *
 *
 *
 *  EPS=37.5   - USE ANDREAS KLAMT'S COSMO IMPLICIT SOLVATION MODEL
 *  1SCF       - DO 1 SCF AND THEN STOP 
 *  T=         - A TIME OF 172800.0 SECONDS REQUESTED
 *  DUMP=N     - RESTART FILE WRITTEN EVERY 7200.0 SECONDS REQUESTED
 *  RELSCF     - DEFAULT SCF CRITERION MULTIPLIED BY 0.0001
 *              (DEFAULT SCF CRITERION = 0.00010)
 *  GRADIENTS  - ALL GRADIENTS TO BE PRINTED
 *  DISP       - PRINT DISPERSION AND HYDROGEN BOND ENERGIES
 *******************************************************************************
PM7 1SCF GRADIENTS EPS=37.5 DISP RELSCF=0.0001 CHARGE=1
 Title: ASE calculation

   ATOM   CHEMICAL          X               Y               Z
  NUMBER   SYMBOL      (ANGSTROMS)     (ANGSTROMS)     (ANGSTROMS)

     1       C          1.68184534  *  -1.76916183  *   1.81767743  *
     2       O          1.70027963  *  -0.33707843  *   1.71866753  *
     3       C          0.80810546  *   0.18234980  *   0.91991417  *
     4       C          0.63033593  *   1.64995394  *   0.72816614  *
     5       C         -0.68809847  *   1.35100871  *  -0.09246904  *
     6       C         -0.63207748  *   1.71314787  *  -1.44550176  *
     7       O         -0.57266088  *   1.98455779  *  -2.54467717  *
     8       C         -0.41391326  *  -0.24064254  *   0.17359937  *
     9       C         -1.52349799  *  -0.88418848  *   0.95819305  *
    10       H          0.72548719  *  -2.12516310  *   2.20849340  *
    11       H          1.92299813  *  -2.22510293  *   0.85311458  *
    12       H          2.48914499  *  -1.95564825  *   2.54467717  *
    13       H          1.43844791  *   2.15747370  *   0.18122289  *
    14       H          0.44851630  *   2.22510293  *   1.65404412  *
    15       H         -1.61122346  *   1.69673373  *   0.43860761  *
    16       H         -0.20007685  *  -0.78995818  *  -0.76461578  *
    17       H         -1.67235669  *  -0.42745714  *   1.94886326  *
    18       H         -2.48914499  *  -0.85529398  *   0.43358842  *
    19       H         -1.31368949  *  -1.95268075  *   1.14556251  *



          CARTESIAN COORDINATES 

    NO.       ATOM           X           Y           Z

     1         C          1.6818     -1.7692      1.8177
     2         O          1.7003     -0.3371      1.7187
     3         C          0.8081      0.1823      0.9199
     4         C          0.6303      1.6500      0.7282
     5         C         -0.6881      1.3510     -0.0925
     6         C         -0.6321      1.7131     -1.4455
     7         O         -0.5727      1.9846     -2.5447
     8         C         -0.4139     -0.2406      0.1736
     9         C         -1.5235     -0.8842      0.9582
    10         H          0.7255     -2.1252      2.2085
    11         H          1.9230     -2.2251      0.8531
    12         H          2.4891     -1.9556      2.5447
    13         H          1.4384      2.1575      0.1812
    14         H          0.4485      2.2251      1.6540
    15         H         -1.6112      1.6967      0.4386
    16         H         -0.2001     -0.7900     -0.7646
    17         H         -1.6724     -0.4275      1.9489
    18         H         -2.4891     -0.8553      0.4336
    19         H         -1.3137     -1.9527      1.1456

 General Reference for PM7:
 "Optimization of Parameters for Semiempirical Methods VI: More Modifications to the 
 NDDO Approximations and Re-optimization of Parameters", J. J. P. Stewart, J. Mol. Mod., 1:32, 19 (2013)
 https://link.springer.com/article/10.1007/s00894-012-1667-x

           Empirical Formula: C7 H10 O2  =    19 atoms



      MOLECULAR POINT GROUP   :   C1  


          UHF CALCULATION, NO. OF ALPHA ELECTRONS =   25
                           NO. OF BETA  ELECTRONS =   24
  SCF CRITERION =    0.1000E-07

 -------------------------------------------------------------------------------
 PM7 1SCF GRADIENTS EPS=37.5 DISP RELSCF=0.0001 CHARGE=1
 Title: ASE calculation



     1SCF WAS SPECIFIED, SO BFGS WAS NOT USED                 
     SCF FIELD WAS ACHIEVED                                   


                              PM7 CALCULATION
                                                       MOPAC v23.2 Linux
                                                       Fri Sep 19 21:57:01 2025




          FINAL HEAT OF FORMATION =         85.76487 KCAL/MOL =     358.84023 KJ/MOL

          TOTAL ENERGY            =     -36394.85928 KCAL/MOL = ELECTRONIC ENERGY + CORE-CORE REPULSION + SOLVATION ENERGY
          ENERGY OF ATOMS         =      36482.50324 KCAL/MOL
                              SUM =         87.64395 KCAL/MOL
          DISPERSION ENERGY       =         -1.87908 KCAL/MOL
                              SUM =         85.76487 KCAL/MOL = FINAL HEAT OF FORMATION

          VAN DER WAALS AREA      =        168.09 SQUARE ANGSTROMS


          TOTAL ENERGY            =      -1578.23047 EV
          ELECTRONIC ENERGY       =      -2224.25164 EV 
          CORE-CORE REPULSION     =        646.02117 EV

          DIELECTRIC ENERGY       =         -2.60580 EV
          COSMO AREA              =        168.09 SQUARE ANGSTROMS
          COSMO VOLUME            =        165.97 CUBIC ANGSTROMS

          GRADIENT NORM           =         31.46124          =       7.21770 PER ATOM
          IONIZATION POTENTIAL    =          8.616058 EV
          ALPHA SOMO LUMO (EV)    =         -8.616 -1.313
          BETA  SOMO LUMO (EV)    =        -11.757 -1.316
          NO. OF ALPHA ELECTRONS  =         25
          NO. OF BETA  ELECTRONS  =         24
          MOLECULAR WEIGHT        =        126.1548         POINT GROUP:  C1  

          MOLECULAR DIMENSIONS (Angstroms)

            Atom       Atom       Distance
            H    12    O     7     7.12751
            H    18    H    13     4.95392
            H    14    H    11     3.77575


          SCF CALCULATIONS        =          2

          WALL-CLOCK TIME         =      1.492 SECONDS
          COMPUTATION TIME        =      0.316 SECONDS

          LARGEST ATOMIC GRADIENTS

          Atom     Label                     Cartesian Gradients           Cartesian Coordinates       |Gradient|
                                           X          Y          Z        X          Y          Z

             5       C                  -8.254     11.107    -12.669   -0.68810    1.35101   -0.09247     18.761
             6       C                  -0.238     -3.466     14.440   -0.63208    1.71315   -1.44550     14.852
             3       C                   6.907     -6.114      5.543    0.80811    0.18235    0.91991     10.762
             7       O                   1.190      1.233     -8.474   -0.57266    1.98456   -2.54468      8.645
             2       O                  -4.077      6.052     -4.190    1.70028   -0.33708    1.71867      8.414
             8       C                   1.383     -7.180      1.842   -0.41391   -0.24064    0.17360      7.540
             9       C                  -0.433      4.684     -4.210   -1.52350   -0.88419    0.95819      6.313
             1       C                  -3.808     -0.951     -2.860    1.68185   -1.76916    1.81768      4.857
            15       H                   1.618     -1.923      1.759   -1.61122    1.69673    0.43861      3.068
             4       C                   1.845      1.182     -0.288    0.63034    1.64995    0.72817      2.210



       FINAL  POINT  AND  DERIVATIVES

   PARAMETER     ATOM    TYPE            VALUE        GRADIENT
      1          1  C    CARTESIAN X     1.681845     -3.808427  KCAL/ANGSTROM
      2          1  C    CARTESIAN Y    -1.769162     -0.951035  KCAL/ANGSTROM
      3          1  C    CARTESIAN Z     1.817677     -2.860108  KCAL/ANGSTROM
      4          2  O    CARTESIAN X     1.700280     -4.077314  KCAL/ANGSTROM
      5          2  O    CARTESIAN Y    -0.337078      6.052005  KCAL/ANGSTROM
      6          2  O    CARTESIAN Z     1.718668     -4.189520  KCAL/ANGSTROM
      7          3  C    CARTESIAN X     0.808105      6.907075  KCAL/ANGSTROM
      8          3  C    CARTESIAN Y     0.182350     -6.114120  KCAL/ANGSTROM
      9          3  C    CARTESIAN Z     0.919914      5.543268  KCAL/ANGSTROM
     10          4  C    CARTESIAN X     0.630336      1.845369  KCAL/ANGSTROM
     11          4  C    CARTESIAN Y     1.649954      1.181725  KCAL/ANGSTROM
     12          4  C    CARTESIAN Z     0.728166     -0.288220  KCAL/ANGSTROM
     13          5  C    CARTESIAN X    -0.688098     -8.254128  KCAL/ANGSTROM
     14          5  C    CARTESIAN Y     1.351009     11.106563  KCAL/ANGSTROM
     15          5  C    CARTESIAN Z    -0.092469    -12.668619  KCAL/ANGSTROM
     16          6  C    CARTESIAN X    -0.632077     -0.238129  KCAL/ANGSTROM
     17          6  C    CARTESIAN Y     1.713148     -3.465877  KCAL/ANGSTROM
     18          6  C    CARTESIAN Z    -1.445502     14.439801  KCAL/ANGSTROM
     19          7  O    CARTESIAN X    -0.572661      1.189828  KCAL/ANGSTROM
     20          7  O    CARTESIAN Y     1.984558      1.232985  KCAL/ANGSTROM
     21          7  O    CARTESIAN Z    -2.544677     -8.473729  KCAL/ANGSTROM
     22          8  C    CARTESIAN X    -0.413913      1.383387  KCAL/ANGSTROM
     23          8  C    CARTESIAN Y    -0.240643     -7.179756  KCAL/ANGSTROM
     24          8  C    CARTESIAN Z     0.173599      1.841560  KCAL/ANGSTROM
     25          9  C    CARTESIAN X    -1.523498     -0.432533  KCAL/ANGSTROM
     26          9  C    CARTESIAN Y    -0.884188      4.684207  KCAL/ANGSTROM
     27          9  C    CARTESIAN Z     0.958193     -4.209556  KCAL/ANGSTROM
     28         10  H    CARTESIAN X     0.725487      0.744756  KCAL/ANGSTROM
     29         10  H    CARTESIAN Y    -2.125163     -0.191515  KCAL/ANGSTROM
     30         10  H    CARTESIAN Z     2.208493      0.951137  KCAL/ANGSTROM
     31         11  H    CARTESIAN X     1.922998      1.436379  KCAL/ANGSTROM
     32         11  H    CARTESIAN Y    -2.225103     -0.249477  KCAL/ANGSTROM
     33         11  H    CARTESIAN Z     0.853115      0.502611  KCAL/ANGSTROM
     34         12  H    CARTESIAN X     2.489145      0.781733  KCAL/ANGSTROM
     35         12  H    CARTESIAN Y    -1.955648      0.583829  KCAL/ANGSTROM
     36         12  H    CARTESIAN Z     2.544677      0.688647  KCAL/ANGSTROM
     37         13  H    CARTESIAN X     1.438448      1.117636  KCAL/ANGSTROM
     38         13  H    CARTESIAN Y     2.157474     -0.741085  KCAL/ANGSTROM
     39         13  H    CARTESIAN Z     0.181223      1.102429  KCAL/ANGSTROM
     40         14  H    CARTESIAN X     0.448516      0.468621  KCAL/ANGSTROM
     41         14  H    CARTESIAN Y     2.225103     -0.563618  KCAL/ANGSTROM
     42         14  H    CARTESIAN Z     1.654044      1.508389  KCAL/ANGSTROM
     43         15  H    CARTESIAN X    -1.611223      1.617949  KCAL/ANGSTROM
     44         15  H    CARTESIAN Y     1.696734     -1.923476  KCAL/ANGSTROM
     45         15  H    CARTESIAN Z     0.438608      1.759210  KCAL/ANGSTROM
     46         16  H    CARTESIAN X    -0.200077     -0.069429  KCAL/ANGSTROM
     47         16  H    CARTESIAN Y    -0.789958      0.245482  KCAL/ANGSTROM
     48         16  H    CARTESIAN Z    -0.764616      1.129532  KCAL/ANGSTROM
     49         17  H    CARTESIAN X    -1.672357      0.084754  KCAL/ANGSTROM
     50         17  H    CARTESIAN Y    -0.427457     -1.132641  KCAL/ANGSTROM
     51         17  H    CARTESIAN Z     1.948863      1.457067  KCAL/ANGSTROM
     52         18  H    CARTESIAN X    -2.489145     -0.532029  KCAL/ANGSTROM
     53         18  H    CARTESIAN Y    -0.855294     -1.595249  KCAL/ANGSTROM
     54         18  H    CARTESIAN Z     0.433588      1.038015  KCAL/ANGSTROM
     55         19  H    CARTESIAN X    -1.313689     -0.165501  KCAL/ANGSTROM
     56         19  H    CARTESIAN Y    -1.952681     -0.978948  KCAL/ANGSTROM
     57         19  H    CARTESIAN Z     1.145563      0.728080  KCAL/ANGSTROM




   ATOM   CHEMICAL          X               Y               Z
  NUMBER   SYMBOL      (ANGSTROMS)     (ANGSTROMS)     (ANGSTROMS)

     1       C          1.68184534  *  -1.76916183  *   1.81767743  *
     2       O          1.70027963  *  -0.33707843  *   1.71866753  *
     3       C          0.80810546  *   0.18234980  *   0.91991417  *
     4       C          0.63033593  *   1.64995394  *   0.72816614  *
     5       C         -0.68809847  *   1.35100871  *  -0.09246904  *
     6       C         -0.63207748  *   1.71314787  *  -1.44550176  *
     7       O         -0.57266088  *   1.98455779  *  -2.54467717  *
     8       C         -0.41391326  *  -0.24064254  *   0.17359937  *
     9       C         -1.52349799  *  -0.88418848  *   0.95819305  *
    10       H          0.72548719  *  -2.12516310  *   2.20849340  *
    11       H          1.92299813  *  -2.22510293  *   0.85311458  *
    12       H          2.48914499  *  -1.95564825  *   2.54467717  *
    13       H          1.43844791  *   2.15747370  *   0.18122289  *
    14       H          0.44851630  *   2.22510293  *   1.65404412  *
    15       H         -1.61122346  *   1.69673373  *   0.43860761  *
    16       H         -0.20007685  *  -0.78995818  *  -0.76461578  *
    17       H         -1.67235669  *  -0.42745714  *   1.94886326  *
    18       H         -2.48914499  *  -0.85529398  *   0.43358842  *
    19       H         -1.31368949  *  -1.95268075  *   1.14556251  *

                             CARTESIAN COORDINATES

   1    C        1.681845342    -1.769161830     1.817677433
   2    O        1.700279632    -0.337078430     1.718667526
   3    C        0.808105461     0.182349800     0.919914165
   4    C        0.630335926     1.649953941     0.728166137
   5    C       -0.688098466     1.351008708    -0.092469043
   6    C       -0.632077479     1.713147868    -1.445501760
   7    O       -0.572660876     1.984557789    -2.544677170
   8    C       -0.413913264    -0.240642542     0.173599375
   9    C       -1.523497993    -0.884188479     0.958193054
  10    H        0.725487193    -2.125163100     2.208493403
  11    H        1.922998129    -2.225102933     0.853114582
  12    H        2.489144991    -1.955648255     2.544677170
  13    H        1.438447914     2.157473703     0.181222893
  14    H        0.448516296     2.225102933     1.654044119
  15    H       -1.611223460     1.696733729     0.438607615
  16    H       -0.200076852    -0.789958176    -0.764615776
  17    H       -1.672356686    -0.427457136     1.948863256
  18    H       -2.489144991    -0.855293979     0.433588420
  19    H       -1.313689489    -1.952680750     1.145562508


           Empirical Formula: C7 H10 O2  =    19 atoms



      MOLECULAR POINT GROUP   :   C1  


          ALPHA EIGENVALUES  
 -36.31572 -32.01007 -31.50108 -26.89601 -26.13768 -24.63068 -22.39527 -20.85597
 -19.36668 -18.15768 -17.74992 -17.59758 -16.71545 -16.50937 -16.17357 -14.78480
 -14.70239 -14.23296 -13.99588 -13.52399 -13.30789 -12.48163 -12.34767 -12.00178
  -8.61606  -1.31299  -1.19174   0.57135   1.36474   1.64984   2.05371   2.95284
   3.14761   3.76698   4.00244   4.40502   4.62207   5.01699   5.05147   5.24519
   5.30969   5.39543   5.49470   5.63894   5.89591   6.58266


           BETA EIGENVALUES 
 -36.31426 -31.89170 -30.93449 -26.85861 -26.05306 -24.56157 -22.30520 -20.75092
 -19.22603 -18.07040 -17.71973 -17.56818 -16.59353 -16.38872 -15.87943 -14.72405
 -14.65821 -14.13471 -13.85191 -13.46347 -13.25564 -12.30836 -11.99496 -11.75715
  -1.31622  -1.19266   0.51677   0.67129   1.57705   1.65656   2.09088   3.15596
   3.22467   3.84229   4.23653   4.56372   4.72663   5.06416   5.11760   5.25978
   5.35657   5.42114   5.50818   5.68002   5.91344   6.58662


              NET ATOMIC CHARGES AND DIPOLE CONTRIBUTIONS

  ATOM NO.   TYPE          CHARGE      No. of ELECS.   s-Pop       p-Pop       
    1          C          -0.214067        4.2141     1.09543     3.11864
    2          O          -0.244749        6.2447     1.85247     4.39228
    3          C          -0.058239        4.0582     1.08897     2.96927
    4          C          -0.218914        4.2189     1.07164     3.14727
    5          C          -0.270823        4.2708     1.08581     3.18502
    6          C           0.618050        3.3820     1.20869     2.17326
    7          O           0.063982        5.9360     1.86703     4.06899
    8          C          -0.014305        4.0143     1.08126     2.93305
    9          C          -0.471226        4.4712     1.05260     3.41862
   10          H           0.150402        0.8496     0.84960
   11          H           0.153185        0.8468     0.84682
   12          H           0.169866        0.8301     0.83013
   13          H           0.186468        0.8135     0.81353
   14          H           0.193426        0.8066     0.80657
   15          H           0.261700        0.7383     0.73830
   16          H           0.176105        0.8239     0.82390
   17          H           0.169987        0.8300     0.83001
   18          H           0.173556        0.8264     0.82644
   19          H           0.175598        0.8244     0.82440
 DIPOLE           X         Y         Z       TOTAL
 POINT-CHG.    -3.980     2.616    -4.529     6.572
 HYBRID        -0.136     0.519    -0.593     0.799
 SUM           -4.116     3.136    -5.121     7.280


          ATOMIC ORBITAL ELECTRON POPULATIONS

     Atom    s        px        py        pz   
    1  C   1.09543   1.17033   0.78295   1.16536
    2  O   1.85247   1.51564   1.27981   1.59683
    3  C   1.08897   0.98080   0.93173   1.05674
    4  C   1.07164   0.98472   1.04709   1.11546
    5  C   1.08581   1.15182   1.12554   0.90766
    6  C   1.20869   0.63887   0.65920   0.87518
    7  O   1.86703   1.42513   1.41855   1.22531
    8  C   1.08126   0.98294   0.86996   1.08015
    9  C   1.05260   1.09670   1.16880   1.15312
   10  H   0.84960
   11  H   0.84682
   12  H   0.83013
   13  H   0.81353
   14  H   0.80657
   15  H   0.73830
   16  H   0.82390
   17  H   0.83001
   18  H   0.82644
   19  H   0.82440


                    (SZ)    =    0.500000
                    (S**2)  =    0.752782


          ATOMIC ORBITAL SPIN POPULATIONS

    Atom   Total    s     px     py     pz   
         Atomic
    1  C -0.0109 -0.001 -0.001 -0.008 -0.001
    2  O  0.1686  0.007  0.043  0.008  0.110
    3  C  0.8403  0.029  0.282  0.034  0.495
    4  C -0.0373 -0.005 -0.003 -0.023 -0.006
    5  C  0.0050  0.001  0.001  0.002  0.001
    6  C -0.0007 -0.000 -0.000 -0.000 -0.000
    7  O  0.0004  0.000  0.000  0.000 -0.000
    8  C -0.0424 -0.004 -0.019 -0.004 -0.015
    9  C  0.0232  0.005  0.011  0.004  0.003
   10  H  0.0026  0.003
   11  H  0.0032  0.003
   12  H -0.0005 -0.000
   13  H  0.0165  0.016
   14  H  0.0185  0.018
   15  H -0.0004 -0.000
   16  H  0.0160  0.016
   17  H -0.0010 -0.001
   18  H -0.0006 -0.001
   19  H -0.0007 -0.001

 **********************
 *                    *
 * JOB ENDED NORMALLY *
 *                    *
 **********************



 TOTAL JOB TIME:             1.96 SECONDS

 == MOPAC DONE ==
