 *******************************************************************************
 **                                                                           **
 **                              MOPAC v23.2                                  **
 **                                                                           **
 *******************************************************************************
 **          Digital Object Identifier (DOI): 10.5281/zenodo.6511958          **
 **    Visit the DOI location for information on how to cite this program.    **
 *******************************************************************************

                              PM7 CALCULATION RESULTS

 *******************************************************************************
 *  CALCULATION DONE: (MAX THREADS = 40)             Fri Sep 19 21:42:51 2025  *
 *  PM7        - The PM7 Hamiltonian to be used
 *
 *
 *
 *                 CHARGE ON SYSTEM = +1
 *
 *
 *
 *  EPS=37.5   - USE ANDREAS KLAMT'S COSMO IMPLICIT SOLVATION MODEL
 *  1SCF       - DO 1 SCF AND THEN STOP 
 *  T=         - A TIME OF 172800.0 SECONDS REQUESTED
 *  DUMP=N     - RESTART FILE WRITTEN EVERY 7200.0 SECONDS REQUESTED
 *  RELSCF     - DEFAULT SCF CRITERION MULTIPLIED BY 0.0001
 *              (DEFAULT SCF CRITERION = 0.00010)
 *  GRADIENTS  - ALL GRADIENTS TO BE PRINTED
 *  DISP       - PRINT DISPERSION AND HYDROGEN BOND ENERGIES
 *******************************************************************************
PM7 1SCF GRADIENTS EPS=37.5 DISP RELSCF=0.0001 CHARGE=1
 Title: ASE calculation

   ATOM   CHEMICAL          X               Y               Z
  NUMBER   SYMBOL      (ANGSTROMS)     (ANGSTROMS)     (ANGSTROMS)

     1       C          0.85828538  *  -1.89486201  *   0.73182313  *
     2       C          0.64179299  *  -0.50293696  *   0.39092876  *
     3       C          1.60087743  *   0.51463839  *   0.31827833  *
     4       C          0.92899751  *   1.75554793  *  -0.06175320  *
     5       O         -0.45674778  *   1.46148387  *  -0.21550374  *
     6       C         -0.65472869  *   0.09502616  *   0.05393834  *
     7       C         -1.60566869  *  -0.55488976  *  -1.03397170  *
     8       O         -2.66563365  *  -0.75537091  *  -0.07828608  *
     9       C         -1.92516978  *  -0.11185208  *   0.97763403  *
    10       H          0.26727127  *  -2.22509756  *   1.61782043  *
    11       H          1.91259704  *  -2.15189983  *   0.95654517  *
    12       H          0.53726226  *  -2.59693252  *  -0.07280195  *
    13       H          2.66563365  *   0.42925495  *   0.50564151  *
    14       H          1.26747136  *   2.21734683  *  -1.03270371  *
    15       H          0.99634558  *   2.59693252  *   0.68529074  *
    16       H         -1.26578106  *  -1.51822002  *  -1.43166445  *
    17       H         -1.92315856  *   0.15299255  *  -1.81636876  *
    18       H         -1.78161701  *  -0.80297283  *   1.81636876  *
    19       H         -2.41321593  *   0.83229495  *   1.26824616  *



          CARTESIAN COORDINATES 

    NO.       ATOM           X           Y           Z

     1         C          0.8583     -1.8949      0.7318
     2         C          0.6418     -0.5029      0.3909
     3         C          1.6009      0.5146      0.3183
     4         C          0.9290      1.7555     -0.0618
     5         O         -0.4567      1.4615     -0.2155
     6         C         -0.6547      0.0950      0.0539
     7         C         -1.6057     -0.5549     -1.0340
     8         O         -2.6656     -0.7554     -0.0783
     9         C         -1.9252     -0.1119      0.9776
    10         H          0.2673     -2.2251      1.6178
    11         H          1.9126     -2.1519      0.9565
    12         H          0.5373     -2.5969     -0.0728
    13         H          2.6656      0.4293      0.5056
    14         H          1.2675      2.2173     -1.0327
    15         H          0.9963      2.5969      0.6853
    16         H         -1.2658     -1.5182     -1.4317
    17         H         -1.9232      0.1530     -1.8164
    18         H         -1.7816     -0.8030      1.8164
    19         H         -2.4132      0.8323      1.2682

 General Reference for PM7:
 "Optimization of Parameters for Semiempirical Methods VI: More Modifications to the 
 NDDO Approximations and Re-optimization of Parameters", J. J. P. Stewart, J. Mol. Mod., 1:32, 19 (2013)
 https://link.springer.com/article/10.1007/s00894-012-1667-x

           Empirical Formula: C7 H10 O2  =    19 atoms



      MOLECULAR POINT GROUP   :   Cs  


          UHF CALCULATION, NO. OF ALPHA ELECTRONS =   25
                           NO. OF BETA  ELECTRONS =   24
  SCF CRITERION =    0.1000E-07

 -------------------------------------------------------------------------------
 PM7 1SCF GRADIENTS EPS=37.5 DISP RELSCF=0.0001 CHARGE=1
 Title: ASE calculation



     1SCF WAS SPECIFIED, SO BFGS WAS NOT USED                 
     SCF FIELD WAS ACHIEVED                                   


                              PM7 CALCULATION
                                                       MOPAC v23.2 Linux
                                                       Fri Sep 19 21:42:53 2025




          FINAL HEAT OF FORMATION =        102.94672 KCAL/MOL =     430.72909 KJ/MOL

          TOTAL ENERGY            =     -36377.58706 KCAL/MOL = ELECTRONIC ENERGY + CORE-CORE REPULSION + SOLVATION ENERGY
          ENERGY OF ATOMS         =      36482.50324 KCAL/MOL
                              SUM =        104.91617 KCAL/MOL
          DISPERSION ENERGY       =         -1.96945 KCAL/MOL
                              SUM =        102.94672 KCAL/MOL = FINAL HEAT OF FORMATION

          VAN DER WAALS AREA      =        159.36 SQUARE ANGSTROMS


          TOTAL ENERGY            =      -1577.48148 EV
          ELECTRONIC ENERGY       =      -2398.63032 EV 
          CORE-CORE REPULSION     =        821.14884 EV

          DIELECTRIC ENERGY       =         -2.58815 EV
          COSMO AREA              =        159.36 SQUARE ANGSTROMS
          COSMO VOLUME            =        158.03 CUBIC ANGSTROMS

          GRADIENT NORM           =         45.29587          =       10.39158 PER ATOM
          IONIZATION POTENTIAL    =         10.645352 EV
          ALPHA SOMO LUMO (EV)    =        -10.645 -1.734
          BETA  SOMO LUMO (EV)    =        -11.097 -3.921
          NO. OF ALPHA ELECTRONS  =         25
          NO. OF BETA  ELECTRONS  =         24
          MOLECULAR WEIGHT        =        126.1548         POINT GROUP:  Cs  

          MOLECULAR DIMENSIONS (Angstroms)

            Atom       Atom       Distance
            H    13    O     8     5.49242
            H    12    H    15     5.00509
            H    18    H    17     3.70751


          SCF CALCULATIONS        =          2

          WALL-CLOCK TIME         =      1.797 SECONDS
          COMPUTATION TIME        =      0.791 SECONDS

          LARGEST ATOMIC GRADIENTS

          Atom     Label                     Cartesian Gradients           Cartesian Coordinates       |Gradient|
                                           X          Y          Z        X          Y          Z

             6       C                  25.915      6.254      2.777   -0.65473    0.09503    0.05394     26.803
             2       C                   7.332     23.251     -3.988    0.64179   -0.50294    0.39093     24.703
             3       C                 -10.221    -16.780      2.060    1.60088    0.51464    0.31828     19.755
             7       C                  -9.610     -1.993      1.968   -1.60567   -0.55489   -1.03397     10.010
             9       C                  -8.646     -3.194     -3.647   -1.92517   -0.11185    0.97763      9.913
             1       C                  -1.115     -7.494      1.222    0.85829   -1.89486    0.73182      7.674
             4       C                  -4.413     -1.910     -0.229    0.92900    1.75555   -0.06175      4.814
             5       O                   3.832     -1.685      0.978   -0.45675    1.46148   -0.21550      4.298
            13       H                  -3.037     -0.118     -0.470    2.66563    0.42925    0.50564      3.075
            15       H                  -1.740      1.340     -0.199    0.99635    2.59693    0.68529      2.205



       FINAL  POINT  AND  DERIVATIVES

   PARAMETER     ATOM    TYPE            VALUE        GRADIENT
      1          1  C    CARTESIAN X     0.858285     -1.115146  KCAL/ANGSTROM
      2          1  C    CARTESIAN Y    -1.894862     -7.493953  KCAL/ANGSTROM
      3          1  C    CARTESIAN Z     0.731823      1.222228  KCAL/ANGSTROM
      4          2  C    CARTESIAN X     0.641793      7.332241  KCAL/ANGSTROM
      5          2  C    CARTESIAN Y    -0.502937     23.250537  KCAL/ANGSTROM
      6          2  C    CARTESIAN Z     0.390929     -3.987655  KCAL/ANGSTROM
      7          3  C    CARTESIAN X     1.600877    -10.220604  KCAL/ANGSTROM
      8          3  C    CARTESIAN Y     0.514638    -16.779801  KCAL/ANGSTROM
      9          3  C    CARTESIAN Z     0.318278      2.060101  KCAL/ANGSTROM
     10          4  C    CARTESIAN X     0.928998     -4.412506  KCAL/ANGSTROM
     11          4  C    CARTESIAN Y     1.755548     -1.910439  KCAL/ANGSTROM
     12          4  C    CARTESIAN Z    -0.061753     -0.229177  KCAL/ANGSTROM
     13          5  O    CARTESIAN X    -0.456748      3.831573  KCAL/ANGSTROM
     14          5  O    CARTESIAN Y     1.461484     -1.684605  KCAL/ANGSTROM
     15          5  O    CARTESIAN Z    -0.215504      0.978248  KCAL/ANGSTROM
     16          6  C    CARTESIAN X    -0.654729     25.914580  KCAL/ANGSTROM
     17          6  C    CARTESIAN Y     0.095026      6.253763  KCAL/ANGSTROM
     18          6  C    CARTESIAN Z     0.053938      2.776953  KCAL/ANGSTROM
     19          7  C    CARTESIAN X    -1.605669     -9.610203  KCAL/ANGSTROM
     20          7  C    CARTESIAN Y    -0.554890     -1.992822  KCAL/ANGSTROM
     21          7  C    CARTESIAN Z    -1.033972      1.967837  KCAL/ANGSTROM
     22          8  O    CARTESIAN X    -2.665634      1.088719  KCAL/ANGSTROM
     23          8  O    CARTESIAN Y    -0.755371     -0.581690  KCAL/ANGSTROM
     24          8  O    CARTESIAN Z    -0.078286      0.257741  KCAL/ANGSTROM
     25          9  C    CARTESIAN X    -1.925170     -8.646364  KCAL/ANGSTROM
     26          9  C    CARTESIAN Y    -0.111852     -3.193938  KCAL/ANGSTROM
     27          9  C    CARTESIAN Z     0.977634     -3.647358  KCAL/ANGSTROM
     28         10  H    CARTESIAN X     0.267271      0.972066  KCAL/ANGSTROM
     29         10  H    CARTESIAN Y    -2.225098     -0.417594  KCAL/ANGSTROM
     30         10  H    CARTESIAN Z     1.617820     -0.079937  KCAL/ANGSTROM
     31         11  H    CARTESIAN X     1.912597      0.215968  KCAL/ANGSTROM
     32         11  H    CARTESIAN Y    -2.151900     -0.618023  KCAL/ANGSTROM
     33         11  H    CARTESIAN Z     0.956545      0.213058  KCAL/ANGSTROM
     34         12  H    CARTESIAN X     0.537262      0.840598  KCAL/ANGSTROM
     35         12  H    CARTESIAN Y    -2.596933     -0.187713  KCAL/ANGSTROM
     36         12  H    CARTESIAN Z    -0.072802      0.689694  KCAL/ANGSTROM
     37         13  H    CARTESIAN X     2.665634     -3.036605  KCAL/ANGSTROM
     38         13  H    CARTESIAN Y     0.429255     -0.117987  KCAL/ANGSTROM
     39         13  H    CARTESIAN Z     0.505642     -0.470444  KCAL/ANGSTROM
     40         14  H    CARTESIAN X     1.267471     -1.539402  KCAL/ANGSTROM
     41         14  H    CARTESIAN Y     2.217347      1.145425  KCAL/ANGSTROM
     42         14  H    CARTESIAN Z    -1.032704     -0.873692  KCAL/ANGSTROM
     43         15  H    CARTESIAN X     0.996346     -1.739839  KCAL/ANGSTROM
     44         15  H    CARTESIAN Y     2.596933      1.340251  KCAL/ANGSTROM
     45         15  H    CARTESIAN Z     0.685291     -0.198584  KCAL/ANGSTROM
     46         16  H    CARTESIAN X    -1.265781      0.786350  KCAL/ANGSTROM
     47         16  H    CARTESIAN Y    -1.518220     -0.233564  KCAL/ANGSTROM
     48         16  H    CARTESIAN Z    -1.431664      0.598226  KCAL/ANGSTROM
     49         17  H    CARTESIAN X    -1.923159     -0.719192  KCAL/ANGSTROM
     50         17  H    CARTESIAN Y     0.152993      1.768780  KCAL/ANGSTROM
     51         17  H    CARTESIAN Z    -1.816369     -0.818631  KCAL/ANGSTROM
     52         18  H    CARTESIAN X    -1.781617      0.881046  KCAL/ANGSTROM
     53         18  H    CARTESIAN Y    -0.802973     -0.427920  KCAL/ANGSTROM
     54         18  H    CARTESIAN Z     1.816369     -0.187218  KCAL/ANGSTROM
     55         19  H    CARTESIAN X    -2.413216     -0.823280  KCAL/ANGSTROM
     56         19  H    CARTESIAN Y     0.832295      1.881291  KCAL/ANGSTROM
     57         19  H    CARTESIAN Z     1.268246     -0.271394  KCAL/ANGSTROM




   ATOM   CHEMICAL          X               Y               Z
  NUMBER   SYMBOL      (ANGSTROMS)     (ANGSTROMS)     (ANGSTROMS)

     1       C          0.85828538  *  -1.89486201  *   0.73182313  *
     2       C          0.64179299  *  -0.50293696  *   0.39092876  *
     3       C          1.60087743  *   0.51463839  *   0.31827833  *
     4       C          0.92899751  *   1.75554793  *  -0.06175320  *
     5       O         -0.45674778  *   1.46148387  *  -0.21550374  *
     6       C         -0.65472869  *   0.09502616  *   0.05393834  *
     7       C         -1.60566869  *  -0.55488976  *  -1.03397170  *
     8       O         -2.66563365  *  -0.75537091  *  -0.07828608  *
     9       C         -1.92516978  *  -0.11185208  *   0.97763403  *
    10       H          0.26727127  *  -2.22509756  *   1.61782043  *
    11       H          1.91259704  *  -2.15189983  *   0.95654517  *
    12       H          0.53726226  *  -2.59693252  *  -0.07280195  *
    13       H          2.66563365  *   0.42925495  *   0.50564151  *
    14       H          1.26747136  *   2.21734683  *  -1.03270371  *
    15       H          0.99634558  *   2.59693252  *   0.68529074  *
    16       H         -1.26578106  *  -1.51822002  *  -1.43166445  *
    17       H         -1.92315856  *   0.15299255  *  -1.81636876  *
    18       H         -1.78161701  *  -0.80297283  *   1.81636876  *
    19       H         -2.41321593  *   0.83229495  *   1.26824616  *

                             CARTESIAN COORDINATES

   1    C        0.858285378    -1.894862011     0.731823135
   2    C        0.641792986    -0.502936958     0.390928759
   3    C        1.600877431     0.514638390     0.318278332
   4    C        0.928997513     1.755547930    -0.061753204
   5    O       -0.456747775     1.461483869    -0.215503741
   6    C       -0.654728686     0.095026160     0.053938341
   7    C       -1.605668687    -0.554889756    -1.033971701
   8    O       -2.665633650    -0.755370911    -0.078286076
   9    C       -1.925169781    -0.111852082     0.977634026
  10    H        0.267271269    -2.225097560     1.617820426
  11    H        1.912597042    -2.151899827     0.956545169
  12    H        0.537262257    -2.596932519    -0.072801951
  13    H        2.665633650     0.429254948     0.505641512
  14    H        1.267471361     2.217346832    -1.032703705
  15    H        0.996345582     2.596932519     0.685290741
  16    H       -1.265781060    -1.518220023    -1.431664451
  17    H       -1.923158564     0.152992550    -1.816368763
  18    H       -1.781617012    -0.802972828     1.816368763
  19    H       -2.413215932     0.832294951     1.268246163


           Empirical Formula: C7 H10 O2  =    19 atoms



      MOLECULAR POINT GROUP   :   Cs  


          ALPHA EIGENVALUES  
 -33.28833 -31.64618 -29.52970 -27.24938 -25.75169 -24.57640 -23.58911 -21.75629
 -19.76759 -17.98202 -17.81778 -17.37088 -16.73375 -16.07095 -15.50421 -15.37357
 -14.92036 -14.53456 -14.37251 -13.69311 -13.55135 -13.06631 -12.17143 -11.09953
 -10.64535  -1.73381   0.60210   0.93485   1.68425   2.01486   2.16212   2.61430
   2.88846   3.03278   3.12501   3.25990   4.23264   4.56762   4.59681   4.76136
   4.84593   4.93178   4.98470   5.12572   5.17205   5.92938


           BETA EIGENVALUES 
 -33.15589 -31.59199 -29.35129 -27.16539 -25.68841 -24.53596 -23.43267 -21.65442
 -19.68388 -17.90678 -17.57547 -17.30186 -16.65886 -15.84423 -15.43228 -15.05875
 -14.86685 -14.45284 -14.27872 -13.64044 -13.25630 -13.01056 -11.16778 -11.09734
  -3.92136  -0.54052   0.64148   0.97472   1.85246   2.10981   2.27840   2.73170
   2.98046   3.05567   3.20804   3.34265   4.38093   4.63509   4.67404   4.78788
   4.93241   4.95847   5.00155   5.13028   5.17390   5.95032


              NET ATOMIC CHARGES AND DIPOLE CONTRIBUTIONS

  ATOM NO.   TYPE          CHARGE      No. of ELECS.   s-Pop       p-Pop       
    1          C          -0.500861        4.5009     1.05134     3.44952
    2          C           0.199190        3.8008     1.12608     2.67473
    3          C           0.054923        3.9451     1.16009     2.78499
    4          C          -0.116307        4.1163     1.10088     3.01542
    5          O          -0.336080        6.3361     1.88506     4.45102
    6          C           0.024436        3.9756     1.11275     2.86282
    7          C          -0.004729        4.0047     1.11650     2.88822
    8          O          -0.427316        6.4273     1.89933     4.52799
    9          C          -0.005487        4.0055     1.11667     2.88882
   10          H           0.233270        0.7667     0.76673
   11          H           0.210342        0.7897     0.78966
   12          H           0.234923        0.7651     0.76508
   13          H           0.226068        0.7739     0.77393
   14          H           0.250253        0.7497     0.74975
   15          H           0.249959        0.7500     0.75004
   16          H           0.172264        0.8277     0.82774
   17          H           0.180881        0.8191     0.81912
   18          H           0.172967        0.8270     0.82703
   19          H           0.181305        0.8187     0.81870
 DIPOLE           X         Y         Z       TOTAL
 POINT-CHG.     8.787     0.044     1.376     8.894
 HYBRID        -0.167     0.117    -0.052     0.211
 SUM            8.620     0.161     1.324     8.722


          ATOMIC ORBITAL ELECTRON POPULATIONS

     Atom    s        px        py        pz   
    1  C   1.05134   1.24187   1.00618   1.20147
    2  C   1.12608   0.96653   0.98204   0.72617
    3  C   1.16009   1.09358   0.96813   0.72328
    4  C   1.10088   0.80563   1.04478   1.16502
    5  O   1.88506   1.29079   1.28210   1.87813
    6  C   1.11275   0.97825   0.82747   1.05710
    7  C   1.11650   0.83605   1.11471   0.93747
    8  O   1.89933   1.39990   1.82022   1.30787
    9  C   1.11667   0.86703   1.09203   0.92975
   10  H   0.76673
   11  H   0.78966
   12  H   0.76508
   13  H   0.77393
   14  H   0.74975
   15  H   0.75004
   16  H   0.82774
   17  H   0.81912
   18  H   0.82703
   19  H   0.81870


                    (SZ)    =    0.500000
                    (S**2)  =    0.754159


          ATOMIC ORBITAL SPIN POPULATIONS

    Atom   Total    s     px     py     pz   
         Atomic
    1  C  0.0063 -0.002 -0.001 -0.009  0.018
    2  C  0.3242  0.006  0.013  0.019  0.286
    3  C  0.4010  0.008  0.017  0.024  0.351
    4  C  0.0099 -0.005 -0.004 -0.012  0.031
    5  O  0.0430  0.001  0.002  0.004  0.036
    6  C -0.0376 -0.006 -0.014 -0.006 -0.011
    7  C  0.0685  0.008  0.021  0.011  0.029
    8  O -0.0057 -0.000 -0.002 -0.001 -0.003
    9  C  0.0684  0.008  0.036  0.003  0.022
   10  H  0.0212  0.021
   11  H -0.0001 -0.000
   12  H  0.0213  0.021
   13  H -0.0108 -0.011
   14  H  0.0458  0.046
   15  H  0.0458  0.046
   16  H -0.0003 -0.000
   17  H -0.0002 -0.000
   18  H -0.0003 -0.000
   19  H -0.0002 -0.000

 **********************
 *                    *
 * JOB ENDED NORMALLY *
 *                    *
 **********************



 TOTAL JOB TIME:             2.21 SECONDS

 == MOPAC DONE ==
