 *******************************************************************************
 **                                                                           **
 **                              MOPAC v23.2                                  **
 **                                                                           **
 *******************************************************************************
 **          Digital Object Identifier (DOI): 10.5281/zenodo.6511958          **
 **    Visit the DOI location for information on how to cite this program.    **
 *******************************************************************************

                              PM7 CALCULATION RESULTS

 *******************************************************************************
 *  CALCULATION DONE: (MAX THREADS = 40)             Fri Sep 19 21:34:24 2025  *
 *  PM7        - The PM7 Hamiltonian to be used
 *
 *
 *
 *                 CHARGE ON SYSTEM = +1
 *
 *
 *
 *  1SCF       - DO 1 SCF AND THEN STOP 
 *  T=         - A TIME OF 172800.0 SECONDS REQUESTED
 *  DUMP=N     - RESTART FILE WRITTEN EVERY 7200.0 SECONDS REQUESTED
 *  RELSCF     - DEFAULT SCF CRITERION MULTIPLIED BY 0.0001
 *              (DEFAULT SCF CRITERION = 0.00010)
 *  GRADIENTS  - ALL GRADIENTS TO BE PRINTED
 *  DISP       - PRINT DISPERSION AND HYDROGEN BOND ENERGIES
 *******************************************************************************
PM7 1SCF GRADIENTS DISP RELSCF=0.0001 CHARGE=1
 Title: ASE calculation

   ATOM   CHEMICAL          X               Y               Z
  NUMBER   SYMBOL      (ANGSTROMS)     (ANGSTROMS)     (ANGSTROMS)

     1       C          2.37014902  *  -0.38053077  *   0.14396205  *
     2       C          0.95815863  *  -0.50412442  *   0.70853697  *
     3       C          0.11187766  *   0.77821010  *   0.43883955  *
     4       O          0.00571860  *   1.33844592  *   1.73402207  *
     5       C         -1.23787136  *   0.43810633  *  -0.07007293  *
     6       O         -1.70508785  *   1.30823899  *  -0.95301066  *
     7       C         -1.96678532  *  -0.73843210  *   0.42513740  *
     8       C         -1.08597835  *  -1.98162872  *   0.23037622  *
     9       C          0.33309224  *  -1.76572801  *   0.39587582  *
    10       H          2.36930962  *  -0.24356239  *  -0.94808948  *
    11       H          2.88951600  *   0.50234058  *   0.56332351  *
    12       H          3.01266305  *  -1.24196957  *   0.37207379  *
    13       H          1.07251331  *  -0.51020442  *   1.87820103  *
    14       H          0.65501836  *   1.49474997  *  -0.22742010  *
    15       H         -0.46543060  *   2.20405338  *   1.71676024  *
    16       H         -2.64910898  *   1.11976794  *  -1.22424282  *
    17       H         -2.95436684  *  -0.87366025  *  -0.06906244  *
    18       H         -2.21811655  *  -0.60109167  *   1.50859237  *
    19       H         -1.27677267  *  -2.42178029  *  -0.80165639  *
    20       H         -1.46411942  *  -2.83568876  *   0.86661150  *
    21       H          0.99756812  *  -2.64981722  *   0.27820672  *



          CARTESIAN COORDINATES 

    NO.       ATOM           X           Y           Z

     1         C          2.3701     -0.3805      0.1440
     2         C          0.9582     -0.5041      0.7085
     3         C          0.1119      0.7782      0.4388
     4         O          0.0057      1.3384      1.7340
     5         C         -1.2379      0.4381     -0.0701
     6         O         -1.7051      1.3082     -0.9530
     7         C         -1.9668     -0.7384      0.4251
     8         C         -1.0860     -1.9816      0.2304
     9         C          0.3331     -1.7657      0.3959
    10         H          2.3693     -0.2436     -0.9481
    11         H          2.8895      0.5023      0.5633
    12         H          3.0127     -1.2420      0.3721
    13         H          1.0725     -0.5102      1.8782
    14         H          0.6550      1.4947     -0.2274
    15         H         -0.4654      2.2041      1.7168
    16         H         -2.6491      1.1198     -1.2242
    17         H         -2.9544     -0.8737     -0.0691
    18         H         -2.2181     -0.6011      1.5086
    19         H         -1.2768     -2.4218     -0.8017
    20         H         -1.4641     -2.8357      0.8666
    21         H          0.9976     -2.6498      0.2782

 General Reference for PM7:
 "Optimization of Parameters for Semiempirical Methods VI: More Modifications to the 
 NDDO Approximations and Re-optimization of Parameters", J. J. P. Stewart, J. Mol. Mod., 1:32, 19 (2013)
 https://link.springer.com/article/10.1007/s00894-012-1667-x

           Empirical Formula: C7 H12 O2  =    21 atoms



      MOLECULAR POINT GROUP   :   C1  


          UHF CALCULATION, NO. OF ALPHA ELECTRONS =   26
                           NO. OF BETA  ELECTRONS =   25
  SCF CRITERION =    0.1000E-07

 -------------------------------------------------------------------------------
 PM7 1SCF GRADIENTS DISP RELSCF=0.0001 CHARGE=1
 Title: ASE calculation



     1SCF WAS SPECIFIED, SO BFGS WAS NOT USED                 
     SCF FIELD WAS ACHIEVED                                   


                              PM7 CALCULATION
                                                       MOPAC v23.2 Linux
                                                       Fri Sep 19 21:34:25 2025




          FINAL HEAT OF FORMATION =        113.62405 KCAL/MOL =     475.40302 KJ/MOL

          TOTAL ENERGY            =     -36981.38970 KCAL/MOL = ELECTRONIC ENERGY + CORE-CORE REPULSION
          ENERGY OF ATOMS         =      37097.27293 KCAL/MOL
                              SUM =        115.88323 KCAL/MOL
          DISPERSION ENERGY       =         -2.25918 KCAL/MOL
                              SUM =        113.62405 KCAL/MOL = FINAL HEAT OF FORMATION



          TOTAL ENERGY            =      -1603.66484 EV
          ELECTRONIC ENERGY       =      -8020.88620 EV 
          CORE-CORE REPULSION     =       6417.22136 EV
          COSMO AREA              =        165.34 SQUARE ANGSTROMS
          COSMO VOLUME            =        165.43 CUBIC ANGSTROMS

          GRADIENT NORM           =          0.75029          =       0.16373 PER ATOM
          IONIZATION POTENTIAL    =         12.425642 EV
          ALPHA SOMO LUMO (EV)    =        -12.426 -6.769
          BETA  SOMO LUMO (EV)    =        -14.656 -6.771
          NO. OF ALPHA ELECTRONS  =         26
          NO. OF BETA  ELECTRONS  =         25
          MOLECULAR WEIGHT        =        128.1706         POINT GROUP:  C1  

          MOLECULAR DIMENSIONS (Angstroms)

            Atom       Atom       Distance
            H    16    H    12     6.33890
            H    19    H    15     5.31659
            H    10    H    20     4.02702


          SCF CALCULATIONS        =          1

          WALL-CLOCK TIME         =      1.273 SECONDS
          COMPUTATION TIME        =      0.570 SECONDS

          LARGEST ATOMIC GRADIENTS

          Atom     Label                     Cartesian Gradients           Cartesian Coordinates       |Gradient|
                                           X          Y          Z        X          Y          Z

             6       O                   0.062     -0.100      0.250   -1.70509    1.30824   -0.95301      0.277
             5       C                  -0.241      0.032     -0.129   -1.23787    0.43811   -0.07007      0.275
            20       H                   0.003     -0.143     -0.200   -1.46412   -2.83569    0.86661      0.246
             8       C                   0.072     -0.076      0.184   -1.08598   -1.98163    0.23038      0.211
            12       H                   0.056     -0.019     -0.198    3.01266   -1.24197    0.37207      0.206
            11       H                   0.001     -0.122      0.156    2.88952    0.50234    0.56332      0.198
            18       H                  -0.122      0.156      0.000   -2.21812   -0.60109    1.50859      0.198
            13       H                  -0.110      0.115     -0.001    1.07251   -0.51020    1.87820      0.159
             3       C                   0.151      0.043      0.009    0.11188    0.77821    0.43884      0.157
             9       C                   0.127     -0.070     -0.042    0.33309   -1.76573    0.39588      0.151



       FINAL  POINT  AND  DERIVATIVES

   PARAMETER     ATOM    TYPE            VALUE        GRADIENT
      1          1  C    CARTESIAN X     2.370149      0.104863  KCAL/ANGSTROM
      2          1  C    CARTESIAN Y    -0.380531      0.007137  KCAL/ANGSTROM
      3          1  C    CARTESIAN Z     0.143962     -0.013419  KCAL/ANGSTROM
      4          2  C    CARTESIAN X     0.958159      0.057863  KCAL/ANGSTROM
      5          2  C    CARTESIAN Y    -0.504124      0.052100  KCAL/ANGSTROM
      6          2  C    CARTESIAN Z     0.708537      0.124298  KCAL/ANGSTROM
      7          3  C    CARTESIAN X     0.111878      0.150670  KCAL/ANGSTROM
      8          3  C    CARTESIAN Y     0.778210      0.042741  KCAL/ANGSTROM
      9          3  C    CARTESIAN Z     0.438840      0.008858  KCAL/ANGSTROM
     10          4  O    CARTESIAN X     0.005719     -0.026895  KCAL/ANGSTROM
     11          4  O    CARTESIAN Y     1.338446      0.071446  KCAL/ANGSTROM
     12          4  O    CARTESIAN Z     1.734022     -0.091918  KCAL/ANGSTROM
     13          5  C    CARTESIAN X    -1.237871     -0.241398  KCAL/ANGSTROM
     14          5  C    CARTESIAN Y     0.438106      0.032192  KCAL/ANGSTROM
     15          5  C    CARTESIAN Z    -0.070073     -0.128600  KCAL/ANGSTROM
     16          6  O    CARTESIAN X    -1.705088      0.062228  KCAL/ANGSTROM
     17          6  O    CARTESIAN Y     1.308239     -0.100138  KCAL/ANGSTROM
     18          6  O    CARTESIAN Z    -0.953011      0.250179  KCAL/ANGSTROM
     19          7  C    CARTESIAN X    -1.966785      0.031544  KCAL/ANGSTROM
     20          7  C    CARTESIAN Y    -0.738432      0.008776  KCAL/ANGSTROM
     21          7  C    CARTESIAN Z     0.425137     -0.119990  KCAL/ANGSTROM
     22          8  C    CARTESIAN X    -1.085978      0.071502  KCAL/ANGSTROM
     23          8  C    CARTESIAN Y    -1.981629     -0.076377  KCAL/ANGSTROM
     24          8  C    CARTESIAN Z     0.230376      0.183524  KCAL/ANGSTROM
     25          9  C    CARTESIAN X     0.333092      0.126671  KCAL/ANGSTROM
     26          9  C    CARTESIAN Y    -1.765728     -0.069778  KCAL/ANGSTROM
     27          9  C    CARTESIAN Z     0.395876     -0.042336  KCAL/ANGSTROM
     28         10  H    CARTESIAN X     2.369310      0.007609  KCAL/ANGSTROM
     29         10  H    CARTESIAN Y    -0.243562      0.035073  KCAL/ANGSTROM
     30         10  H    CARTESIAN Z    -0.948089      0.054367  KCAL/ANGSTROM
     31         11  H    CARTESIAN X     2.889516      0.000763  KCAL/ANGSTROM
     32         11  H    CARTESIAN Y     0.502341     -0.122104  KCAL/ANGSTROM
     33         11  H    CARTESIAN Z     0.563324      0.156342  KCAL/ANGSTROM
     34         12  H    CARTESIAN X     3.012663      0.056436  KCAL/ANGSTROM
     35         12  H    CARTESIAN Y    -1.241970     -0.018793  KCAL/ANGSTROM
     36         12  H    CARTESIAN Z     0.372074     -0.197668  KCAL/ANGSTROM
     37         13  H    CARTESIAN X     1.072513     -0.109891  KCAL/ANGSTROM
     38         13  H    CARTESIAN Y    -0.510204      0.115251  KCAL/ANGSTROM
     39         13  H    CARTESIAN Z     1.878201     -0.000855  KCAL/ANGSTROM
     40         14  H    CARTESIAN X     0.655018     -0.024187  KCAL/ANGSTROM
     41         14  H    CARTESIAN Y     1.494750      0.004110  KCAL/ANGSTROM
     42         14  H    CARTESIAN Z    -0.227420     -0.034200  KCAL/ANGSTROM
     43         15  H    CARTESIAN X    -0.465431      0.071814  KCAL/ANGSTROM
     44         15  H    CARTESIAN Y     2.204053     -0.048536  KCAL/ANGSTROM
     45         15  H    CARTESIAN Z     1.716760     -0.044942  KCAL/ANGSTROM
     46         16  H    CARTESIAN X    -2.649109     -0.060214  KCAL/ANGSTROM
     47         16  H    CARTESIAN Y     1.119768      0.022486  KCAL/ANGSTROM
     48         16  H    CARTESIAN Z    -1.224243     -0.011305  KCAL/ANGSTROM
     49         17  H    CARTESIAN X    -2.954367     -0.089107  KCAL/ANGSTROM
     50         17  H    CARTESIAN Y    -0.873660      0.033102  KCAL/ANGSTROM
     51         17  H    CARTESIAN Z    -0.069062      0.067361  KCAL/ANGSTROM
     52         18  H    CARTESIAN X    -2.218117     -0.121519  KCAL/ANGSTROM
     53         18  H    CARTESIAN Y    -0.601092      0.155788  KCAL/ANGSTROM
     54         18  H    CARTESIAN Z     1.508592      0.000478  KCAL/ANGSTROM
     55         19  H    CARTESIAN X    -1.276773     -0.060749  KCAL/ANGSTROM
     56         19  H    CARTESIAN Y    -2.421780     -0.075815  KCAL/ANGSTROM
     57         19  H    CARTESIAN Z    -0.801656      0.007697  KCAL/ANGSTROM
     58         20  H    CARTESIAN X    -1.464119      0.003306  KCAL/ANGSTROM
     59         20  H    CARTESIAN Y    -2.835689     -0.142720  KCAL/ANGSTROM
     60         20  H    CARTESIAN Z     0.866611     -0.199817  KCAL/ANGSTROM
     61         21  H    CARTESIAN X     0.997568     -0.011309  KCAL/ANGSTROM
     62         21  H    CARTESIAN Y    -2.649817      0.074059  KCAL/ANGSTROM
     63         21  H    CARTESIAN Z     0.278207      0.031941  KCAL/ANGSTROM




   ATOM   CHEMICAL          X               Y               Z
  NUMBER   SYMBOL      (ANGSTROMS)     (ANGSTROMS)     (ANGSTROMS)

     1       C          2.37014902  *  -0.38053077  *   0.14396205  *
     2       C          0.95815863  *  -0.50412442  *   0.70853697  *
     3       C          0.11187766  *   0.77821010  *   0.43883955  *
     4       O          0.00571860  *   1.33844592  *   1.73402207  *
     5       C         -1.23787136  *   0.43810633  *  -0.07007293  *
     6       O         -1.70508785  *   1.30823899  *  -0.95301066  *
     7       C         -1.96678532  *  -0.73843210  *   0.42513740  *
     8       C         -1.08597835  *  -1.98162872  *   0.23037622  *
     9       C          0.33309224  *  -1.76572801  *   0.39587582  *
    10       H          2.36930962  *  -0.24356239  *  -0.94808948  *
    11       H          2.88951600  *   0.50234058  *   0.56332351  *
    12       H          3.01266305  *  -1.24196957  *   0.37207379  *
    13       H          1.07251331  *  -0.51020442  *   1.87820103  *
    14       H          0.65501836  *   1.49474997  *  -0.22742010  *
    15       H         -0.46543060  *   2.20405338  *   1.71676024  *
    16       H         -2.64910898  *   1.11976794  *  -1.22424282  *
    17       H         -2.95436684  *  -0.87366025  *  -0.06906244  *
    18       H         -2.21811655  *  -0.60109167  *   1.50859237  *
    19       H         -1.27677267  *  -2.42178029  *  -0.80165639  *
    20       H         -1.46411942  *  -2.83568876  *   0.86661150  *
    21       H          0.99756812  *  -2.64981722  *   0.27820672  *

                             CARTESIAN COORDINATES

   1    C        2.370149016    -0.380530766     0.143962049
   2    C        0.958158627    -0.504124423     0.708536974
   3    C        0.111877664     0.778210103     0.438839548
   4    O        0.005718597     1.338445918     1.734022067
   5    C       -1.237871359     0.438106329    -0.070072930
   6    O       -1.705087853     1.308238989    -0.953010660
   7    C       -1.966785315    -0.738432096     0.425137404
   8    C       -1.085978353    -1.981628715     0.230376221
   9    C        0.333092239    -1.765728007     0.395875823
  10    H        2.369309624    -0.243562391    -0.948089479
  11    H        2.889515999     0.502340580     0.563323509
  12    H        3.012663050    -1.241969575     0.372073794
  13    H        1.072513306    -0.510204423     1.878201028
  14    H        0.655018356     1.494749970    -0.227420103
  15    H       -0.465430598     2.204053381     1.716760238
  16    H       -2.649108977     1.119767939    -1.224242819
  17    H       -2.954366841    -0.873660248    -0.069062440
  18    H       -2.218116555    -0.601091667     1.508592369
  19    H       -1.276772674    -2.421780295    -0.801656386
  20    H       -1.464119417    -2.835688756     0.866611497
  21    H        0.997568116    -2.649817223     0.278206722


           Empirical Formula: C7 H12 O2  =    21 atoms



      MOLECULAR POINT GROUP   :   C1  


          ALPHA EIGENVALUES  
 -36.01390 -34.78531 -33.32342 -32.19975 -30.09470 -28.36341 -26.56243 -25.48288
 -22.53331 -22.26993 -21.78165 -21.35483 -20.19557 -20.08809 -19.26887 -18.94515
 -18.70092 -18.33188 -17.62640 -17.13548 -16.94385 -16.86429 -16.51645 -16.26060
 -14.74705 -12.42564  -6.76943  -2.17081  -1.87221  -1.72502  -1.39138  -1.25747
  -1.00580  -0.72339  -0.60833  -0.53552  -0.19644  -0.00743   0.27758   0.55775
   1.03184   1.32671   1.41257   1.44387   1.79532   1.92442   2.28220   2.55700


           BETA EIGENVALUES 
 -35.94991 -34.18260 -33.17569 -32.12113 -29.93178 -28.31537 -26.52556 -25.33176
 -22.44740 -22.20793 -21.72115 -21.24149 -20.12999 -19.99165 -19.23721 -18.81062
 -18.40573 -18.27595 -17.52503 -16.94210 -16.90109 -16.51848 -16.22601 -16.14221
 -14.65650  -6.77132  -3.47453  -2.07315  -1.84355  -1.62914  -1.32167  -1.11491
  -0.78705  -0.61788  -0.50480  -0.48929  -0.01354   0.17876   0.29446   0.57598
   1.08669   1.32755   1.41413   1.46391   1.85605   2.08495   2.29665   2.55722


              NET ATOMIC CHARGES AND DIPOLE CONTRIBUTIONS

  ATOM NO.   TYPE          CHARGE      No. of ELECS.   s-Pop       p-Pop       
    1          C          -0.441984        4.4420     1.05548     3.38651
    2          C          -0.254189        4.2542     1.07611     3.17808
    3          C           0.185653        3.8143     1.08240     2.73195
    4          O          -0.567376        6.5674     1.85220     4.71518
    5          C          -0.035082        4.0351     1.08866     2.94642
    6          O          -0.354916        6.3549     1.83419     4.52073
    7          C          -0.275081        4.2751     1.05414     3.22094
    8          C          -0.388555        4.3886     1.06637     3.32219
    9          C           0.376604        3.6234     1.19979     2.42360
   10          H           0.177537        0.8225     0.82246
   11          H           0.198849        0.8012     0.80115
   12          H           0.171263        0.8287     0.82874
   13          H           0.293734        0.7063     0.70627
   14          H           0.174027        0.8260     0.82597
   15          H           0.357211        0.6428     0.64279
   16          H           0.337947        0.6621     0.66205
   17          H           0.180669        0.8193     0.81933
   18          H           0.195327        0.8047     0.80467
   19          H           0.250638        0.7494     0.74936
   20          H           0.242321        0.7577     0.75768
   21          H           0.175404        0.8246     0.82460
 DIPOLE           X         Y         Z       TOTAL
 POINT-CHG.     0.654    -6.234    -0.696     6.307
 HYBRID        -0.656    -0.055     0.074     0.662
 SUM           -0.002    -6.288    -0.622     6.319


          ATOMIC ORBITAL ELECTRON POPULATIONS

     Atom    s        px        py        pz   
    1  C   1.05548   0.98442   1.22355   1.17854
    2  C   1.07611   1.05005   0.99320   1.13482
    3  C   1.08240   0.95012   0.92718   0.85465
    4  O   1.85220   1.84555   1.52028   1.34934
    5  C   1.08866   0.99187   0.95813   0.99642
    6  O   1.83419   1.42245   1.52699   1.57129
    7  C   1.05414   1.07196   0.95623   1.19275
    8  C   1.06637   1.00135   1.13126   1.18958
    9  C   1.19979   1.01547   1.04290   0.36523
   10  H   0.82246
   11  H   0.80115
   12  H   0.82874
   13  H   0.70627
   14  H   0.82597
   15  H   0.64279
   16  H   0.66205
   17  H   0.81933
   18  H   0.80467
   19  H   0.74936
   20  H   0.75768
   21  H   0.82460


                    (SZ)    =    0.500000
                    (S**2)  =    0.752955


          ATOMIC ORBITAL SPIN POPULATIONS

    Atom   Total    s     px     py     pz   
         Atomic
    1  C -0.0007 -0.000 -0.000 -0.000 -0.000
    2  C  0.0103  0.001  0.003  0.005  0.001
    3  C -0.0444 -0.004 -0.018 -0.007 -0.015
    4  O  0.0467  0.002  0.005  0.002  0.038
    5  C  0.8143  0.022  0.138  0.239  0.416
    6  O  0.1756  0.008  0.027  0.045  0.096
    7  C -0.0412 -0.005 -0.008 -0.020 -0.008
    8  C  0.0274  0.005  0.007  0.014  0.002
    9  C -0.0013 -0.000 -0.001 -0.001 -0.000
   10  H  0.0001  0.000
   11  H  0.0000  0.000
   12  H  0.0002  0.000
   13  H -0.0007 -0.001
   14  H  0.0022  0.002
   15  H -0.0031 -0.003
   16  H -0.0074 -0.007
   17  H  0.0019  0.002
   18  H  0.0213  0.021
   19  H -0.0007 -0.001
   20  H -0.0009 -0.001
   21  H  0.0004  0.000

 **********************
 *                    *
 * JOB ENDED NORMALLY *
 *                    *
 **********************



 TOTAL JOB TIME:             1.73 SECONDS

 == MOPAC DONE ==
