 *******************************************************************************
 **                                                                           **
 **                              MOPAC v23.2                                  **
 **                                                                           **
 *******************************************************************************
 **          Digital Object Identifier (DOI): 10.5281/zenodo.6511958          **
 **    Visit the DOI location for information on how to cite this program.    **
 *******************************************************************************

                              PM7 CALCULATION RESULTS

 *******************************************************************************
 *  CALCULATION DONE: (MAX THREADS = 40)             Fri Sep 19 21:33:38 2025  *
 *  PM7        - The PM7 Hamiltonian to be used
 *
 *
 *
 *                 CHARGE ON SYSTEM = +1
 *
 *
 *
 *  1SCF       - DO 1 SCF AND THEN STOP 
 *  T=         - A TIME OF 172800.0 SECONDS REQUESTED
 *  DUMP=N     - RESTART FILE WRITTEN EVERY 7200.0 SECONDS REQUESTED
 *  RELSCF     - DEFAULT SCF CRITERION MULTIPLIED BY 0.0001
 *              (DEFAULT SCF CRITERION = 0.00010)
 *  GRADIENTS  - ALL GRADIENTS TO BE PRINTED
 *  DISP       - PRINT DISPERSION AND HYDROGEN BOND ENERGIES
 *******************************************************************************
PM7 1SCF GRADIENTS DISP RELSCF=0.0001 CHARGE=1
 Title: ASE calculation

   ATOM   CHEMICAL          X               Y               Z
  NUMBER   SYMBOL      (ANGSTROMS)     (ANGSTROMS)     (ANGSTROMS)

     1       C         -2.56964579  *   1.24501488  *  -0.50326991  *
     2       C         -2.08422092  *   0.06767409  *  -0.23321546  *
     3       C         -1.64131240  *  -1.18684142  *   0.03266162  *
     4       C          0.44975509  *  -1.08821769  *  -0.24257127  *
     5       O          0.43819350  *  -0.82457870  *  -1.51679794  *
     6       C          0.88176018  *  -0.10365806  *   0.78219541  *
     7       C          2.39558219  *   0.15769672  *   0.65267267  *
     8       C          2.68420593  *   0.83667288  *  -0.58813990  *
     9       N          2.87551557  *   1.37959968  *  -1.59025827  *
    10       H         -2.96953934  *   2.17722497  *  -0.71352732  *
    11       H         -1.78774984  *  -1.97829644  *  -0.71437298  *
    12       H         -1.57402199  *  -1.54350635  *   1.06459430  *
    13       H          0.52435721  *  -2.18345143  *  -0.08680811  *
    14       H          0.57686229  *   0.14681770  *  -1.79336289  *
    15       H          0.66154035  *  -0.47122374  *   1.81713339  *
    16       H          0.33055515  *   0.86542925  *   0.72127477  *
    17       H          2.98957105  *  -0.78735185  *   0.74989686  *
    18       H          2.74452232  *   0.77747754  *   1.52643142  *



          CARTESIAN COORDINATES 

    NO.       ATOM           X           Y           Z

     1         C         -2.5696      1.2450     -0.5033
     2         C         -2.0842      0.0677     -0.2332
     3         C         -1.6413     -1.1868      0.0327
     4         C          0.4498     -1.0882     -0.2426
     5         O          0.4382     -0.8246     -1.5168
     6         C          0.8818     -0.1037      0.7822
     7         C          2.3956      0.1577      0.6527
     8         C          2.6842      0.8367     -0.5881
     9         N          2.8755      1.3796     -1.5903
    10         H         -2.9695      2.1772     -0.7135
    11         H         -1.7877     -1.9783     -0.7144
    12         H         -1.5740     -1.5435      1.0646
    13         H          0.5244     -2.1835     -0.0868
    14         H          0.5769      0.1468     -1.7934
    15         H          0.6615     -0.4712      1.8171
    16         H          0.3306      0.8654      0.7213
    17         H          2.9896     -0.7874      0.7499
    18         H          2.7445      0.7775      1.5264

 General Reference for PM7:
 "Optimization of Parameters for Semiempirical Methods VI: More Modifications to the 
 NDDO Approximations and Re-optimization of Parameters", J. J. P. Stewart, J. Mol. Mod., 1:32, 19 (2013)
 https://link.springer.com/article/10.1007/s00894-012-1667-x

           Empirical Formula: C7 H9 N O  =    18 atoms



      MOLECULAR POINT GROUP   :   C1  


          UHF CALCULATION, NO. OF ALPHA ELECTRONS =   24
                           NO. OF BETA  ELECTRONS =   23
  SCF CRITERION =    0.1000E-07

 -------------------------------------------------------------------------------
 PM7 1SCF GRADIENTS DISP RELSCF=0.0001 CHARGE=1
 Title: ASE calculation



     1SCF WAS SPECIFIED, SO BFGS WAS NOT USED                 
     SCF FIELD WAS ACHIEVED                                   


                              PM7 CALCULATION
                                                       MOPAC v23.2 Linux
                                                       Fri Sep 19 21:33:40 2025




          FINAL HEAT OF FORMATION =        239.67866 KCAL/MOL =    1002.81551 KJ/MOL

          TOTAL ENERGY            =     -33469.37502 KCAL/MOL = ELECTRONIC ENERGY + CORE-CORE REPULSION
          ENERGY OF ATOMS         =      33709.16394 KCAL/MOL
                              SUM =        239.78892 KCAL/MOL
          DISPERSION ENERGY       =         -1.97655 KCAL/MOL
          H-BOND ENERGY           =         -0.17763 KCAL/MOL
                              SUM =        237.63474 KCAL/MOL = FINAL HEAT OF FORMATION

     *    WARNING - An energy term is incorrect or missing!

     *    FINAL HEAT OF FORMATION     =    239.67866 KCAL/MOL
     *    SUM OF CONTRIBUTIONS TO HoF =    237.63474 KCAL/MOL
     *                     DIFFERENCE =      2.04392 KCAL/MOL



          TOTAL ENERGY            =      -1451.36947 EV
          ELECTRONIC ENERGY       =      -6629.15336 EV 
          CORE-CORE REPULSION     =       5177.78389 EV
          COSMO AREA              =        175.52 SQUARE ANGSTROMS
          COSMO VOLUME            =        176.20 CUBIC ANGSTROMS

          GRADIENT NORM           =          1.01220          =       0.23858 PER ATOM
          IONIZATION POTENTIAL    =         14.327082 EV
          ALPHA SOMO LUMO (EV)    =        -14.327 -6.046
          BETA  SOMO LUMO (EV)    =        -15.236 -7.183
          NO. OF ALPHA ELECTRONS  =         24
          NO. OF BETA  ELECTRONS  =         23
          MOLECULAR WEIGHT        =        123.1542         POINT GROUP:  C1  

          MOLECULAR DIMENSIONS (Angstroms)

            Atom       Atom       Distance
            H    17    H    10     6.81479
            H    12    N     9     5.58500
            H    18    H    11     3.84694


          SCF CALCULATIONS        =          1

          WALL-CLOCK TIME         =      1.258 SECONDS
          COMPUTATION TIME        =      1.202 SECONDS

          LARGEST ATOMIC GRADIENTS

          Atom     Label                     Cartesian Gradients           Cartesian Coordinates       |Gradient|
                                           X          Y          Z        X          Y          Z

            15       H                  -0.172     -0.383     -0.009    0.66154   -0.47122    1.81713      0.420
             8       C                   0.294      0.206     -0.156    2.68421    0.83667   -0.58814      0.392
             2       C                  -0.242      0.194      0.228   -2.08422    0.06767   -0.23322      0.385
            16       H                   0.152      0.241      0.072    0.33056    0.86543    0.72127      0.294
             5       O                  -0.124      0.234     -0.018    0.43819   -0.82458   -1.51680      0.265
            17       H                   0.062      0.031      0.253    2.98957   -0.78735    0.74990      0.263
            14       H                  -0.126     -0.185     -0.114    0.57686    0.14682   -1.79336      0.251
             9       N                   0.045     -0.210      0.112    2.87552    1.37960   -1.59026      0.242
             1       C                   0.022     -0.217     -0.042   -2.56965    1.24501   -0.50327      0.222
             4       C                   0.183      0.082     -0.064    0.44976   -1.08822   -0.24257      0.211



       FINAL  POINT  AND  DERIVATIVES

   PARAMETER     ATOM    TYPE            VALUE        GRADIENT
      1          1  C    CARTESIAN X    -2.569646      0.022415  KCAL/ANGSTROM
      2          1  C    CARTESIAN Y     1.245015     -0.217200  KCAL/ANGSTROM
      3          1  C    CARTESIAN Z    -0.503270     -0.042116  KCAL/ANGSTROM
      4          2  C    CARTESIAN X    -2.084221     -0.241933  KCAL/ANGSTROM
      5          2  C    CARTESIAN Y     0.067674      0.194278  KCAL/ANGSTROM
      6          2  C    CARTESIAN Z    -0.233215      0.227739  KCAL/ANGSTROM
      7          3  C    CARTESIAN X    -1.641312      0.047729  KCAL/ANGSTROM
      8          3  C    CARTESIAN Y    -1.186841      0.006238  KCAL/ANGSTROM
      9          3  C    CARTESIAN Z     0.032662      0.071625  KCAL/ANGSTROM
     10          4  C    CARTESIAN X     0.449755      0.183166  KCAL/ANGSTROM
     11          4  C    CARTESIAN Y    -1.088218      0.082125  KCAL/ANGSTROM
     12          4  C    CARTESIAN Z    -0.242571     -0.064126  KCAL/ANGSTROM
     13          5  O    CARTESIAN X     0.438194     -0.124047  KCAL/ANGSTROM
     14          5  O    CARTESIAN Y    -0.824579      0.233867  KCAL/ANGSTROM
     15          5  O    CARTESIAN Z    -1.516798     -0.018495  KCAL/ANGSTROM
     16          6  C    CARTESIAN X     0.881760      0.014740  KCAL/ANGSTROM
     17          6  C    CARTESIAN Y    -0.103658      0.054131  KCAL/ANGSTROM
     18          6  C    CARTESIAN Z     0.782195      0.037809  KCAL/ANGSTROM
     19          7  C    CARTESIAN X     2.395582      0.010075  KCAL/ANGSTROM
     20          7  C    CARTESIAN Y     0.157697     -0.023232  KCAL/ANGSTROM
     21          7  C    CARTESIAN Z     0.652673     -0.042735  KCAL/ANGSTROM
     22          8  C    CARTESIAN X     2.684206      0.294360  KCAL/ANGSTROM
     23          8  C    CARTESIAN Y     0.836673      0.205971  KCAL/ANGSTROM
     24          8  C    CARTESIAN Z    -0.588140     -0.155576  KCAL/ANGSTROM
     25          9  N    CARTESIAN X     2.875516      0.044661  KCAL/ANGSTROM
     26          9  N    CARTESIAN Y     1.379600     -0.209550  KCAL/ANGSTROM
     27          9  N    CARTESIAN Z    -1.590258      0.112001  KCAL/ANGSTROM
     28         10  H    CARTESIAN X    -2.969539     -0.171609  KCAL/ANGSTROM
     29         10  H    CARTESIAN Y     2.177225     -0.017775  KCAL/ANGSTROM
     30         10  H    CARTESIAN Z    -0.713527     -0.117409  KCAL/ANGSTROM
     31         11  H    CARTESIAN X    -1.787750      0.081105  KCAL/ANGSTROM
     32         11  H    CARTESIAN Y    -1.978296      0.050281  KCAL/ANGSTROM
     33         11  H    CARTESIAN Z    -0.714373     -0.088151  KCAL/ANGSTROM
     34         12  H    CARTESIAN X    -1.574022     -0.044515  KCAL/ANGSTROM
     35         12  H    CARTESIAN Y    -1.543506     -0.023134  KCAL/ANGSTROM
     36         12  H    CARTESIAN Z     1.064594      0.077053  KCAL/ANGSTROM
     37         13  H    CARTESIAN X     0.524357     -0.008504  KCAL/ANGSTROM
     38         13  H    CARTESIAN Y    -2.183451      0.005417  KCAL/ANGSTROM
     39         13  H    CARTESIAN Z    -0.086808     -0.088943  KCAL/ANGSTROM
     40         14  H    CARTESIAN X     0.576862     -0.125931  KCAL/ANGSTROM
     41         14  H    CARTESIAN Y     0.146818     -0.184759  KCAL/ANGSTROM
     42         14  H    CARTESIAN Z    -1.793363     -0.114244  KCAL/ANGSTROM
     43         15  H    CARTESIAN X     0.661540     -0.171810  KCAL/ANGSTROM
     44         15  H    CARTESIAN Y    -0.471224     -0.383003  KCAL/ANGSTROM
     45         15  H    CARTESIAN Z     1.817133     -0.008701  KCAL/ANGSTROM
     46         16  H    CARTESIAN X     0.330555      0.151646  KCAL/ANGSTROM
     47         16  H    CARTESIAN Y     0.865429      0.240944  KCAL/ANGSTROM
     48         16  H    CARTESIAN Z     0.721275      0.071695  KCAL/ANGSTROM
     49         17  H    CARTESIAN X     2.989571      0.062403  KCAL/ANGSTROM
     50         17  H    CARTESIAN Y    -0.787352      0.030627  KCAL/ANGSTROM
     51         17  H    CARTESIAN Z     0.749897      0.253167  KCAL/ANGSTROM
     52         18  H    CARTESIAN X     2.744522     -0.023893  KCAL/ANGSTROM
     53         18  H    CARTESIAN Y     0.777478     -0.043348  KCAL/ANGSTROM
     54         18  H    CARTESIAN Z     1.526431     -0.110113  KCAL/ANGSTROM




   ATOM   CHEMICAL          X               Y               Z
  NUMBER   SYMBOL      (ANGSTROMS)     (ANGSTROMS)     (ANGSTROMS)

     1       C         -2.56964579  *   1.24501488  *  -0.50326991  *
     2       C         -2.08422092  *   0.06767409  *  -0.23321546  *
     3       C         -1.64131240  *  -1.18684142  *   0.03266162  *
     4       C          0.44975509  *  -1.08821769  *  -0.24257127  *
     5       O          0.43819350  *  -0.82457870  *  -1.51679794  *
     6       C          0.88176018  *  -0.10365806  *   0.78219541  *
     7       C          2.39558219  *   0.15769672  *   0.65267267  *
     8       C          2.68420593  *   0.83667288  *  -0.58813990  *
     9       N          2.87551557  *   1.37959968  *  -1.59025827  *
    10       H         -2.96953934  *   2.17722497  *  -0.71352732  *
    11       H         -1.78774984  *  -1.97829644  *  -0.71437298  *
    12       H         -1.57402199  *  -1.54350635  *   1.06459430  *
    13       H          0.52435721  *  -2.18345143  *  -0.08680811  *
    14       H          0.57686229  *   0.14681770  *  -1.79336289  *
    15       H          0.66154035  *  -0.47122374  *   1.81713339  *
    16       H          0.33055515  *   0.86542925  *   0.72127477  *
    17       H          2.98957105  *  -0.78735185  *   0.74989686  *
    18       H          2.74452232  *   0.77747754  *   1.52643142  *

                             CARTESIAN COORDINATES

   1    C       -2.569645791     1.245014879    -0.503269913
   2    C       -2.084220918     0.067674086    -0.233215464
   3    C       -1.641312398    -1.186841418     0.032661625
   4    C        0.449755094    -1.088217692    -0.242571273
   5    O        0.438193504    -0.824578700    -1.516797936
   6    C        0.881760184    -0.103658062     0.782195409
   7    C        2.395582188     0.157696716     0.652672667
   8    C        2.684205928     0.836672884    -0.588139896
   9    N        2.875515570     1.379599676    -1.590258268
  10    H       -2.969539338     2.177224972    -0.713527323
  11    H       -1.787749836    -1.978296436    -0.714372975
  12    H       -1.574021988    -1.543506352     1.064594303
  13    H        0.524357207    -2.183451429    -0.086808106
  14    H        0.576862286     0.146817698    -1.793362892
  15    H        0.661540348    -0.471223744     1.817133388
  16    H        0.330555150     0.865429251     0.721274774
  17    H        2.989571049    -0.787351846     0.749896859
  18    H        2.744522322     0.777477544     1.526431424


           Empirical Formula: C7 H9 N O  =    18 atoms



      MOLECULAR POINT GROUP   :   C1  


          ALPHA EIGENVALUES  
 -38.85679 -37.70221 -33.91847 -31.94217 -30.04862 -28.66500 -27.13236 -23.49975
 -23.34538 -22.73165 -21.55089 -21.04830 -20.32988 -20.23015 -19.74714 -19.24743
 -18.50362 -18.33304 -17.21590 -17.07649 -16.87037 -16.49317 -15.36958 -14.32708
  -6.04575  -3.84682  -3.57019  -3.54688  -2.97582  -2.70355  -2.33292  -1.47710
  -1.09106  -0.98882  -0.37820  -0.22478  -0.08679   0.38984   0.44448   0.62044
   0.79528   1.02994   1.11450   1.78449   1.86870


           BETA EIGENVALUES 
 -38.84248 -37.27084 -33.80042 -31.84993 -29.88526 -28.47928 -27.06519 -23.42546
 -23.24489 -22.64015 -21.47792 -20.72434 -20.25209 -20.12834 -19.67820 -18.97221
 -18.42781 -18.26650 -17.06789 -16.92519 -16.48218 -16.32766 -15.23633  -7.18341
  -4.92195  -3.73711  -3.37866  -2.98045  -2.79210  -2.70216  -2.29136  -1.46147
  -1.06761  -0.95850  -0.29464  -0.15635  -0.07666   0.44123   0.48106   0.70237
   0.80469   1.11017   1.14227   1.86855   1.86986


              NET ATOMIC CHARGES AND DIPOLE CONTRIBUTIONS

  ATOM NO.   TYPE          CHARGE      No. of ELECS.   s-Pop       p-Pop       
    1          C           0.042060        3.9579     1.19238     2.76556
    2          C          -0.137161        4.1372     1.10052     3.03664
    3          C          -0.226726        4.2267     1.11805     3.10868
    4          C           0.338935        3.6611     1.18247     2.47859
    5          O          -0.321092        6.3211     1.82944     4.49165
    6          C          -0.388072        4.3881     1.07060     3.31748
    7          C          -0.238367        4.2384     1.04506     3.19330
    8          C           0.048472        3.9515     1.11228     2.83925
    9          N          -0.165367        5.1654     1.83062     3.33475
   10          H           0.226544        0.7735     0.77346
   11          H           0.201669        0.7983     0.79833
   12          H           0.190004        0.8100     0.81000
   13          H           0.209252        0.7907     0.79075
   14          H           0.381270        0.6187     0.61873
   15          H           0.213365        0.7866     0.78663
   16          H           0.202021        0.7980     0.79798
   17          H           0.203646        0.7964     0.79635
   18          H           0.219546        0.7805     0.78045
 DIPOLE           X         Y         Z       TOTAL
 POINT-CHG.    -3.304    -2.451     3.680     5.520
 HYBRID        -0.320     0.185     0.072     0.377
 SUM           -3.624    -2.266     3.751     5.687


          ATOMIC ORBITAL ELECTRON POPULATIONS

     Atom    s        px        py        pz   
    1  C   1.19238   0.80543   0.98539   0.97475
    2  C   1.10052   1.01046   0.98547   1.04070
    3  C   1.11805   0.91819   1.03301   1.15748
    4  C   1.18247   0.62645   1.05610   0.79605
    5  O   1.82944   1.70406   1.47185   1.31575
    6  C   1.07060   1.05896   1.13534   1.12318
    7  C   1.04506   0.97064   1.17019   1.05248
    8  C   1.11228   0.95958   0.94747   0.93220
    9  N   1.83062   1.05089   1.09798   1.18588
   10  H   0.77346
   11  H   0.79833
   12  H   0.81000
   13  H   0.79075
   14  H   0.61873
   15  H   0.78663
   16  H   0.79798
   17  H   0.79635
   18  H   0.78045


                    (SZ)    =    0.500000
                    (S**2)  =    0.825683


          ATOMIC ORBITAL SPIN POPULATIONS

    Atom   Total    s     px     py     pz   
         Atomic
    1  C  0.6061  0.016  0.379  0.080  0.131
    2  C -0.3122 -0.015 -0.143 -0.042 -0.113
    3  C  0.4743  0.015  0.399  0.034  0.027
    4  C  0.1156 -0.003  0.116  0.006 -0.003
    5  O  0.1413  0.006  0.122  0.008  0.005
    6  C -0.0015 -0.000  0.001 -0.002 -0.001
    7  C  0.0106  0.001  0.008  0.001  0.000
    8  C -0.0015 -0.000 -0.001 -0.000 -0.000
    9  N  0.0017  0.000  0.001  0.000  0.000
   10  H -0.0148 -0.015
   11  H -0.0128 -0.013
   12  H -0.0104 -0.010
   13  H  0.0075  0.008
   14  H -0.0068 -0.007
   15  H -0.0002 -0.000
   16  H  0.0028  0.003
   17  H -0.0004 -0.000
   18  H  0.0006  0.001

 **********************
 *                    *
 * JOB ENDED NORMALLY *
 *                    *
 **********************



 TOTAL JOB TIME:             1.60 SECONDS

 == MOPAC DONE ==
