 *******************************************************************************
 **                                                                           **
 **                              MOPAC v23.2                                  **
 **                                                                           **
 *******************************************************************************
 **          Digital Object Identifier (DOI): 10.5281/zenodo.6511958          **
 **    Visit the DOI location for information on how to cite this program.    **
 *******************************************************************************

                              PM7 CALCULATION RESULTS

 *******************************************************************************
 *  CALCULATION DONE: (MAX THREADS = 40)             Fri Sep 19 21:34:33 2025  *
 *  PM7        - The PM7 Hamiltonian to be used
 *
 *
 *
 *                 CHARGE ON SYSTEM = +1
 *
 *
 *
 *  EPS=37.5   - USE ANDREAS KLAMT'S COSMO IMPLICIT SOLVATION MODEL
 *  1SCF       - DO 1 SCF AND THEN STOP 
 *  T=         - A TIME OF 172800.0 SECONDS REQUESTED
 *  DUMP=N     - RESTART FILE WRITTEN EVERY 7200.0 SECONDS REQUESTED
 *  RELSCF     - DEFAULT SCF CRITERION MULTIPLIED BY 0.0001
 *              (DEFAULT SCF CRITERION = 0.00010)
 *  GRADIENTS  - ALL GRADIENTS TO BE PRINTED
 *  DISP       - PRINT DISPERSION AND HYDROGEN BOND ENERGIES
 *******************************************************************************
PM7 1SCF GRADIENTS EPS=37.5 DISP RELSCF=0.0001 CHARGE=1
 Title: ASE calculation

   ATOM   CHEMICAL          X               Y               Z
  NUMBER   SYMBOL      (ANGSTROMS)     (ANGSTROMS)     (ANGSTROMS)

     1       C         -2.03633199  *   0.96978610  *  -0.68265059  *
     2       C         -0.58715202  *   0.86159902  *  -0.28256348  *
     3       C         -0.32658377  *   0.31461791  *   1.17254491  *
     4       C         -0.67619904  *  -1.22686476  *   1.01152557  *
     5       N          0.17911022  *  -1.39170532  *  -0.16491705  *
     6       C          0.20814207  *  -0.22312864  *  -1.04507651  *
     7       C          1.42041565  *  -0.65133284  *  -0.08678066  *
     8       C          1.25326156  *   0.22620761  *   1.21901434  *
     9       O          1.75037931  *   1.48119809  *   0.93318205  *
    10       H         -2.58288450  *   1.67682888  *  -0.03420630  *
    11       H         -2.58287103  *   0.02004188  *  -0.64860746  *
    12       H         -2.14778241  *   1.36106666  *  -1.70874269  *
    13       H         -0.08268785  *   1.85898491  *  -0.41340488  *
    14       H         -0.81887152  *   0.84470713  *   1.98853533  *
    15       H         -0.37349801  *  -1.85898491  *   1.87075721  *
    16       H         -1.75112672  *  -1.42306302  *   0.80937698  *
    17       H          0.26072924  *  -0.27327922  *  -2.13033675  *
    18       H          2.39009108  *  -0.96584780  *  -0.45802790  *
    19       H          1.67324742  *  -0.23008810  *   2.13033675  *
    20       H          2.58288450  *   1.68818253  *   1.43516409  *



          CARTESIAN COORDINATES 

    NO.       ATOM           X           Y           Z

     1         C         -2.0363      0.9698     -0.6827
     2         C         -0.5872      0.8616     -0.2826
     3         C         -0.3266      0.3146      1.1725
     4         C         -0.6762     -1.2269      1.0115
     5         N          0.1791     -1.3917     -0.1649
     6         C          0.2081     -0.2231     -1.0451
     7         C          1.4204     -0.6513     -0.0868
     8         C          1.2533      0.2262      1.2190
     9         O          1.7504      1.4812      0.9332
    10         H         -2.5829      1.6768     -0.0342
    11         H         -2.5829      0.0200     -0.6486
    12         H         -2.1478      1.3611     -1.7087
    13         H         -0.0827      1.8590     -0.4134
    14         H         -0.8189      0.8447      1.9885
    15         H         -0.3735     -1.8590      1.8708
    16         H         -1.7511     -1.4231      0.8094
    17         H          0.2607     -0.2733     -2.1303
    18         H          2.3901     -0.9658     -0.4580
    19         H          1.6732     -0.2301      2.1303
    20         H          2.5829      1.6882      1.4352

 General Reference for PM7:
 "Optimization of Parameters for Semiempirical Methods VI: More Modifications to the 
 NDDO Approximations and Re-optimization of Parameters", J. J. P. Stewart, J. Mol. Mod., 1:32, 19 (2013)
 https://link.springer.com/article/10.1007/s00894-012-1667-x

           Empirical Formula: C7 H11 N O  =    20 atoms



      MOLECULAR POINT GROUP   :   C1  


          UHF CALCULATION, NO. OF ALPHA ELECTRONS =   25
                           NO. OF BETA  ELECTRONS =   24
  SCF CRITERION =    0.1000E-07

 -------------------------------------------------------------------------------
 PM7 1SCF GRADIENTS EPS=37.5 DISP RELSCF=0.0001 CHARGE=1
 Title: ASE calculation



     1SCF WAS SPECIFIED, SO BFGS WAS NOT USED                 
     SCF FIELD WAS ACHIEVED                                   


                              PM7 CALCULATION
                                                       MOPAC v23.2 Linux
                                                       Fri Sep 19 21:34:34 2025




          FINAL HEAT OF FORMATION =        160.69057 KCAL/MOL =     672.32936 KJ/MOL

          TOTAL ENERGY            =     -34161.48180 KCAL/MOL = ELECTRONIC ENERGY + CORE-CORE REPULSION + SOLVATION ENERGY
          ENERGY OF ATOMS         =      34323.93363 KCAL/MOL
                              SUM =        162.45183 KCAL/MOL
          DISPERSION ENERGY       =         -1.76126 KCAL/MOL
                              SUM =        160.69057 KCAL/MOL = FINAL HEAT OF FORMATION

          VAN DER WAALS AREA      =        155.58 SQUARE ANGSTROMS


          TOTAL ENERGY            =      -1481.38206 EV
          ELECTRONIC ENERGY       =      -2474.27429 EV 
          CORE-CORE REPULSION     =        992.89223 EV

          DIELECTRIC ENERGY       =         -2.30246 EV
          COSMO AREA              =        155.58 SQUARE ANGSTROMS
          COSMO VOLUME            =        156.95 CUBIC ANGSTROMS

          GRADIENT NORM           =         10.93129          =       2.44431 PER ATOM
          IONIZATION POTENTIAL    =         11.526190 EV
          ALPHA SOMO LUMO (EV)    =        -11.526  0.121
          BETA  SOMO LUMO (EV)    =        -11.547 -3.746
          NO. OF ALPHA ELECTRONS  =         25
          NO. OF BETA  ELECTRONS  =         24
          MOLECULAR WEIGHT        =        125.1700         POINT GROUP:  C1  

          MOLECULAR DIMENSIONS (Angstroms)

            Atom       Atom       Distance
            H    20    H    11     5.81462
            H    12    H    15     4.75230
            H    18    H    14     4.17673


          SCF CALCULATIONS        =          2

          WALL-CLOCK TIME         =      1.438 SECONDS
          COMPUTATION TIME        =      1.041 SECONDS

          LARGEST ATOMIC GRADIENTS

          Atom     Label                     Cartesian Gradients           Cartesian Coordinates       |Gradient|
                                           X          Y          Z        X          Y          Z

             8       C                   3.318      4.133      2.797    1.25326    0.22621    1.21901      5.992
             1       C                   2.786     -3.350      0.959   -2.03633    0.96979   -0.68265      4.461
             9       O                  -0.625     -3.961      0.169    1.75038    1.48120    0.93318      4.013
             7       C                   1.727     -2.468     -0.449    1.42042   -0.65133   -0.08678      3.046
            20       H                  -1.178      1.855     -0.971    2.58288    1.68818    1.43516      2.403
             4       C                  -0.299     -2.144      0.999   -0.67620   -1.22686    1.01153      2.384
            13       H                   0.871      1.949      0.269   -0.08269    1.85898   -0.41340      2.152
             6       C                   0.569      0.381     -1.797    0.20814   -0.22313   -1.04508      1.923
            10       H                  -1.153      1.467     -0.364   -2.58288    1.67683   -0.03421      1.901
            12       H                  -1.133      1.152     -0.456   -2.14778    1.36107   -1.70874      1.679



       FINAL  POINT  AND  DERIVATIVES

   PARAMETER     ATOM    TYPE            VALUE        GRADIENT
      1          1  C    CARTESIAN X    -2.036332      2.785720  KCAL/ANGSTROM
      2          1  C    CARTESIAN Y     0.969786     -3.349677  KCAL/ANGSTROM
      3          1  C    CARTESIAN Z    -0.682651      0.959316  KCAL/ANGSTROM
      4          2  C    CARTESIAN X    -0.587152     -1.437813  KCAL/ANGSTROM
      5          2  C    CARTESIAN Y     0.861599     -0.561996  KCAL/ANGSTROM
      6          2  C    CARTESIAN Z    -0.282563      0.172548  KCAL/ANGSTROM
      7          3  C    CARTESIAN X    -0.326584      0.173903  KCAL/ANGSTROM
      8          3  C    CARTESIAN Y     0.314618     -0.085606  KCAL/ANGSTROM
      9          3  C    CARTESIAN Z     1.172545      0.256891  KCAL/ANGSTROM
     10          4  C    CARTESIAN X    -0.676199     -0.299032  KCAL/ANGSTROM
     11          4  C    CARTESIAN Y    -1.226865     -2.144373  KCAL/ANGSTROM
     12          4  C    CARTESIAN Z     1.011526      0.998929  KCAL/ANGSTROM
     13          5  N    CARTESIAN X     0.179110     -0.297058  KCAL/ANGSTROM
     14          5  N    CARTESIAN Y    -1.391705     -1.380069  KCAL/ANGSTROM
     15          5  N    CARTESIAN Z    -0.164917     -0.844934  KCAL/ANGSTROM
     16          6  C    CARTESIAN X     0.208142      0.569103  KCAL/ANGSTROM
     17          6  C    CARTESIAN Y    -0.223129      0.381449  KCAL/ANGSTROM
     18          6  C    CARTESIAN Z    -1.045077     -1.796748  KCAL/ANGSTROM
     19          7  C    CARTESIAN X     1.420416      1.727122  KCAL/ANGSTROM
     20          7  C    CARTESIAN Y    -0.651333     -2.467909  KCAL/ANGSTROM
     21          7  C    CARTESIAN Z    -0.086781     -0.449083  KCAL/ANGSTROM
     22          8  C    CARTESIAN X     1.253262      3.318029  KCAL/ANGSTROM
     23          8  C    CARTESIAN Y     0.226208      4.132541  KCAL/ANGSTROM
     24          8  C    CARTESIAN Z     1.219014      2.796552  KCAL/ANGSTROM
     25          9  O    CARTESIAN X     1.750379     -0.624655  KCAL/ANGSTROM
     26          9  O    CARTESIAN Y     1.481198     -3.960861  KCAL/ANGSTROM
     27          9  O    CARTESIAN Z     0.933182      0.169040  KCAL/ANGSTROM
     28         10  H    CARTESIAN X    -2.582885     -1.152878  KCAL/ANGSTROM
     29         10  H    CARTESIAN Y     1.676829      1.467399  KCAL/ANGSTROM
     30         10  H    CARTESIAN Z    -0.034206     -0.363992  KCAL/ANGSTROM
     31         11  H    CARTESIAN X    -2.582871     -0.876908  KCAL/ANGSTROM
     32         11  H    CARTESIAN Y     0.020042      1.110114  KCAL/ANGSTROM
     33         11  H    CARTESIAN Z    -0.648607     -0.637496  KCAL/ANGSTROM
     34         12  H    CARTESIAN X    -2.147782     -1.133374  KCAL/ANGSTROM
     35         12  H    CARTESIAN Y     1.361067      1.151539  KCAL/ANGSTROM
     36         12  H    CARTESIAN Z    -1.708743     -0.455824  KCAL/ANGSTROM
     37         13  H    CARTESIAN X    -0.082688      0.870640  KCAL/ANGSTROM
     38         13  H    CARTESIAN Y     1.858985      1.949176  KCAL/ANGSTROM
     39         13  H    CARTESIAN Z    -0.413405      0.268719  KCAL/ANGSTROM
     40         14  H    CARTESIAN X    -0.818872     -0.177485  KCAL/ANGSTROM
     41         14  H    CARTESIAN Y     0.844707      1.324975  KCAL/ANGSTROM
     42         14  H    CARTESIAN Z     1.988535      0.158657  KCAL/ANGSTROM
     43         15  H    CARTESIAN X    -0.373498     -0.196658  KCAL/ANGSTROM
     44         15  H    CARTESIAN Y    -1.858985      0.012030  KCAL/ANGSTROM
     45         15  H    CARTESIAN Z     1.870757     -0.094849  KCAL/ANGSTROM
     46         16  H    CARTESIAN X    -1.751127     -0.631431  KCAL/ANGSTROM
     47         16  H    CARTESIAN Y    -1.423063      0.033766  KCAL/ANGSTROM
     48         16  H    CARTESIAN Z     0.809377     -0.240020  KCAL/ANGSTROM
     49         17  H    CARTESIAN X     0.260729     -0.548589  KCAL/ANGSTROM
     50         17  H    CARTESIAN Y    -0.273279      0.273079  KCAL/ANGSTROM
     51         17  H    CARTESIAN Z    -2.130337      0.402263  KCAL/ANGSTROM
     52         18  H    CARTESIAN X     2.390091     -0.427635  KCAL/ANGSTROM
     53         18  H    CARTESIAN Y    -0.965848      0.875384  KCAL/ANGSTROM
     54         18  H    CARTESIAN Z    -0.458028     -0.151857  KCAL/ANGSTROM
     55         19  H    CARTESIAN X     1.673247     -0.462742  KCAL/ANGSTROM
     56         19  H    CARTESIAN Y    -0.230088     -0.616208  KCAL/ANGSTROM
     57         19  H    CARTESIAN Z     2.130337     -0.177390  KCAL/ANGSTROM
     58         20  H    CARTESIAN X     2.582885     -1.178263  KCAL/ANGSTROM
     59         20  H    CARTESIAN Y     1.688183      1.855244  KCAL/ANGSTROM
     60         20  H    CARTESIAN Z     1.435164     -0.970726  KCAL/ANGSTROM




   ATOM   CHEMICAL          X               Y               Z
  NUMBER   SYMBOL      (ANGSTROMS)     (ANGSTROMS)     (ANGSTROMS)

     1       C         -2.03633199  *   0.96978610  *  -0.68265059  *
     2       C         -0.58715202  *   0.86159902  *  -0.28256348  *
     3       C         -0.32658377  *   0.31461791  *   1.17254491  *
     4       C         -0.67619904  *  -1.22686476  *   1.01152557  *
     5       N          0.17911022  *  -1.39170532  *  -0.16491705  *
     6       C          0.20814207  *  -0.22312864  *  -1.04507651  *
     7       C          1.42041565  *  -0.65133284  *  -0.08678066  *
     8       C          1.25326156  *   0.22620761  *   1.21901434  *
     9       O          1.75037931  *   1.48119809  *   0.93318205  *
    10       H         -2.58288450  *   1.67682888  *  -0.03420630  *
    11       H         -2.58287103  *   0.02004188  *  -0.64860746  *
    12       H         -2.14778241  *   1.36106666  *  -1.70874269  *
    13       H         -0.08268785  *   1.85898491  *  -0.41340488  *
    14       H         -0.81887152  *   0.84470713  *   1.98853533  *
    15       H         -0.37349801  *  -1.85898491  *   1.87075721  *
    16       H         -1.75112672  *  -1.42306302  *   0.80937698  *
    17       H          0.26072924  *  -0.27327922  *  -2.13033675  *
    18       H          2.39009108  *  -0.96584780  *  -0.45802790  *
    19       H          1.67324742  *  -0.23008810  *   2.13033675  *
    20       H          2.58288450  *   1.68818253  *   1.43516409  *

                             CARTESIAN COORDINATES

   1    C       -2.036331989     0.969786099    -0.682650593
   2    C       -0.587152021     0.861599025    -0.282563480
   3    C       -0.326583772     0.314617908     1.172544912
   4    C       -0.676199038    -1.226864760     1.011525570
   5    N        0.179110221    -1.391705320    -0.164917054
   6    C        0.208142075    -0.223128640    -1.045076511
   7    C        1.420415652    -0.651332836    -0.086780657
   8    C        1.253261557     0.226207610     1.219014336
   9    O        1.750379307     1.481198087     0.933182050
  10    H       -2.582884501     1.676828882    -0.034206305
  11    H       -2.582871031     0.020041883    -0.648607461
  12    H       -2.147782415     1.361066658    -1.708742694
  13    H       -0.082687849     1.858984908    -0.413404883
  14    H       -0.818871524     0.844707131     1.988535329
  15    H       -0.373498010    -1.858984908     1.870757211
  16    H       -1.751126724    -1.423063023     0.809376982
  17    H        0.260729237    -0.273279224    -2.130336750
  18    H        2.390091075    -0.965847797    -0.458027898
  19    H        1.673247421    -0.230088103     2.130336750
  20    H        2.582884501     1.688182530     1.435164087


           Empirical Formula: C7 H11 N O  =    20 atoms



      MOLECULAR POINT GROUP   :   C1  


          ALPHA EIGENVALUES  
 -40.18551 -30.76645 -29.10790 -27.48884 -26.65502 -23.61241 -21.59687 -20.88649
 -20.32879 -18.97743 -18.70190 -17.86149 -16.71680 -15.42225 -14.97939 -14.80953
 -14.68065 -14.46447 -13.92257 -13.57788 -13.14242 -12.64806 -12.35883 -12.09009
 -11.52619   0.12062   0.26257   1.49514   1.69755   1.88252   2.08765   2.33081
   2.39708   2.61696   2.99725   3.71712   4.49444   4.65507   4.73315   4.74658
   4.98975   5.09736   5.27177   5.34668   5.44372   5.53122   6.55122


           BETA EIGENVALUES 
 -39.27824 -30.59701 -28.86351 -27.33136 -26.36168 -23.50182 -21.26383 -20.73410
 -20.17676 -18.67983 -18.22461 -17.67713 -16.54536 -15.23694 -14.90070 -14.65862
 -14.39887 -14.28778 -13.78546 -13.17940 -12.85040 -12.58170 -12.12017 -11.54667
  -3.74551   0.54835   0.66902   1.68466   1.76056   2.04174   2.22055   2.41107
   2.49728   2.87754   3.16117   3.73108   4.50929   4.70781   4.75831   4.79121
   5.01377   5.10802   5.28602   5.34735   5.44852   5.53544   6.55176


              NET ATOMIC CHARGES AND DIPOLE CONTRIBUTIONS

  ATOM NO.   TYPE          CHARGE      No. of ELECS.   s-Pop       p-Pop       
    1          C          -0.465871        4.4659     1.05120     3.41467
    2          C          -0.111917        4.1119     1.08197     3.02995
    3          C          -0.157963        4.1580     1.11906     3.03891
    4          C          -0.171489        4.1715     1.10563     3.06586
    5          N          -0.002867        5.0029     1.64377     3.35909
    6          C          -0.003814        4.0038     1.13764     2.86617
    7          C          -0.077734        4.0777     1.14555     2.93218
    8          C           0.155319        3.8447     1.11371     2.73097
    9          O          -0.564222        6.5642     1.83939     4.72483
   10          H           0.176258        0.8237     0.82374
   11          H           0.165899        0.8341     0.83410
   12          H           0.175846        0.8242     0.82415
   13          H           0.203311        0.7967     0.79669
   14          H           0.201842        0.7982     0.79816
   15          H           0.212815        0.7872     0.78718
   16          H           0.214322        0.7857     0.78568
   17          H           0.238238        0.7618     0.76176
   18          H           0.243472        0.7565     0.75653
   19          H           0.182307        0.8177     0.81769
   20          H           0.386247        0.6138     0.61375
 DIPOLE           X         Y         Z       TOTAL
 POINT-CHG.     0.869    -2.488     1.030     2.830
 HYBRID         0.242    -0.441    -0.174     0.532
 SUM            1.111    -2.929     0.856     3.248


          ATOMIC ORBITAL ELECTRON POPULATIONS

     Atom    s        px        py        pz   
    1  C   1.05120   1.01688   1.20255   1.19525
    2  C   1.08197   1.02478   1.06944   0.93572
    3  C   1.11906   1.00892   0.95142   1.07856
    4  C   1.10563   1.09913   1.02259   0.94414
    5  N   1.64377   1.17740   1.00575   1.17594
    6  C   1.13764   0.95967   0.83968   1.06682
    7  C   1.14555   0.97802   0.89499   1.05916
    8  C   1.11371   0.94113   0.80103   0.98881
    9  O   1.83939   1.57061   1.40005   1.75417
   10  H   0.82374
   11  H   0.83410
   12  H   0.82415
   13  H   0.79669
   14  H   0.79816
   15  H   0.78718
   16  H   0.78568
   17  H   0.76176
   18  H   0.75653
   19  H   0.81769
   20  H   0.61375


                    (SZ)    =    0.500000
                    (S**2)  =    0.756306


          ATOMIC ORBITAL SPIN POPULATIONS

    Atom   Total    s     px     py     pz   
         Atomic
    1  C  0.0005  0.000  0.000 -0.000  0.000
    2  C  0.0111  0.000 -0.001  0.012  0.001
    3  C  0.0743  0.004  0.012  0.055  0.003
    4  C -0.0132 -0.005 -0.012  0.007 -0.003
    5  N  0.7321  0.059  0.033  0.523  0.118
    6  C  0.0714 -0.004  0.051  0.032 -0.008
    7  C  0.0707 -0.006 -0.021  0.097  0.000
    8  C  0.0152  0.001  0.000  0.005  0.009
    9  O  0.0169  0.000  0.004  0.011  0.002
   10  H  0.0000  0.000
   11  H  0.0003  0.000
   12  H -0.0001 -0.000
   13  H  0.0035  0.004
   14  H  0.0004  0.000
   15  H  0.0013  0.001
   16  H  0.0028  0.003
   17  H  0.0055  0.005
   18  H  0.0086  0.009
   19  H -0.0006 -0.001
   20  H -0.0009 -0.001

 **********************
 *                    *
 * JOB ENDED NORMALLY *
 *                    *
 **********************



 TOTAL JOB TIME:             1.88 SECONDS

 == MOPAC DONE ==
