 *******************************************************************************
 **                                                                           **
 **                              MOPAC v23.2                                  **
 **                                                                           **
 *******************************************************************************
 **          Digital Object Identifier (DOI): 10.5281/zenodo.6511958          **
 **    Visit the DOI location for information on how to cite this program.    **
 *******************************************************************************

                              PM7 CALCULATION RESULTS

 *******************************************************************************
 *  CALCULATION DONE: (MAX THREADS = 40)             Fri Sep 19 21:32:16 2025  *
 *  PM7        - The PM7 Hamiltonian to be used
 *
 *
 *
 *                 CHARGE ON SYSTEM = +1
 *
 *
 *
 *  EPS=37.5   - USE ANDREAS KLAMT'S COSMO IMPLICIT SOLVATION MODEL
 *  1SCF       - DO 1 SCF AND THEN STOP 
 *  T=         - A TIME OF 172800.0 SECONDS REQUESTED
 *  DUMP=N     - RESTART FILE WRITTEN EVERY 7200.0 SECONDS REQUESTED
 *  RELSCF     - DEFAULT SCF CRITERION MULTIPLIED BY 0.0001
 *              (DEFAULT SCF CRITERION = 0.00010)
 *  GRADIENTS  - ALL GRADIENTS TO BE PRINTED
 *  DISP       - PRINT DISPERSION AND HYDROGEN BOND ENERGIES
 *******************************************************************************
PM7 1SCF GRADIENTS EPS=37.5 DISP RELSCF=0.0001 CHARGE=1
 Title: ASE calculation

   ATOM   CHEMICAL          X               Y               Z
  NUMBER   SYMBOL      (ANGSTROMS)     (ANGSTROMS)     (ANGSTROMS)

     1       C         -2.34436672  *   0.13449668  *  -0.89242864  *
     2       C         -0.90764568  *   0.17399860  *  -0.60747249  *
     3       C         -0.20101413  *   1.36753311  *  -0.49075791  *
     4       C          1.17473052  *   1.34849462  *  -0.27871309  *
     5       C          1.84328084  *   0.11933574  *  -0.28797940  *
     6       O          0.16943353  *  -1.34580385  *   1.92123308  *
     7       C         -0.52869001  *  -1.67012151  *   1.01249649  *
     8       C         -0.19160018  *  -1.10358813  *  -0.41639178  *
     9       O          1.24653413  *  -1.03002801  *  -0.43789777  *
    10       H         -2.56927183  *   0.49655184  *  -1.92123308  *
    11       H         -2.93572039  *   0.80450695  *  -0.23331180  *
    12       H         -2.80992318  *  -0.86241265  *  -0.82150146  *
    13       H         -0.72863994  *   2.33033323  *  -0.57618044  *
    14       H          1.73835400  *   2.28140948  *  -0.13768197  *
    15       H          2.93572039  *  -0.03693374  *  -0.22464881  *
    16       H         -1.39926441  *  -2.33033323  *   1.05881133  *
    17       H         -0.39328649  *  -1.87031985  *  -1.21125560  *



          CARTESIAN COORDINATES 

    NO.       ATOM           X           Y           Z

     1         C         -2.3444      0.1345     -0.8924
     2         C         -0.9076      0.1740     -0.6075
     3         C         -0.2010      1.3675     -0.4908
     4         C          1.1747      1.3485     -0.2787
     5         C          1.8433      0.1193     -0.2880
     6         O          0.1694     -1.3458      1.9212
     7         C         -0.5287     -1.6701      1.0125
     8         C         -0.1916     -1.1036     -0.4164
     9         O          1.2465     -1.0300     -0.4379
    10         H         -2.5693      0.4966     -1.9212
    11         H         -2.9357      0.8045     -0.2333
    12         H         -2.8099     -0.8624     -0.8215
    13         H         -0.7286      2.3303     -0.5762
    14         H          1.7384      2.2814     -0.1377
    15         H          2.9357     -0.0369     -0.2246
    16         H         -1.3993     -2.3303      1.0588
    17         H         -0.3933     -1.8703     -1.2113

 General Reference for PM7:
 "Optimization of Parameters for Semiempirical Methods VI: More Modifications to the 
 NDDO Approximations and Re-optimization of Parameters", J. J. P. Stewart, J. Mol. Mod., 1:32, 19 (2013)
 https://link.springer.com/article/10.1007/s00894-012-1667-x

           Empirical Formula: C7 H8 O2  =    17 atoms



      MOLECULAR POINT GROUP   :   C1  


          UHF CALCULATION, NO. OF ALPHA ELECTRONS =   24
                           NO. OF BETA  ELECTRONS =   23
  SCF CRITERION =    0.1000E-07

 -------------------------------------------------------------------------------
 PM7 1SCF GRADIENTS EPS=37.5 DISP RELSCF=0.0001 CHARGE=1
 Title: ASE calculation



     1SCF WAS SPECIFIED, SO BFGS WAS NOT USED                 
     SCF FIELD WAS ACHIEVED                                   


                              PM7 CALCULATION
                                                       MOPAC v23.2 Linux
                                                       Fri Sep 19 21:32:17 2025




          FINAL HEAT OF FORMATION =         83.19792 KCAL/MOL =     348.10009 KJ/MOL

          TOTAL ENERGY            =     -35782.71109 KCAL/MOL = ELECTRONIC ENERGY + CORE-CORE REPULSION + SOLVATION ENERGY
          ENERGY OF ATOMS         =      35867.73354 KCAL/MOL
                              SUM =         85.02245 KCAL/MOL
          DISPERSION ENERGY       =         -1.82453 KCAL/MOL
                              SUM =         83.19792 KCAL/MOL = FINAL HEAT OF FORMATION

          VAN DER WAALS AREA      =        155.17 SQUARE ANGSTROMS


          TOTAL ENERGY            =      -1551.68521 EV
          ELECTRONIC ENERGY       =      -2259.51504 EV 
          CORE-CORE REPULSION     =        707.82983 EV

          DIELECTRIC ENERGY       =         -2.40976 EV
          COSMO AREA              =        155.17 SQUARE ANGSTROMS
          COSMO VOLUME            =        154.17 CUBIC ANGSTROMS

          GRADIENT NORM           =         27.20665          =       6.59858 PER ATOM
          IONIZATION POTENTIAL    =          9.888200 EV
          ALPHA SOMO LUMO (EV)    =         -9.888 -1.756
          BETA  SOMO LUMO (EV)    =        -11.330 -3.012
          NO. OF ALPHA ELECTRONS  =         24
          NO. OF BETA  ELECTRONS  =         23
          MOLECULAR WEIGHT        =        124.1390         POINT GROUP:  C1  

          MOLECULAR DIMENSIONS (Angstroms)

            Atom       Atom       Distance
            H    15    H    11     5.93143
            H    16    H    14     5.15193
            O     6    H    10     3.39823


          SCF CALCULATIONS        =          2

          WALL-CLOCK TIME         =      1.250 SECONDS
          COMPUTATION TIME        =      0.502 SECONDS

          LARGEST ATOMIC GRADIENTS

          Atom     Label                     Cartesian Gradients           Cartesian Coordinates       |Gradient|
                                           X          Y          Z        X          Y          Z

             7       C                   5.677     -0.934     19.745   -0.52869   -1.67012    1.01250     20.566
             6       O                  -6.581     -2.055    -11.094    0.16943   -1.34580    1.92123     13.062
             8       C                   0.008      1.555     -8.398   -0.19160   -1.10359   -0.41639      8.540
             4       C                   4.923     -2.519     -0.596    1.17473    1.34849   -0.27871      5.562
             5       C                  -0.324      3.091      1.591    1.84328    0.11934   -0.28798      3.492
             9       O                  -0.478     -1.980     -1.064    1.24653   -1.03003   -0.43790      2.298
             3       C                  -1.933     -0.390      0.001   -0.20101    1.36753   -0.49076      1.972
            16       H                   0.731      0.522     -1.689   -1.39926   -2.33033    1.05881      1.913
             1       C                   1.642     -0.888      0.300   -2.34437    0.13450   -0.89243      1.891
            17       H                   0.693      1.073      1.246   -0.39329   -1.87032   -1.21126      1.784



       FINAL  POINT  AND  DERIVATIVES

   PARAMETER     ATOM    TYPE            VALUE        GRADIENT
      1          1  C    CARTESIAN X    -2.344367      1.642076  KCAL/ANGSTROM
      2          1  C    CARTESIAN Y     0.134497     -0.887699  KCAL/ANGSTROM
      3          1  C    CARTESIAN Z    -0.892429      0.299927  KCAL/ANGSTROM
      4          2  C    CARTESIAN X    -0.907646      1.402428  KCAL/ANGSTROM
      5          2  C    CARTESIAN Y     0.173999      0.120730  KCAL/ANGSTROM
      6          2  C    CARTESIAN Z    -0.607472      0.297397  KCAL/ANGSTROM
      7          3  C    CARTESIAN X    -0.201014     -1.933079  KCAL/ANGSTROM
      8          3  C    CARTESIAN Y     1.367533     -0.390106  KCAL/ANGSTROM
      9          3  C    CARTESIAN Z    -0.490758      0.001118  KCAL/ANGSTROM
     10          4  C    CARTESIAN X     1.174731      4.923063  KCAL/ANGSTROM
     11          4  C    CARTESIAN Y     1.348495     -2.518792  KCAL/ANGSTROM
     12          4  C    CARTESIAN Z    -0.278713     -0.595833  KCAL/ANGSTROM
     13          5  C    CARTESIAN X     1.843281     -0.324221  KCAL/ANGSTROM
     14          5  C    CARTESIAN Y     0.119336      3.091067  KCAL/ANGSTROM
     15          5  C    CARTESIAN Z    -0.287979      1.591076  KCAL/ANGSTROM
     16          6  O    CARTESIAN X     0.169434     -6.580509  KCAL/ANGSTROM
     17          6  O    CARTESIAN Y    -1.345804     -2.054634  KCAL/ANGSTROM
     18          6  O    CARTESIAN Z     1.921233    -11.094480  KCAL/ANGSTROM
     19          7  C    CARTESIAN X    -0.528690      5.677023  KCAL/ANGSTROM
     20          7  C    CARTESIAN Y    -1.670122     -0.934238  KCAL/ANGSTROM
     21          7  C    CARTESIAN Z     1.012496     19.744876  KCAL/ANGSTROM
     22          8  C    CARTESIAN X    -0.191600      0.007706  KCAL/ANGSTROM
     23          8  C    CARTESIAN Y    -1.103588      1.555050  KCAL/ANGSTROM
     24          8  C    CARTESIAN Z    -0.416392     -8.397567  KCAL/ANGSTROM
     25          9  O    CARTESIAN X     1.246534     -0.478131  KCAL/ANGSTROM
     26          9  O    CARTESIAN Y    -1.030028     -1.979740  KCAL/ANGSTROM
     27          9  O    CARTESIAN Z    -0.437898     -1.063641  KCAL/ANGSTROM
     28         10  H    CARTESIAN X    -2.569272     -1.278439  KCAL/ANGSTROM
     29         10  H    CARTESIAN Y     0.496552      0.401975  KCAL/ANGSTROM
     30         10  H    CARTESIAN Z    -1.921233     -0.461572  KCAL/ANGSTROM
     31         11  H    CARTESIAN X    -2.935720     -1.424301  KCAL/ANGSTROM
     32         11  H    CARTESIAN Y     0.804507      0.405226  KCAL/ANGSTROM
     33         11  H    CARTESIAN Z    -0.233312     -0.217963  KCAL/ANGSTROM
     34         12  H    CARTESIAN X    -2.809923     -1.288407  KCAL/ANGSTROM
     35         12  H    CARTESIAN Y    -0.862413      0.409646  KCAL/ANGSTROM
     36         12  H    CARTESIAN Z    -0.821501     -0.364692  KCAL/ANGSTROM
     37         13  H    CARTESIAN X    -0.728640     -0.166639  KCAL/ANGSTROM
     38         13  H    CARTESIAN Y     2.330333      0.297422  KCAL/ANGSTROM
     39         13  H    CARTESIAN Z    -0.576180      0.147155  KCAL/ANGSTROM
     40         14  H    CARTESIAN X     1.738354     -0.375549  KCAL/ANGSTROM
     41         14  H    CARTESIAN Y     2.281409      0.869616  KCAL/ANGSTROM
     42         14  H    CARTESIAN Z    -0.137682      0.269174  KCAL/ANGSTROM
     43         15  H    CARTESIAN X     2.935720     -1.227552  KCAL/ANGSTROM
     44         15  H    CARTESIAN Y    -0.036934      0.019839  KCAL/ANGSTROM
     45         15  H    CARTESIAN Z    -0.224649      0.288576  KCAL/ANGSTROM
     46         16  H    CARTESIAN X    -1.399264      0.731494  KCAL/ANGSTROM
     47         16  H    CARTESIAN Y    -2.330333      0.521880  KCAL/ANGSTROM
     48         16  H    CARTESIAN Z     1.058811     -1.689061  KCAL/ANGSTROM
     49         17  H    CARTESIAN X    -0.393286      0.693038  KCAL/ANGSTROM
     50         17  H    CARTESIAN Y    -1.870320      1.072754  KCAL/ANGSTROM
     51         17  H    CARTESIAN Z    -1.211256      1.245506  KCAL/ANGSTROM




   ATOM   CHEMICAL          X               Y               Z
  NUMBER   SYMBOL      (ANGSTROMS)     (ANGSTROMS)     (ANGSTROMS)

     1       C         -2.34436672  *   0.13449668  *  -0.89242864  *
     2       C         -0.90764568  *   0.17399860  *  -0.60747249  *
     3       C         -0.20101413  *   1.36753311  *  -0.49075791  *
     4       C          1.17473052  *   1.34849462  *  -0.27871309  *
     5       C          1.84328084  *   0.11933574  *  -0.28797940  *
     6       O          0.16943353  *  -1.34580385  *   1.92123308  *
     7       C         -0.52869001  *  -1.67012151  *   1.01249649  *
     8       C         -0.19160018  *  -1.10358813  *  -0.41639178  *
     9       O          1.24653413  *  -1.03002801  *  -0.43789777  *
    10       H         -2.56927183  *   0.49655184  *  -1.92123308  *
    11       H         -2.93572039  *   0.80450695  *  -0.23331180  *
    12       H         -2.80992318  *  -0.86241265  *  -0.82150146  *
    13       H         -0.72863994  *   2.33033323  *  -0.57618044  *
    14       H          1.73835400  *   2.28140948  *  -0.13768197  *
    15       H          2.93572039  *  -0.03693374  *  -0.22464881  *
    16       H         -1.39926441  *  -2.33033323  *   1.05881133  *
    17       H         -0.39328649  *  -1.87031985  *  -1.21125560  *

                             CARTESIAN COORDINATES

   1    C       -2.344366722     0.134496681    -0.892428638
   2    C       -0.907645684     0.173998603    -0.607472488
   3    C       -0.201014128     1.367533106    -0.490757906
   4    C        1.174730522     1.348494616    -0.278713090
   5    C        1.843280838     0.119335745    -0.287979400
   6    O        0.169433531    -1.345803846     1.921233079
   7    C       -0.528690011    -1.670121512     1.012496495
   8    C       -0.191600176    -1.103588131    -0.416391776
   9    O        1.246534128    -1.030028014    -0.437897770
  10    H       -2.569271827     0.496551843    -1.921233079
  11    H       -2.935720389     0.804506946    -0.233311802
  12    H       -2.809923177    -0.862412654    -0.821501460
  13    H       -0.728639943     2.330333232    -0.576180440
  14    H        1.738353995     2.281409475    -0.137681968
  15    H        2.935720389    -0.036933743    -0.224648807
  16    H       -1.399264410    -2.330333232     1.058811330
  17    H       -0.393286489    -1.870319848    -1.211255605


           Empirical Formula: C7 H8 O2  =    17 atoms



      MOLECULAR POINT GROUP   :   C1  


          ALPHA EIGENVALUES  
 -34.09159 -32.47661 -30.54627 -28.66924 -26.22146 -25.03643 -22.45914 -22.28213
 -18.88065 -18.62095 -18.36735 -17.53756 -16.13623 -15.84586 -15.60498 -15.40374
 -14.91542 -14.67535 -14.25667 -13.70607 -13.05881 -12.70675 -11.64373  -9.88820
  -1.75604  -0.54100  -0.03155   0.06130   1.69868   2.24493   2.40978   2.87780
   3.27474   3.53443   3.69247   3.74694   4.31980   4.43875   4.61194   4.93995
   4.98145   5.09767   5.16484   6.22490


           BETA EIGENVALUES 
 -33.66670 -32.36973 -30.33770 -28.54018 -26.13053 -24.92663 -22.32189 -22.20384
 -18.78639 -18.52647 -18.20299 -17.37576 -15.97570 -15.77703 -15.51281 -15.12691
 -14.65056 -14.52540 -14.07093 -13.62663 -12.97267 -12.01468 -11.32956  -3.01224
  -1.04715  -0.35639   0.07237   0.69380   1.84189   2.36192   2.53388   2.94028
   3.41957   3.61438   3.72721   3.82093   4.37366   4.49320   4.64660   4.98263
   5.01550   5.11621   5.20961   6.24763


              NET ATOMIC CHARGES AND DIPOLE CONTRIBUTIONS

  ATOM NO.   TYPE          CHARGE      No. of ELECS.   s-Pop       p-Pop       
    1          C          -0.486918        4.4869     1.04927     3.43765
    2          C           0.070484        3.9295     1.09659     2.83292
    3          C          -0.076965        4.0770     1.09977     2.97719
    4          C          -0.227347        4.2273     1.09876     3.12859
    5          C           0.289344        3.7107     1.17493     2.53573
    6          O          -0.439332        6.4393     1.86912     4.57021
    7          C           0.402245        3.5978     1.17222     2.42554
    8          C          -0.113684        4.1137     1.13731     2.97638
    9          O          -0.142746        6.1427     1.85937     4.28338
   10          H           0.212598        0.7874     0.78740
   11          H           0.206286        0.7937     0.79371
   12          H           0.190193        0.8098     0.80981
   13          H           0.212536        0.7875     0.78746
   14          H           0.227181        0.7728     0.77282
   15          H           0.242296        0.7577     0.75770
   16          H           0.190794        0.8092     0.80921
   17          H           0.243035        0.7570     0.75696
 DIPOLE           X         Y         Z       TOTAL
 POINT-CHG.    -0.971     1.144    -3.839     4.121
 HYBRID         0.389    -0.042    -0.037     0.393
 SUM           -0.582     1.102    -3.876     4.071


          ATOMIC ORBITAL ELECTRON POPULATIONS

     Atom    s        px        py        pz   
    1  C   1.04927   1.00114   1.22723   1.20928
    2  C   1.09659   0.99771   0.95462   0.88060
    3  C   1.09977   1.00017   1.07914   0.89789
    4  C   1.09876   1.02843   1.07499   1.02517
    5  C   1.17493   1.02686   0.85244   0.65643
    6  O   1.86912   1.52074   1.53863   1.51084
    7  C   1.17222   0.85502   0.75742   0.81309
    8  C   1.13731   0.77265   1.07602   1.12770
    9  O   1.85937   1.27811   1.35337   1.65190
   10  H   0.78740
   11  H   0.79371
   12  H   0.80981
   13  H   0.78746
   14  H   0.77282
   15  H   0.75770
   16  H   0.80921
   17  H   0.75696


                    (SZ)    =    0.500000
                    (S**2)  =    0.808686


          ATOMIC ORBITAL SPIN POPULATIONS

    Atom   Total    s     px     py     pz   
         Atomic
    1  C -0.0125 -0.003 -0.014 -0.003  0.008
    2  C  0.5362  0.014  0.031  0.018  0.473
    3  C -0.1639 -0.008 -0.017 -0.012 -0.127
    4  C  0.3380  0.008  0.018  0.010  0.301
    5  C  0.0672 -0.001 -0.003 -0.006  0.078
    6  O  0.0197  0.001  0.005 -0.000  0.015
    7  C  0.0429  0.006  0.005  0.005  0.027
    8  C -0.0431 -0.007 -0.012 -0.017 -0.007
    9  O  0.1587  0.005  0.010  0.003  0.140
   10  H  0.0234  0.023
   11  H  0.0144  0.014
   12  H  0.0013  0.001
   13  H  0.0047  0.005
   14  H -0.0100 -0.010
   15  H -0.0021 -0.002
   16  H  0.0059  0.006
   17  H  0.0191  0.019

 **********************
 *                    *
 * JOB ENDED NORMALLY *
 *                    *
 **********************



 TOTAL JOB TIME:             1.66 SECONDS

 == MOPAC DONE ==
