 *******************************************************************************
 **                                                                           **
 **                              MOPAC v23.2                                  **
 **                                                                           **
 *******************************************************************************
 **          Digital Object Identifier (DOI): 10.5281/zenodo.6511958          **
 **    Visit the DOI location for information on how to cite this program.    **
 *******************************************************************************

                              PM7 CALCULATION RESULTS

 *******************************************************************************
 *  CALCULATION DONE: (MAX THREADS = 40)             Fri Sep 19 21:56:43 2025  *
 *  PM7        - The PM7 Hamiltonian to be used
 *
 *
 *
 *                 CHARGE ON SYSTEM = +1
 *
 *
 *
 *  1SCF       - DO 1 SCF AND THEN STOP 
 *  T=         - A TIME OF 172800.0 SECONDS REQUESTED
 *  DUMP=N     - RESTART FILE WRITTEN EVERY 7200.0 SECONDS REQUESTED
 *  RELSCF     - DEFAULT SCF CRITERION MULTIPLIED BY 0.0001
 *              (DEFAULT SCF CRITERION = 0.00010)
 *  GRADIENTS  - ALL GRADIENTS TO BE PRINTED
 *  DISP       - PRINT DISPERSION AND HYDROGEN BOND ENERGIES
 *******************************************************************************
PM7 1SCF GRADIENTS DISP RELSCF=0.0001 CHARGE=1
 Title: ASE calculation

   ATOM   CHEMICAL          X               Y               Z
  NUMBER   SYMBOL      (ANGSTROMS)     (ANGSTROMS)     (ANGSTROMS)

     1       C          1.93006311  *   0.40334447  *   0.65392475  *
     2       C          1.59087396  *   0.43111148  *  -0.83044696  *
     3       C          0.23432760  *   1.11304661  *  -1.10966811  *
     4       C         -0.88129685  *   0.29065323  *  -0.62871073  *
     5       N         -1.34671911  *  -0.84151237  *  -1.24665167  *
     6       C         -2.43644297  *  -1.36262788  *  -0.48456803  *
     7       N         -2.66763694  *  -0.60742901  *   0.57361071  *
     8       C         -1.72605325  *   0.44900662  *   0.55010964  *
     9       N         -1.71975192  *   1.37850001  *   1.50490992  *
    10       H          2.94022517  *  -0.01319218  *   0.81316239  *
    11       H          1.24476874  *  -0.22192726  *   1.23379946  *
    12       H          1.94706279  *   1.40569253  *   1.09676615  *
    13       H          2.38718132  *   0.97834099  *  -1.38472710  *
    14       H          1.60580270  *  -0.59460127  *  -1.24664327  *
    15       H          0.22995667  *   2.12759336  *  -0.64991077  *
    16       H          0.14474262  *   1.31349017  *  -2.20782830  *
    17       H         -0.97569401  *  -1.24233428  *  -2.09622095  *
    18       H         -2.97905965  *  -2.26512468  *  -0.77581925  *
    19       H         -2.40177076  *   1.33657178  *   2.26121361  *
    20       H         -1.04750953  *   2.12917068  *   1.52260424  *



          CARTESIAN COORDINATES 

    NO.       ATOM           X           Y           Z

     1         C          1.9301      0.4033      0.6539
     2         C          1.5909      0.4311     -0.8304
     3         C          0.2343      1.1130     -1.1097
     4         C         -0.8813      0.2907     -0.6287
     5         N         -1.3467     -0.8415     -1.2467
     6         C         -2.4364     -1.3626     -0.4846
     7         N         -2.6676     -0.6074      0.5736
     8         C         -1.7261      0.4490      0.5501
     9         N         -1.7198      1.3785      1.5049
    10         H          2.9402     -0.0132      0.8132
    11         H          1.2448     -0.2219      1.2338
    12         H          1.9471      1.4057      1.0968
    13         H          2.3872      0.9783     -1.3847
    14         H          1.6058     -0.5946     -1.2466
    15         H          0.2300      2.1276     -0.6499
    16         H          0.1447      1.3135     -2.2078
    17         H         -0.9757     -1.2423     -2.0962
    18         H         -2.9791     -2.2651     -0.7758
    19         H         -2.4018      1.3366      2.2612
    20         H         -1.0475      2.1292      1.5226

 General Reference for PM7:
 "Optimization of Parameters for Semiempirical Methods VI: More Modifications to the 
 NDDO Approximations and Re-optimization of Parameters", J. J. P. Stewart, J. Mol. Mod., 1:32, 19 (2013)
 https://link.springer.com/article/10.1007/s00894-012-1667-x

           Empirical Formula: C6 H11 N3  =    20 atoms



      MOLECULAR POINT GROUP   :   C1  


          UHF CALCULATION, NO. OF ALPHA ELECTRONS =   25
                           NO. OF BETA  ELECTRONS =   24
  SCF CRITERION =    0.1000E-07

 -------------------------------------------------------------------------------
 PM7 1SCF GRADIENTS DISP RELSCF=0.0001 CHARGE=1
 Title: ASE calculation



     1SCF WAS SPECIFIED, SO BFGS WAS NOT USED                 
     SCF FIELD WAS ACHIEVED                                   


                              PM7 CALCULATION
                                                       MOPAC v23.2 Linux
                                                       Fri Sep 19 21:56:44 2025




          FINAL HEAT OF FORMATION =        184.39277 KCAL/MOL =     771.49937 KJ/MOL

          TOTAL ENERGY            =     -33134.85774 KCAL/MOL = ELECTRONIC ENERGY + CORE-CORE REPULSION
          ENERGY OF ATOMS         =      33321.83911 KCAL/MOL
                              SUM =        186.98137 KCAL/MOL
          DISPERSION ENERGY       =         -2.58860 KCAL/MOL
                              SUM =        184.39277 KCAL/MOL = FINAL HEAT OF FORMATION



          TOTAL ENERGY            =      -1436.86343 EV
          ELECTRONIC ENERGY       =      -7281.30722 EV 
          CORE-CORE REPULSION     =       5844.44379 EV
          COSMO AREA              =        167.15 SQUARE ANGSTROMS
          COSMO VOLUME            =        168.09 CUBIC ANGSTROMS

          GRADIENT NORM           =          1.27006          =       0.28399 PER ATOM
          IONIZATION POTENTIAL    =         13.846891 EV
          ALPHA SOMO LUMO (EV)    =        -13.847 -5.022
          BETA  SOMO LUMO (EV)    =        -15.304 -6.550
          NO. OF ALPHA ELECTRONS  =         25
          NO. OF BETA  ELECTRONS  =         24
          MOLECULAR WEIGHT        =        125.1730         POINT GROUP:  C1  

          MOLECULAR DIMENSIONS (Angstroms)

            Atom       Atom       Distance
            H    18    H    10     6.52947
            H    19    H    14     5.25631
            H    11    H    16     3.41992


          SCF CALCULATIONS        =          1

          WALL-CLOCK TIME         =      1.055 SECONDS
          COMPUTATION TIME        =      0.543 SECONDS

          LARGEST ATOMIC GRADIENTS

          Atom     Label                     Cartesian Gradients           Cartesian Coordinates       |Gradient|
                                           X          Y          Z        X          Y          Z

             5       N                   0.255     -0.084      0.368   -1.34672   -0.84151   -1.24665      0.456
             4       C                   0.193      0.328      0.242   -0.88130    0.29065   -0.62871      0.451
            19       H                  -0.001     -0.163     -0.364   -2.40177    1.33657    2.26121      0.399
             9       N                  -0.070      0.034     -0.384   -1.71975    1.37850    1.50491      0.392
            10       H                   0.201      0.285     -0.098    2.94023   -0.01319    0.81316      0.362
            13       H                  -0.012     -0.326      0.002    2.38718    0.97834   -1.38473      0.327
            11       H                   0.155     -0.125      0.189    1.24477   -0.22193    1.23380      0.274
             8       C                  -0.127     -0.236     -0.038   -1.72605    0.44901    0.55011      0.271
            16       H                  -0.185      0.009     -0.159    0.14474    1.31349   -2.20783      0.244
            15       H                  -0.078      0.036      0.223    0.22996    2.12759   -0.64991      0.239



       FINAL  POINT  AND  DERIVATIVES

   PARAMETER     ATOM    TYPE            VALUE        GRADIENT
      1          1  C    CARTESIAN X     1.930063      0.138514  KCAL/ANGSTROM
      2          1  C    CARTESIAN Y     0.403344     -0.133569  KCAL/ANGSTROM
      3          1  C    CARTESIAN Z     0.653925     -0.071867  KCAL/ANGSTROM
      4          2  C    CARTESIAN X     1.590874     -0.102240  KCAL/ANGSTROM
      5          2  C    CARTESIAN Y     0.431111      0.107817  KCAL/ANGSTROM
      6          2  C    CARTESIAN Z    -0.830447     -0.122629  KCAL/ANGSTROM
      7          3  C    CARTESIAN X     0.234328     -0.130841  KCAL/ANGSTROM
      8          3  C    CARTESIAN Y     1.113047      0.179263  KCAL/ANGSTROM
      9          3  C    CARTESIAN Z    -1.109668     -0.079641  KCAL/ANGSTROM
     10          4  C    CARTESIAN X    -0.881297      0.192917  KCAL/ANGSTROM
     11          4  C    CARTESIAN Y     0.290653      0.327734  KCAL/ANGSTROM
     12          4  C    CARTESIAN Z    -0.628711      0.242053  KCAL/ANGSTROM
     13          5  N    CARTESIAN X    -1.346719      0.255091  KCAL/ANGSTROM
     14          5  N    CARTESIAN Y    -0.841512     -0.083971  KCAL/ANGSTROM
     15          5  N    CARTESIAN Z    -1.246652      0.368169  KCAL/ANGSTROM
     16          6  C    CARTESIAN X    -2.436443     -0.041918  KCAL/ANGSTROM
     17          6  C    CARTESIAN Y    -1.362628     -0.020964  KCAL/ANGSTROM
     18          6  C    CARTESIAN Z    -0.484568     -0.182510  KCAL/ANGSTROM
     19          7  N    CARTESIAN X    -2.667637     -0.117209  KCAL/ANGSTROM
     20          7  N    CARTESIAN Y    -0.607429      0.033394  KCAL/ANGSTROM
     21          7  N    CARTESIAN Z     0.573611     -0.079435  KCAL/ANGSTROM
     22          8  C    CARTESIAN X    -1.726053     -0.126777  KCAL/ANGSTROM
     23          8  C    CARTESIAN Y     0.449007     -0.235954  KCAL/ANGSTROM
     24          8  C    CARTESIAN Z     0.550110     -0.037760  KCAL/ANGSTROM
     25          9  N    CARTESIAN X    -1.719752     -0.070167  KCAL/ANGSTROM
     26          9  N    CARTESIAN Y     1.378500      0.033825  KCAL/ANGSTROM
     27          9  N    CARTESIAN Z     1.504910     -0.383852  KCAL/ANGSTROM
     28         10  H    CARTESIAN X     2.940225      0.201410  KCAL/ANGSTROM
     29         10  H    CARTESIAN Y    -0.013192      0.284782  KCAL/ANGSTROM
     30         10  H    CARTESIAN Z     0.813162     -0.098393  KCAL/ANGSTROM
     31         11  H    CARTESIAN X     1.244769      0.154589  KCAL/ANGSTROM
     32         11  H    CARTESIAN Y    -0.221927     -0.125083  KCAL/ANGSTROM
     33         11  H    CARTESIAN Z     1.233799      0.188548  KCAL/ANGSTROM
     34         12  H    CARTESIAN X     1.947063      0.056104  KCAL/ANGSTROM
     35         12  H    CARTESIAN Y     1.405693     -0.192603  KCAL/ANGSTROM
     36         12  H    CARTESIAN Z     1.096766     -0.020325  KCAL/ANGSTROM
     37         13  H    CARTESIAN X     2.387181     -0.011976  KCAL/ANGSTROM
     38         13  H    CARTESIAN Y     0.978341     -0.326308  KCAL/ANGSTROM
     39         13  H    CARTESIAN Z    -1.384727      0.002447  KCAL/ANGSTROM
     40         14  H    CARTESIAN X     1.605803     -0.008732  KCAL/ANGSTROM
     41         14  H    CARTESIAN Y    -0.594601      0.083862  KCAL/ANGSTROM
     42         14  H    CARTESIAN Z    -1.246643      0.199847  KCAL/ANGSTROM
     43         15  H    CARTESIAN X     0.229957     -0.078077  KCAL/ANGSTROM
     44         15  H    CARTESIAN Y     2.127593      0.036410  KCAL/ANGSTROM
     45         15  H    CARTESIAN Z    -0.649911      0.223265  KCAL/ANGSTROM
     46         16  H    CARTESIAN X     0.144743     -0.184867  KCAL/ANGSTROM
     47         16  H    CARTESIAN Y     1.313490      0.008843  KCAL/ANGSTROM
     48         16  H    CARTESIAN Z    -2.207828     -0.158989  KCAL/ANGSTROM
     49         17  H    CARTESIAN X    -0.975694     -0.125743  KCAL/ANGSTROM
     50         17  H    CARTESIAN Y    -1.242334      0.119156  KCAL/ANGSTROM
     51         17  H    CARTESIAN Z    -2.096221      0.118332  KCAL/ANGSTROM
     52         18  H    CARTESIAN X    -2.979060     -0.101754  KCAL/ANGSTROM
     53         18  H    CARTESIAN Y    -2.265125      0.039751  KCAL/ANGSTROM
     54         18  H    CARTESIAN Z    -0.775819      0.069162  KCAL/ANGSTROM
     55         19  H    CARTESIAN X    -2.401771     -0.000859  KCAL/ANGSTROM
     56         19  H    CARTESIAN Y     1.336572     -0.162602  KCAL/ANGSTROM
     57         19  H    CARTESIAN Z     2.261214     -0.364345  KCAL/ANGSTROM
     58         20  H    CARTESIAN X    -1.047510      0.102538  KCAL/ANGSTROM
     59         20  H    CARTESIAN Y     2.129171      0.026213  KCAL/ANGSTROM
     60         20  H    CARTESIAN Z     1.522604      0.187924  KCAL/ANGSTROM




   ATOM   CHEMICAL          X               Y               Z
  NUMBER   SYMBOL      (ANGSTROMS)     (ANGSTROMS)     (ANGSTROMS)

     1       C          1.93006311  *   0.40334447  *   0.65392475  *
     2       C          1.59087396  *   0.43111148  *  -0.83044696  *
     3       C          0.23432760  *   1.11304661  *  -1.10966811  *
     4       C         -0.88129685  *   0.29065323  *  -0.62871073  *
     5       N         -1.34671911  *  -0.84151237  *  -1.24665167  *
     6       C         -2.43644297  *  -1.36262788  *  -0.48456803  *
     7       N         -2.66763694  *  -0.60742901  *   0.57361071  *
     8       C         -1.72605325  *   0.44900662  *   0.55010964  *
     9       N         -1.71975192  *   1.37850001  *   1.50490992  *
    10       H          2.94022517  *  -0.01319218  *   0.81316239  *
    11       H          1.24476874  *  -0.22192726  *   1.23379946  *
    12       H          1.94706279  *   1.40569253  *   1.09676615  *
    13       H          2.38718132  *   0.97834099  *  -1.38472710  *
    14       H          1.60580270  *  -0.59460127  *  -1.24664327  *
    15       H          0.22995667  *   2.12759336  *  -0.64991077  *
    16       H          0.14474262  *   1.31349017  *  -2.20782830  *
    17       H         -0.97569401  *  -1.24233428  *  -2.09622095  *
    18       H         -2.97905965  *  -2.26512468  *  -0.77581925  *
    19       H         -2.40177076  *   1.33657178  *   2.26121361  *
    20       H         -1.04750953  *   2.12917068  *   1.52260424  *

                             CARTESIAN COORDINATES

   1    C        1.930063109     0.403344468     0.653924750
   2    C        1.590873963     0.431111476    -0.830446959
   3    C        0.234327600     1.113046615    -1.109668110
   4    C       -0.881296848     0.290653230    -0.628710735
   5    N       -1.346719105    -0.841512374    -1.246651673
   6    C       -2.436442972    -1.362627876    -0.484568030
   7    N       -2.667636939    -0.607429007     0.573610710
   8    C       -1.726053246     0.449006615     0.550109643
   9    N       -1.719751921     1.378500005     1.504909921
  10    H        2.940225168    -0.013192185     0.813162386
  11    H        1.244768737    -0.221927260     1.233799462
  12    H        1.947062786     1.405692531     1.096766152
  13    H        2.387181320     0.978340995    -1.384727104
  14    H        1.605802701    -0.594601269    -1.246643274
  15    H        0.229956671     2.127593364    -0.649910767
  16    H        0.144742616     1.313490174    -2.207828300
  17    H       -0.975694009    -1.242334279    -2.096220949
  18    H       -2.979059650    -2.265124681    -0.775819248
  19    H       -2.401770764     1.336571777     2.261213609
  20    H       -1.047509532     2.129170682     1.522604239


           Empirical Formula: C6 H11 N3  =    20 atoms



      MOLECULAR POINT GROUP   :   C1  


          ALPHA EIGENVALUES  
 -44.06682 -42.73261 -38.73007 -33.18522 -30.41720 -28.29312 -27.21341 -25.92717
 -24.60490 -23.52224 -22.77931 -21.49865 -21.01880 -19.93637 -19.74893 -19.19191
 -18.47991 -18.18207 -17.84074 -16.53463 -16.26736 -15.92134 -15.63386 -15.54021
 -13.84689  -5.02187  -3.84117  -3.41696  -2.87157  -2.22742  -1.93380  -1.05469
  -0.80359  -0.30451   0.10076   0.36683   0.44523   0.56948   0.91630   1.20780
   1.31357   1.57078   1.75411   2.22799   2.32413   2.62190   3.44874


           BETA EIGENVALUES 
 -44.00044 -41.87455 -38.70820 -33.11224 -30.27562 -28.23373 -27.13989 -25.78798
 -24.57120 -23.38777 -22.63508 -21.32658 -20.55845 -19.86807 -19.65344 -19.08666
 -18.39985 -17.83282 -16.96947 -16.49623 -16.14853 -15.90818 -15.58286 -15.30441
  -6.55040  -3.95667  -3.38650  -3.27336  -2.52890  -2.18966  -1.88786  -0.95891
  -0.68317  -0.26244   0.15101   0.45011   0.46416   0.73477   0.92745   1.23789
   1.47616   1.58385   1.75961   2.22991   2.32571   2.62334   3.44918


              NET ATOMIC CHARGES AND DIPOLE CONTRIBUTIONS

  ATOM NO.   TYPE          CHARGE      No. of ELECS.   s-Pop       p-Pop       
    1          C          -0.451211        4.4512     1.05193     3.39928
    2          C          -0.231115        4.2311     1.05746     3.17366
    3          C          -0.314146        4.3141     1.05791     3.25624
    4          C           0.164505        3.8355     1.09709     2.73840
    5          N          -0.363535        5.3635     1.53763     3.82590
    6          C           0.224324        3.7757     1.13046     2.64522
    7          N          -0.359387        5.3594     1.76895     3.59044
    8          C           0.167154        3.8328     1.05438     2.77846
    9          N          -0.283088        5.2831     1.49208     3.79101
   10          H           0.179968        0.8200     0.82003
   11          H           0.139716        0.8603     0.86028
   12          H           0.152508        0.8475     0.84749
   13          H           0.175473        0.8245     0.82453
   14          H           0.147873        0.8521     0.85213
   15          H           0.182605        0.8174     0.81739
   16          H           0.196242        0.8038     0.80376
   17          H           0.354682        0.6453     0.64532
   18          H           0.241080        0.7589     0.75892
   19          H           0.349030        0.6510     0.65097
   20          H           0.327321        0.6727     0.67268
 DIPOLE           X         Y         Z       TOTAL
 POINT-CHG.    -0.650     1.194    -0.451     1.432
 HYBRID         0.350     0.231    -0.423     0.596
 SUM           -0.300     1.425    -0.874     1.699


          ATOMIC ORBITAL ELECTRON POPULATIONS

     Atom    s        px        py        pz   
    1  C   1.05193   1.19558   1.18204   1.02167
    2  C   1.05746   0.98842   1.13501   1.05023
    3  C   1.05791   0.99011   1.08760   1.17853
    4  C   1.09709   0.94741   0.87689   0.91410
    5  N   1.53763   1.29705   1.24378   1.28508
    6  C   1.13046   0.83857   0.98385   0.82279
    7  N   1.76895   1.24391   1.09556   1.25097
    8  C   1.05438   0.95446   0.90636   0.91765
    9  N   1.49208   1.31558   1.23590   1.23953
   10  H   0.82003
   11  H   0.86028
   12  H   0.84749
   13  H   0.82453
   14  H   0.85213
   15  H   0.81739
   16  H   0.80376
   17  H   0.64532
   18  H   0.75892
   19  H   0.65097
   20  H   0.67268


                    (SZ)    =    0.500000
                    (S**2)  =    0.789933


          ATOMIC ORBITAL SPIN POPULATIONS

    Atom   Total    s     px     py     pz   
         Atomic
    1  C -0.0005 -0.000 -0.000  0.000 -0.000
    2  C  0.0208  0.003  0.015  0.002  0.001
    3  C -0.0149 -0.002 -0.007 -0.004 -0.002
    4  C  0.3827  0.009  0.153  0.114  0.106
    5  N  0.0183  0.000  0.008  0.003  0.007
    6  C  0.1352  0.004  0.052  0.041  0.039
    7  N -0.0490 -0.001 -0.017 -0.016 -0.015
    8  C  0.0444 -0.005  0.027  0.016  0.007
    9  N  0.5017  0.021  0.186  0.153  0.141
   10  H  0.0003  0.000
   11  H -0.0000 -0.000
   12  H  0.0001  0.000
   13  H -0.0001 -0.000
   14  H -0.0007 -0.001
   15  H  0.0013  0.001
   16  H  0.0083  0.008
   17  H -0.0012 -0.001
   18  H -0.0038 -0.004
   19  H -0.0215 -0.022
   20  H -0.0214 -0.021

 **********************
 *                    *
 * JOB ENDED NORMALLY *
 *                    *
 **********************



 TOTAL JOB TIME:             1.51 SECONDS

 == MOPAC DONE ==
