 *******************************************************************************
 **                                                                           **
 **                              MOPAC v23.2                                  **
 **                                                                           **
 *******************************************************************************
 **          Digital Object Identifier (DOI): 10.5281/zenodo.6511958          **
 **    Visit the DOI location for information on how to cite this program.    **
 *******************************************************************************

                              PM7 CALCULATION RESULTS

 *******************************************************************************
 *  CALCULATION DONE: (MAX THREADS = 40)             Fri Sep 19 21:38:14 2025  *
 *  PM7        - The PM7 Hamiltonian to be used
 *
 *
 *
 *                 CHARGE ON SYSTEM = +1
 *
 *
 *
 *  EPS=37.5   - USE ANDREAS KLAMT'S COSMO IMPLICIT SOLVATION MODEL
 *  1SCF       - DO 1 SCF AND THEN STOP 
 *  T=         - A TIME OF 172800.0 SECONDS REQUESTED
 *  DUMP=N     - RESTART FILE WRITTEN EVERY 7200.0 SECONDS REQUESTED
 *  RELSCF     - DEFAULT SCF CRITERION MULTIPLIED BY 0.0001
 *              (DEFAULT SCF CRITERION = 0.00010)
 *  GRADIENTS  - ALL GRADIENTS TO BE PRINTED
 *  DISP       - PRINT DISPERSION AND HYDROGEN BOND ENERGIES
 *******************************************************************************
PM7 1SCF GRADIENTS EPS=37.5 DISP RELSCF=0.0001 CHARGE=1
 Title: ASE calculation

   ATOM   CHEMICAL          X               Y               Z
  NUMBER   SYMBOL      (ANGSTROMS)     (ANGSTROMS)     (ANGSTROMS)

     1       C          2.41897387  *  -1.05970349  *  -0.58979404  *
     2       C          1.27068280  *  -0.30717246  *   0.07278946  *
     3       C          1.24751617  *   1.13593108  *  -0.42084987  *
     4       O          0.17294344  *   1.92880660  *  -0.03307536  *
     5       C         -1.02848319  *   1.34334845  *   0.39689126  *
     6       C         -1.29897014  *  -0.05252760  *  -0.06672467  *
     7       C         -2.43605847  *  -0.14570113  *  -1.04000334  *
     8       C         -1.03631878  *  -1.20325150  *   0.88756868  *
     9       C         -0.06558301  *  -0.94322380  *  -0.23359753  *
    10       H          2.31963524  *  -1.11918007  *  -1.68153285  *
    11       H          3.39836709  *  -0.61399556  *  -0.36723339  *
    12       H          2.46978606  *  -2.10104904  *  -0.22615555  *
    13       H          1.44655913  *  -0.30391735  *   1.18549562  *
    14       H          2.13518996  *   1.74749957  *  -0.09736751  *
    15       H          1.24767085  *   1.19859346  *  -1.55364435  *
    16       H         -1.00153602  *   1.44697188  *   1.52310173  *
    17       H         -1.78981544  *   2.10104904  *   0.05276410  *
    18       H         -2.57368767  *  -1.17216621  *  -1.42239607  *
    19       H         -3.39836709  *   0.12593071  *  -0.57472508  *
    20       H         -2.29754184  *   0.49241610  *  -1.92433807  *
    21       H         -1.68477072  *  -2.08460699  *   0.84840954  *
    22       H         -0.75894707  *  -1.02445013  *   1.92433807  *
    23       H         -0.04347003  *  -1.64751368  *  -1.07831864  *



          CARTESIAN COORDINATES 

    NO.       ATOM           X           Y           Z

     1         C          2.4190     -1.0597     -0.5898
     2         C          1.2707     -0.3072      0.0728
     3         C          1.2475      1.1359     -0.4208
     4         O          0.1729      1.9288     -0.0331
     5         C         -1.0285      1.3433      0.3969
     6         C         -1.2990     -0.0525     -0.0667
     7         C         -2.4361     -0.1457     -1.0400
     8         C         -1.0363     -1.2033      0.8876
     9         C         -0.0656     -0.9432     -0.2336
    10         H          2.3196     -1.1192     -1.6815
    11         H          3.3984     -0.6140     -0.3672
    12         H          2.4698     -2.1010     -0.2262
    13         H          1.4466     -0.3039      1.1855
    14         H          2.1352      1.7475     -0.0974
    15         H          1.2477      1.1986     -1.5536
    16         H         -1.0015      1.4470      1.5231
    17         H         -1.7898      2.1010      0.0528
    18         H         -2.5737     -1.1722     -1.4224
    19         H         -3.3984      0.1259     -0.5747
    20         H         -2.2975      0.4924     -1.9243
    21         H         -1.6848     -2.0846      0.8484
    22         H         -0.7589     -1.0245      1.9243
    23         H         -0.0435     -1.6475     -1.0783

 General Reference for PM7:
 "Optimization of Parameters for Semiempirical Methods VI: More Modifications to the 
 NDDO Approximations and Re-optimization of Parameters", J. J. P. Stewart, J. Mol. Mod., 1:32, 19 (2013)
 https://link.springer.com/article/10.1007/s00894-012-1667-x

           Empirical Formula: C8 H14 O  =    23 atoms



      MOLECULAR POINT GROUP   :   C1  


          UHF CALCULATION, NO. OF ALPHA ELECTRONS =   26
                           NO. OF BETA  ELECTRONS =   25
  SCF CRITERION =    0.1000E-07

 -------------------------------------------------------------------------------
 PM7 1SCF GRADIENTS EPS=37.5 DISP RELSCF=0.0001 CHARGE=1
 Title: ASE calculation



     1SCF WAS SPECIFIED, SO BFGS WAS NOT USED                 
     SCF FIELD WAS ACHIEVED                                   


                              PM7 CALCULATION
                                                       MOPAC v23.2 Linux
                                                       Fri Sep 19 21:38:17 2025




          FINAL HEAT OF FORMATION =        113.40316 KCAL/MOL =     474.47881 KJ/MOL

          TOTAL ENERGY            =     -33666.47910 KCAL/MOL = ELECTRONIC ENERGY + CORE-CORE REPULSION + SOLVATION ENERGY
          ENERGY OF ATOMS         =      33782.22825 KCAL/MOL
                              SUM =        115.74915 KCAL/MOL
          DISPERSION ENERGY       =         -2.34599 KCAL/MOL
                              SUM =        113.40316 KCAL/MOL = FINAL HEAT OF FORMATION

          VAN DER WAALS AREA      =        170.60 SQUARE ANGSTROMS


          TOTAL ENERGY            =      -1459.91671 EV
          ELECTRONIC ENERGY       =      -2483.14996 EV 
          CORE-CORE REPULSION     =       1023.23325 EV

          DIELECTRIC ENERGY       =         -2.32300 EV
          COSMO AREA              =        170.60 SQUARE ANGSTROMS
          COSMO VOLUME            =        175.91 CUBIC ANGSTROMS

          GRADIENT NORM           =         13.12020          =       2.73575 PER ATOM
          IONIZATION POTENTIAL    =         11.238538 EV
          ALPHA SOMO LUMO (EV)    =        -11.269 -0.566
          BETA  SOMO LUMO (EV)    =        -11.239 -3.429
          NO. OF ALPHA ELECTRONS  =         26
          NO. OF BETA  ELECTRONS  =         25
          MOLECULAR WEIGHT        =        126.1980         POINT GROUP:  C1  

          MOLECULAR DIMENSIONS (Angstroms)

            Atom       Atom       Distance
            H    19    H    11     6.84004
            H    15    H    21     4.35535
            H    16    H    10     3.97040


          SCF CALCULATIONS        =          2

          WALL-CLOCK TIME         =      3.648 SECONDS
          COMPUTATION TIME        =      0.601 SECONDS

          LARGEST ATOMIC GRADIENTS

          Atom     Label                     Cartesian Gradients           Cartesian Coordinates       |Gradient|
                                           X          Y          Z        X          Y          Z

             3       C                   4.010      3.880     -1.879    1.24752    1.13593   -0.42085      5.887
             7       C                   2.812      4.783      0.957   -2.43606   -0.14570   -1.04000      5.630
             1       C                  -1.954      5.201     -0.509    2.41897   -1.05970   -0.58979      5.579
             8       C                   2.808      2.693     -0.231   -1.03632   -1.20325    0.88757      3.897
             5       C                  -2.615      1.994      1.149   -1.02848    1.34335    0.39689      3.483
            21       H                  -1.141     -1.754      0.530   -1.68477   -2.08461    0.84841      2.159
            19       H                  -1.443     -1.516      0.012   -3.39837    0.12593   -0.57473      2.093
            11       H                   1.085     -1.734      0.226    3.39837   -0.61400   -0.36723      2.058
            15       H                  -0.342     -1.953      0.091    1.24767    1.19859   -1.55364      1.985
            12       H                   0.832     -1.640      0.316    2.46979   -2.10105   -0.22616      1.866



       FINAL  POINT  AND  DERIVATIVES

   PARAMETER     ATOM    TYPE            VALUE        GRADIENT
      1          1  C    CARTESIAN X     2.418974     -1.953820  KCAL/ANGSTROM
      2          1  C    CARTESIAN Y    -1.059703      5.200760  KCAL/ANGSTROM
      3          1  C    CARTESIAN Z    -0.589794     -0.509157  KCAL/ANGSTROM
      4          2  C    CARTESIAN X     1.270683     -0.676990  KCAL/ANGSTROM
      5          2  C    CARTESIAN Y    -0.307172     -1.522226  KCAL/ANGSTROM
      6          2  C    CARTESIAN Z     0.072789      0.346973  KCAL/ANGSTROM
      7          3  C    CARTESIAN X     1.247516      4.009795  KCAL/ANGSTROM
      8          3  C    CARTESIAN Y     1.135931      3.879566  KCAL/ANGSTROM
      9          3  C    CARTESIAN Z    -0.420850     -1.878673  KCAL/ANGSTROM
     10          4  O    CARTESIAN X     0.172943     -0.855143  KCAL/ANGSTROM
     11          4  O    CARTESIAN Y     1.928807     -0.617318  KCAL/ANGSTROM
     12          4  O    CARTESIAN Z    -0.033075      0.334363  KCAL/ANGSTROM
     13          5  C    CARTESIAN X    -1.028483     -2.615446  KCAL/ANGSTROM
     14          5  C    CARTESIAN Y     1.343348      1.993606  KCAL/ANGSTROM
     15          5  C    CARTESIAN Z     0.396891      1.148779  KCAL/ANGSTROM
     16          6  C    CARTESIAN X    -1.298970     -1.297999  KCAL/ANGSTROM
     17          6  C    CARTESIAN Y    -0.052528      0.199461  KCAL/ANGSTROM
     18          6  C    CARTESIAN Z    -0.066725      0.076821  KCAL/ANGSTROM
     19          7  C    CARTESIAN X    -2.436058      2.812263  KCAL/ANGSTROM
     20          7  C    CARTESIAN Y    -0.145701      4.783040  KCAL/ANGSTROM
     21          7  C    CARTESIAN Z    -1.040003      0.956968  KCAL/ANGSTROM
     22          8  C    CARTESIAN X    -1.036319      2.807511  KCAL/ANGSTROM
     23          8  C    CARTESIAN Y    -1.203251      2.693466  KCAL/ANGSTROM
     24          8  C    CARTESIAN Z     0.887569     -0.230782  KCAL/ANGSTROM
     25          9  C    CARTESIAN X    -0.065583      0.705389  KCAL/ANGSTROM
     26          9  C    CARTESIAN Y    -0.943224      0.816277  KCAL/ANGSTROM
     27          9  C    CARTESIAN Z    -0.233598      1.126463  KCAL/ANGSTROM
     28         10  H    CARTESIAN X     2.319635      0.535791  KCAL/ANGSTROM
     29         10  H    CARTESIAN Y    -1.119180     -1.588024  KCAL/ANGSTROM
     30         10  H    CARTESIAN Z    -1.681533     -0.196726  KCAL/ANGSTROM
     31         11  H    CARTESIAN X     3.398367      1.085311  KCAL/ANGSTROM
     32         11  H    CARTESIAN Y    -0.613996     -1.733921  KCAL/ANGSTROM
     33         11  H    CARTESIAN Z    -0.367233      0.225922  KCAL/ANGSTROM
     34         12  H    CARTESIAN X     2.469786      0.832200  KCAL/ANGSTROM
     35         12  H    CARTESIAN Y    -2.101049     -1.640464  KCAL/ANGSTROM
     36         12  H    CARTESIAN Z    -0.226156      0.316227  KCAL/ANGSTROM
     37         13  H    CARTESIAN X     1.446559      0.441841  KCAL/ANGSTROM
     38         13  H    CARTESIAN Y    -0.303917     -0.757764  KCAL/ANGSTROM
     39         13  H    CARTESIAN Z     1.185496     -0.040368  KCAL/ANGSTROM
     40         14  H    CARTESIAN X     2.135190      0.526621  KCAL/ANGSTROM
     41         14  H    CARTESIAN Y     1.747500     -0.192483  KCAL/ANGSTROM
     42         14  H    CARTESIAN Z    -0.097368      0.232541  KCAL/ANGSTROM
     43         15  H    CARTESIAN X     1.247671     -0.342195  KCAL/ANGSTROM
     44         15  H    CARTESIAN Y     1.198593     -1.952958  KCAL/ANGSTROM
     45         15  H    CARTESIAN Z    -1.553644      0.090749  KCAL/ANGSTROM
     46         16  H    CARTESIAN X    -1.001536      0.110350  KCAL/ANGSTROM
     47         16  H    CARTESIAN Y     1.446972     -1.465204  KCAL/ANGSTROM
     48         16  H    CARTESIAN Z     1.523102      0.192133  KCAL/ANGSTROM
     49         17  H    CARTESIAN X    -1.789815     -0.937019  KCAL/ANGSTROM
     50         17  H    CARTESIAN Y     2.101049     -0.119201  KCAL/ANGSTROM
     51         17  H    CARTESIAN Z     0.052764     -0.865436  KCAL/ANGSTROM
     52         18  H    CARTESIAN X    -2.573688     -1.147740  KCAL/ANGSTROM
     53         18  H    CARTESIAN Y    -1.172166     -0.869608  KCAL/ANGSTROM
     54         18  H    CARTESIAN Z    -1.422396     -0.414801  KCAL/ANGSTROM
     55         19  H    CARTESIAN X    -3.398367     -1.442522  KCAL/ANGSTROM
     56         19  H    CARTESIAN Y     0.125931     -1.515928  KCAL/ANGSTROM
     57         19  H    CARTESIAN Z    -0.574725      0.011763  KCAL/ANGSTROM
     58         20  H    CARTESIAN X    -2.297542     -0.883045  KCAL/ANGSTROM
     59         20  H    CARTESIAN Y     0.492416     -0.987101  KCAL/ANGSTROM
     60         20  H    CARTESIAN Z    -1.924338     -1.221194  KCAL/ANGSTROM
     61         21  H    CARTESIAN X    -1.684771     -1.140771  KCAL/ANGSTROM
     62         21  H    CARTESIAN Y    -2.084607     -1.754268  KCAL/ANGSTROM
     63         21  H    CARTESIAN Z     0.848410      0.530244  KCAL/ANGSTROM
     64         22  H    CARTESIAN X    -0.758947     -0.569091  KCAL/ANGSTROM
     65         22  H    CARTESIAN Y    -1.024450     -1.669452  KCAL/ANGSTROM
     66         22  H    CARTESIAN Z     1.924338      0.384674  KCAL/ANGSTROM
     67         23  H    CARTESIAN X    -0.043470     -0.005291  KCAL/ANGSTROM
     68         23  H    CARTESIAN Y    -1.647514     -1.180260  KCAL/ANGSTROM
     69         23  H    CARTESIAN Z    -1.078319     -0.617484  KCAL/ANGSTROM




   ATOM   CHEMICAL          X               Y               Z
  NUMBER   SYMBOL      (ANGSTROMS)     (ANGSTROMS)     (ANGSTROMS)

     1       C          2.41897387  *  -1.05970349  *  -0.58979404  *
     2       C          1.27068280  *  -0.30717246  *   0.07278946  *
     3       C          1.24751617  *   1.13593108  *  -0.42084987  *
     4       O          0.17294344  *   1.92880660  *  -0.03307536  *
     5       C         -1.02848319  *   1.34334845  *   0.39689126  *
     6       C         -1.29897014  *  -0.05252760  *  -0.06672467  *
     7       C         -2.43605847  *  -0.14570113  *  -1.04000334  *
     8       C         -1.03631878  *  -1.20325150  *   0.88756868  *
     9       C         -0.06558301  *  -0.94322380  *  -0.23359753  *
    10       H          2.31963524  *  -1.11918007  *  -1.68153285  *
    11       H          3.39836709  *  -0.61399556  *  -0.36723339  *
    12       H          2.46978606  *  -2.10104904  *  -0.22615555  *
    13       H          1.44655913  *  -0.30391735  *   1.18549562  *
    14       H          2.13518996  *   1.74749957  *  -0.09736751  *
    15       H          1.24767085  *   1.19859346  *  -1.55364435  *
    16       H         -1.00153602  *   1.44697188  *   1.52310173  *
    17       H         -1.78981544  *   2.10104904  *   0.05276410  *
    18       H         -2.57368767  *  -1.17216621  *  -1.42239607  *
    19       H         -3.39836709  *   0.12593071  *  -0.57472508  *
    20       H         -2.29754184  *   0.49241610  *  -1.92433807  *
    21       H         -1.68477072  *  -2.08460699  *   0.84840954  *
    22       H         -0.75894707  *  -1.02445013  *   1.92433807  *
    23       H         -0.04347003  *  -1.64751368  *  -1.07831864  *

                             CARTESIAN COORDINATES

   1    C        2.418973873    -1.059703485    -0.589794037
   2    C        1.270682803    -0.307172457     0.072789462
   3    C        1.247516169     1.135931084    -0.420849865
   4    O        0.172943442     1.928806601    -0.033075362
   5    C       -1.028483186     1.343348446     0.396891258
   6    C       -1.298970139    -0.052527603    -0.066724666
   7    C       -2.436058470    -0.145701134    -1.040003336
   8    C       -1.036318783    -1.203251499     0.887568684
   9    C       -0.065583008    -0.943223802    -0.233597534
  10    H        2.319635238    -1.119180075    -1.681532850
  11    H        3.398367092    -0.613995558    -0.367233388
  12    H        2.469786058    -2.101049035    -0.226155552
  13    H        1.446559131    -0.303917352     1.185495618
  14    H        2.135189960     1.747499568    -0.097367508
  15    H        1.247670847     1.198593462    -1.553644346
  16    H       -1.001536023     1.446971880     1.523101726
  17    H       -1.789815441     2.101049035     0.052764104
  18    H       -2.573687671    -1.172166212    -1.422396071
  19    H       -3.398367092     0.125930711    -0.574725077
  20    H       -2.297541839     0.492416096    -1.924338072
  21    H       -1.684770721    -2.084606991     0.848409536
  22    H       -0.758947069    -1.024450126     1.924338072
  23    H       -0.043470030    -1.647513685    -1.078318637


           Empirical Formula: C8 H14 O  =    23 atoms



      MOLECULAR POINT GROUP   :   C1  


          ALPHA EIGENVALUES  
 -35.37170 -31.90788 -29.02427 -26.24243 -25.55456 -24.41202 -22.04376 -20.69259
 -19.30481 -18.42447 -18.15023 -17.74054 -16.28511 -16.00949 -15.34170 -14.68443
 -14.32236 -14.09145 -13.55752 -13.43971 -13.10161 -12.91125 -12.71631 -12.09625
 -11.56085 -11.26940  -0.56582   1.50222   2.11294   2.72273   2.91989   3.16323
   3.42992   3.64899   3.95140   3.96972   4.16017   4.21826   4.63878   4.75173
   5.21008   5.34004   5.42309   5.46918   5.49663   5.57969   5.71962   6.03732
   6.61520   6.63916


           BETA EIGENVALUES 
 -33.04473 -31.14463 -28.91813 -26.05043 -25.45168 -24.01521 -21.99861 -20.59238
 -19.08223 -17.97404 -17.62651 -17.16797 -16.07881 -15.68621 -14.96043 -14.55575
 -14.16475 -14.01072 -13.41728 -13.20896 -12.92176 -12.76614 -12.28876 -11.61872
 -11.23854  -3.42895   0.03874   1.56125   2.34948   2.73776   2.95973   3.25738
   3.45465   3.69702   3.96789   4.00632   4.28414   4.32896   4.72346   4.84955
   5.21625   5.34049   5.42652   5.46942   5.49747   5.58129   5.71974   6.03759
   6.61628   6.63937


              NET ATOMIC CHARGES AND DIPOLE CONTRIBUTIONS

  ATOM NO.   TYPE          CHARGE      No. of ELECS.   s-Pop       p-Pop       
    1          C          -0.455130        4.4551     1.05460     3.40053
    2          C          -0.110234        4.1102     1.05984     3.05040
    3          C          -0.214790        4.2148     1.12909     3.08570
    4          O           0.234696        5.7653     1.89154     3.87377
    5          C          -0.198628        4.1986     1.12224     3.07639
    6          C          -0.036675        4.0367     1.03503     3.00164
    7          C          -0.448562        4.4486     1.05053     3.39803
    8          C          -0.330783        4.3308     1.06150     3.26928
    9          C          -0.182519        4.1825     1.06131     3.12121
   10          H           0.163506        0.8365     0.83649
   11          H           0.167095        0.8329     0.83290
   12          H           0.170091        0.8299     0.82991
   13          H           0.182750        0.8172     0.81725
   14          H           0.242191        0.7578     0.75781
   15          H           0.262777        0.7372     0.73722
   16          H           0.252991        0.7470     0.74701
   17          H           0.240300        0.7597     0.75970
   18          H           0.172244        0.8278     0.82776
   19          H           0.172776        0.8272     0.82722
   20          H           0.166950        0.8330     0.83305
   21          H           0.183190        0.8168     0.81681
   22          H           0.177567        0.8224     0.82243
   23          H           0.188196        0.8118     0.81180
 DIPOLE           X         Y         Z       TOTAL
 POINT-CHG.     1.101     4.470     0.215     4.609
 HYBRID        -0.027     0.375     0.005     0.376
 SUM            1.074     4.845     0.220     4.967


          ATOMIC ORBITAL ELECTRON POPULATIONS

     Atom    s        px        py        pz   
    1  C   1.05460   1.08390   1.15453   1.16210
    2  C   1.05984   0.99421   0.93205   1.12413
    3  C   1.12909   0.92157   1.03993   1.12420
    4  O   1.89154   1.22058   1.38055   1.27264
    5  C   1.12224   0.88166   1.07061   1.12412
    6  C   1.03503   1.03054   0.90297   1.06814
    7  C   1.05053   1.08089   1.20639   1.11074
    8  C   1.06150   1.11493   1.09654   1.05781
    9  C   1.06131   0.92984   1.08917   1.10220
   10  H   0.83649
   11  H   0.83290
   12  H   0.82991
   13  H   0.81725
   14  H   0.75781
   15  H   0.73722
   16  H   0.74701
   17  H   0.75970
   18  H   0.82776
   19  H   0.82722
   20  H   0.83305
   21  H   0.81681
   22  H   0.82243
   23  H   0.81180


                    (SZ)    =    0.500000
                    (S**2)  =    0.757165


          ATOMIC ORBITAL SPIN POPULATIONS

    Atom   Total    s     px     py     pz   
         Atomic
    1  C -0.0020 -0.000 -0.001 -0.001 -0.000
    2  C  0.0102  0.000  0.001  0.004  0.005
    3  C -0.0034 -0.007 -0.020 -0.007  0.031
    4  O  0.7967  0.019  0.112  0.030  0.636
    5  C -0.0128 -0.007 -0.024 -0.004  0.022
    6  C  0.0093  0.001  0.001  0.004  0.003
    7  C  0.0041  0.001  0.002  0.001  0.001
    8  C -0.0008 -0.000  0.000 -0.001 -0.000
    9  C -0.0039 -0.000 -0.001 -0.003 -0.000
   10  H  0.0001  0.000
   11  H  0.0000  0.000
   12  H  0.0001  0.000
   13  H  0.0040  0.004
   14  H  0.0330  0.033
   15  H  0.0744  0.074
   16  H  0.0631  0.063
   17  H  0.0268  0.027
   18  H  0.0009  0.001
   19  H -0.0000 -0.000
   20  H -0.0000 -0.000
   21  H -0.0001 -0.000
   22  H  0.0000  0.000
   23  H  0.0003  0.000

 **********************
 *                    *
 * JOB ENDED NORMALLY *
 *                    *
 **********************



 TOTAL JOB TIME:             4.06 SECONDS

 == MOPAC DONE ==
