 *******************************************************************************
 **                                                                           **
 **                              MOPAC v23.2                                  **
 **                                                                           **
 *******************************************************************************
 **          Digital Object Identifier (DOI): 10.5281/zenodo.6511958          **
 **    Visit the DOI location for information on how to cite this program.    **
 *******************************************************************************

                              PM7 CALCULATION RESULTS

 *******************************************************************************
 *  CALCULATION DONE: (MAX THREADS = 40)             Fri Sep 19 21:32:25 2025  *
 *  PM7        - The PM7 Hamiltonian to be used
 *  EPS=37.5   - USE ANDREAS KLAMT'S COSMO IMPLICIT SOLVATION MODEL
 *  1SCF       - DO 1 SCF AND THEN STOP 
 *  T=         - A TIME OF 172800.0 SECONDS REQUESTED
 *  DUMP=N     - RESTART FILE WRITTEN EVERY 7200.0 SECONDS REQUESTED
 *  RELSCF     - DEFAULT SCF CRITERION MULTIPLIED BY 0.0001
 *              (DEFAULT SCF CRITERION = 0.00010)
 *  GRADIENTS  - ALL GRADIENTS TO BE PRINTED
 *  DISP       - PRINT DISPERSION AND HYDROGEN BOND ENERGIES
 *******************************************************************************
PM7 1SCF GRADIENTS EPS=37.5 DISP RELSCF=0.0001
 Title: ASE calculation

   ATOM   CHEMICAL          X               Y               Z
  NUMBER   SYMBOL      (ANGSTROMS)     (ANGSTROMS)     (ANGSTROMS)

     1       C          2.27336321  *  -0.94886919  *   0.43584971  *
     2       C          1.65243804  *   0.32711436  *   0.92958242  *
     3       C          0.84006115  *   1.26148909  *   0.05707191  *
     4       C         -0.03382610  *   0.51249330  *  -0.97486987  *
     5       C         -0.61510089  *  -0.27536274  *   0.21348533  *
     6       C         -1.00661851  *  -1.72204438  *   0.30760178  *
     7       C         -2.05364678  *  -0.64530800  *   0.49753961  *
     8       O         -2.94071412  *  -0.56268806  *  -0.56997386  *
     9       N          0.19399996  *   0.48395817  *   1.20942982  *
    10       H          2.24058440  *  -1.72498128  *   1.21511575  *
    11       H          1.76774816  *  -1.36132418  *  -0.44703959  *
    12       H          3.32626622  *  -0.79523110  *   0.16189402  *
    13       H          2.25495909  *   0.80639694  *   1.72599137  *
    14       H          0.96408030  *   2.32792808  *   0.03285470  *
    15       H          0.50237739  *  -0.07242458  *  -1.72599137  *
    16       H         -0.76133445  *   1.14715008  *  -1.49099675  *
    17       H         -1.03504896  *  -2.32792808  *  -0.59679810  *
    18       H         -0.69134491  *  -2.31956167  *   1.15926977  *
    19       H         -2.52302736  *  -0.44461367  *   1.45894864  *
    20       H         -3.32626622  *   0.33989360  *  -0.61695247  *



          CARTESIAN COORDINATES 

    NO.       ATOM           X           Y           Z

     1         C          2.2734     -0.9489      0.4358
     2         C          1.6524      0.3271      0.9296
     3         C          0.8401      1.2615      0.0571
     4         C         -0.0338      0.5125     -0.9749
     5         C         -0.6151     -0.2754      0.2135
     6         C         -1.0066     -1.7220      0.3076
     7         C         -2.0536     -0.6453      0.4975
     8         O         -2.9407     -0.5627     -0.5700
     9         N          0.1940      0.4840      1.2094
    10         H          2.2406     -1.7250      1.2151
    11         H          1.7677     -1.3613     -0.4470
    12         H          3.3263     -0.7952      0.1619
    13         H          2.2550      0.8064      1.7260
    14         H          0.9641      2.3279      0.0329
    15         H          0.5024     -0.0724     -1.7260
    16         H         -0.7613      1.1472     -1.4910
    17         H         -1.0350     -2.3279     -0.5968
    18         H         -0.6913     -2.3196      1.1593
    19         H         -2.5230     -0.4446      1.4589
    20         H         -3.3263      0.3399     -0.6170

 General Reference for PM7:
 "Optimization of Parameters for Semiempirical Methods VI: More Modifications to the 
 NDDO Approximations and Re-optimization of Parameters", J. J. P. Stewart, J. Mol. Mod., 1:32, 19 (2013)
 https://link.springer.com/article/10.1007/s00894-012-1667-x

           Empirical Formula: C7 H11 N O  =    20 atoms



      MOLECULAR POINT GROUP   :   C1  


      RHF CALCULATION, NO. OF DOUBLY OCCUPIED LEVELS = 25

  SCF CRITERION =    0.1000E-07

 -------------------------------------------------------------------------------
 PM7 1SCF GRADIENTS EPS=37.5 DISP RELSCF=0.0001
 Title: ASE calculation



     1SCF WAS SPECIFIED, SO BFGS WAS NOT USED                 
     SCF FIELD WAS ACHIEVED                                   


                              PM7 CALCULATION
                                                       MOPAC v23.2 Linux
                                                       Fri Sep 19 21:32:26 2025




          FINAL HEAT OF FORMATION =         28.59399 KCAL/MOL =     119.63724 KJ/MOL

          TOTAL ENERGY            =     -34293.43577 KCAL/MOL = ELECTRONIC ENERGY + CORE-CORE REPULSION + SOLVATION ENERGY
          ENERGY OF ATOMS         =      34323.93363 KCAL/MOL
                              SUM =         30.49786 KCAL/MOL
          DISPERSION ENERGY       =         -1.90387 KCAL/MOL
                              SUM =         28.59399 KCAL/MOL = FINAL HEAT OF FORMATION

          VAN DER WAALS AREA      =        162.69 SQUARE ANGSTROMS


          TOTAL ENERGY            =      -1487.10412 EV
          ELECTRONIC ENERGY       =      -2344.28066 EV 
          CORE-CORE REPULSION     =        857.17653 EV

          DIELECTRIC ENERGY       =         -0.49960 EV
          COSMO AREA              =        162.69 SQUARE ANGSTROMS
          COSMO VOLUME            =        164.23 CUBIC ANGSTROMS

          GRADIENT NORM           =         11.49954          =       2.57138 PER ATOM
          IONIZATION POTENTIAL    =         10.057292 EV
          HOMO LUMO ENERGIES (EV) =        -10.057  1.684
          NO. OF FILLED LEVELS    =         25
          MOLECULAR WEIGHT        =        125.1700         POINT GROUP:  C1  

          MOLECULAR DIMENSIONS (Angstroms)

            Atom       Atom       Distance
            H    20    H    12     6.79347
            H    14    H    18     5.00965
            H    13    H    15     3.43283


          SCF CALCULATIONS        =          2

          WALL-CLOCK TIME         =      0.625 SECONDS
          COMPUTATION TIME        =      0.590 SECONDS

          LARGEST ATOMIC GRADIENTS

          Atom     Label                     Cartesian Gradients           Cartesian Coordinates       |Gradient|
                                           X          Y          Z        X          Y          Z

            20       H                   2.378     -5.063      1.507   -3.32627    0.33989   -0.61695      5.793
             8       O                  -2.536      3.323     -2.878   -2.94071   -0.56269   -0.56997      5.075
             1       C                   2.665     -1.990     -1.449    2.27336   -0.94887    0.43585      3.628
             2       C                  -2.557      0.245      1.523    1.65244    0.32711    0.92958      2.987
             9       N                   2.202      1.048     -0.536    0.19400    0.48396    1.20943      2.497
             6       C                   1.522     -1.841     -0.415   -1.00662   -1.72204    0.30760      2.425
             7       C                  -0.737      2.120      0.763   -2.05365   -0.64531    0.49754      2.371
             4       C                  -0.293     -0.202     -2.341   -0.03383    0.51249   -0.97487      2.368
             5       C                   1.526      0.013      1.750   -0.61510   -0.27536    0.21349      2.322
            13       H                  -1.655     -0.633     -0.602    2.25496    0.80640    1.72599      1.871



       FINAL  POINT  AND  DERIVATIVES

   PARAMETER     ATOM    TYPE            VALUE        GRADIENT
      1          1  C    CARTESIAN X     2.273363      2.664520  KCAL/ANGSTROM
      2          1  C    CARTESIAN Y    -0.948869     -1.990109  KCAL/ANGSTROM
      3          1  C    CARTESIAN Z     0.435850     -1.449413  KCAL/ANGSTROM
      4          2  C    CARTESIAN X     1.652438     -2.557223  KCAL/ANGSTROM
      5          2  C    CARTESIAN Y     0.327114      0.245113  KCAL/ANGSTROM
      6          2  C    CARTESIAN Z     0.929582      1.523165  KCAL/ANGSTROM
      7          3  C    CARTESIAN X     0.840061     -0.393886  KCAL/ANGSTROM
      8          3  C    CARTESIAN Y     1.261489      1.690207  KCAL/ANGSTROM
      9          3  C    CARTESIAN Z     0.057072      0.228527  KCAL/ANGSTROM
     10          4  C    CARTESIAN X    -0.033826     -0.292977  KCAL/ANGSTROM
     11          4  C    CARTESIAN Y     0.512493     -0.201709  KCAL/ANGSTROM
     12          4  C    CARTESIAN Z    -0.974870     -2.341197  KCAL/ANGSTROM
     13          5  C    CARTESIAN X    -0.615101      1.526400  KCAL/ANGSTROM
     14          5  C    CARTESIAN Y    -0.275363      0.012865  KCAL/ANGSTROM
     15          5  C    CARTESIAN Z     0.213485      1.750024  KCAL/ANGSTROM
     16          6  C    CARTESIAN X    -1.006619      1.521966  KCAL/ANGSTROM
     17          6  C    CARTESIAN Y    -1.722044     -1.841098  KCAL/ANGSTROM
     18          6  C    CARTESIAN Z     0.307602     -0.415179  KCAL/ANGSTROM
     19          7  C    CARTESIAN X    -2.053647     -0.737346  KCAL/ANGSTROM
     20          7  C    CARTESIAN Y    -0.645308      2.119882  KCAL/ANGSTROM
     21          7  C    CARTESIAN Z     0.497540      0.762841  KCAL/ANGSTROM
     22          8  O    CARTESIAN X    -2.940714     -2.536372  KCAL/ANGSTROM
     23          8  O    CARTESIAN Y    -0.562688      3.322849  KCAL/ANGSTROM
     24          8  O    CARTESIAN Z    -0.569974     -2.877725  KCAL/ANGSTROM
     25          9  N    CARTESIAN X     0.194000      2.201713  KCAL/ANGSTROM
     26          9  N    CARTESIAN Y     0.483958      1.048013  KCAL/ANGSTROM
     27          9  N    CARTESIAN Z     1.209430     -0.535826  KCAL/ANGSTROM
     28         10  H    CARTESIAN X     2.240584     -0.682455  KCAL/ANGSTROM
     29         10  H    CARTESIAN Y    -1.724981      0.651552  KCAL/ANGSTROM
     30         10  H    CARTESIAN Z     1.215116      0.217111  KCAL/ANGSTROM
     31         11  H    CARTESIAN X     1.767748     -0.070013  KCAL/ANGSTROM
     32         11  H    CARTESIAN Y    -1.361324      0.763281  KCAL/ANGSTROM
     33         11  H    CARTESIAN Z    -0.447040      0.326057  KCAL/ANGSTROM
     34         12  H    CARTESIAN X     3.326266     -0.611335  KCAL/ANGSTROM
     35         12  H    CARTESIAN Y    -0.795231      0.095073  KCAL/ANGSTROM
     36         12  H    CARTESIAN Z     0.161894      0.079872  KCAL/ANGSTROM
     37         13  H    CARTESIAN X     2.254959     -1.654890  KCAL/ANGSTROM
     38         13  H    CARTESIAN Y     0.806397     -0.632962  KCAL/ANGSTROM
     39         13  H    CARTESIAN Z     1.725991     -0.601505  KCAL/ANGSTROM
     40         14  H    CARTESIAN X     0.964080     -0.315878  KCAL/ANGSTROM
     41         14  H    CARTESIAN Y     2.327928     -1.582960  KCAL/ANGSTROM
     42         14  H    CARTESIAN Z     0.032855      0.303262  KCAL/ANGSTROM
     43         15  H    CARTESIAN X     0.502377     -0.508778  KCAL/ANGSTROM
     44         15  H    CARTESIAN Y    -0.072425      0.604209  KCAL/ANGSTROM
     45         15  H    CARTESIAN Z    -1.725991      0.701714  KCAL/ANGSTROM
     46         16  H    CARTESIAN X    -0.761334      0.928212  KCAL/ANGSTROM
     47         16  H    CARTESIAN Y     1.147150     -0.514237  KCAL/ANGSTROM
     48         16  H    CARTESIAN Z    -1.490997      0.943572  KCAL/ANGSTROM
     49         17  H    CARTESIAN X    -1.035049     -1.651312  KCAL/ANGSTROM
     50         17  H    CARTESIAN Y    -2.327928      0.676668  KCAL/ANGSTROM
     51         17  H    CARTESIAN Z    -0.596798      0.528704  KCAL/ANGSTROM
     52         18  H    CARTESIAN X    -0.691345     -0.671513  KCAL/ANGSTROM
     53         18  H    CARTESIAN Y    -2.319562      1.090577  KCAL/ANGSTROM
     54         18  H    CARTESIAN Z     1.159270     -0.319368  KCAL/ANGSTROM
     55         19  H    CARTESIAN X    -2.523027      1.463429  KCAL/ANGSTROM
     56         19  H    CARTESIAN Y    -0.444614     -0.494643  KCAL/ANGSTROM
     57         19  H    CARTESIAN Z     1.458949     -0.331370  KCAL/ANGSTROM
     58         20  H    CARTESIAN X    -3.326266      2.377739  KCAL/ANGSTROM
     59         20  H    CARTESIAN Y     0.339894     -5.062573  KCAL/ANGSTROM
     60         20  H    CARTESIAN Z    -0.616952      1.506729  KCAL/ANGSTROM




   ATOM   CHEMICAL          X               Y               Z
  NUMBER   SYMBOL      (ANGSTROMS)     (ANGSTROMS)     (ANGSTROMS)

     1       C          2.27336321  *  -0.94886919  *   0.43584971  *
     2       C          1.65243804  *   0.32711436  *   0.92958242  *
     3       C          0.84006115  *   1.26148909  *   0.05707191  *
     4       C         -0.03382610  *   0.51249330  *  -0.97486987  *
     5       C         -0.61510089  *  -0.27536274  *   0.21348533  *
     6       C         -1.00661851  *  -1.72204438  *   0.30760178  *
     7       C         -2.05364678  *  -0.64530800  *   0.49753961  *
     8       O         -2.94071412  *  -0.56268806  *  -0.56997386  *
     9       N          0.19399996  *   0.48395817  *   1.20942982  *
    10       H          2.24058440  *  -1.72498128  *   1.21511575  *
    11       H          1.76774816  *  -1.36132418  *  -0.44703959  *
    12       H          3.32626622  *  -0.79523110  *   0.16189402  *
    13       H          2.25495909  *   0.80639694  *   1.72599137  *
    14       H          0.96408030  *   2.32792808  *   0.03285470  *
    15       H          0.50237739  *  -0.07242458  *  -1.72599137  *
    16       H         -0.76133445  *   1.14715008  *  -1.49099675  *
    17       H         -1.03504896  *  -2.32792808  *  -0.59679810  *
    18       H         -0.69134491  *  -2.31956167  *   1.15926977  *
    19       H         -2.52302736  *  -0.44461367  *   1.45894864  *
    20       H         -3.32626622  *   0.33989360  *  -0.61695247  *

                             CARTESIAN COORDINATES

   1    C        2.273363211    -0.948869190     0.435849711
   2    C        1.652438042     0.327114359     0.929582421
   3    C        0.840061145     1.261489087     0.057071905
   4    C       -0.033826105     0.512493299    -0.974869867
   5    C       -0.615100887    -0.275362741     0.213485329
   6    C       -1.006618515    -1.722044379     0.307601779
   7    C       -2.053646775    -0.645307996     0.497539606
   8    O       -2.940714117    -0.562688060    -0.569973861
   9    N        0.193999960     0.483958168     1.209429825
  10    H        2.240584395    -1.724981279     1.215115751
  11    H        1.767748158    -1.361324177    -0.447039593
  12    H        3.326266216    -0.795231096     0.161894024
  13    H        2.254959089     0.806396944     1.725991373
  14    H        0.964080303     2.327928081     0.032854701
  15    H        0.502377389    -0.072424581    -1.725991373
  16    H       -0.761334450     1.147150084    -1.490996753
  17    H       -1.035048956    -2.327928081    -0.596798096
  18    H       -0.691344909    -2.319561669     1.159269772
  19    H       -2.523027363    -0.444613674     1.458948637
  20    H       -3.326266216     0.339893600    -0.616952472


           Empirical Formula: C7 H11 N O  =    20 atoms



      MOLECULAR POINT GROUP   :   C1  


                  EIGENVALUES  
 -37.23475 -30.85352 -28.63746 -26.39885 -25.74150 -22.85946 -20.98705 -19.34725
 -18.71768 -18.03340 -17.38689 -16.28226 -15.84976 -14.70874 -14.52803 -14.23433
 -13.61073 -13.43660 -12.83769 -12.43043 -12.10583 -11.88290 -11.28939 -10.82798
 -10.05729   1.68422   1.88363   2.22351   2.70911   2.94798   3.43408   3.49294
   3.82404   3.88742   4.16655   4.48125   5.34327   5.42356   5.53414   5.63601
   5.69539   5.73257   5.81356   5.90772   6.21753   6.28988   6.81243


              NET ATOMIC CHARGES AND DIPOLE CONTRIBUTIONS

  ATOM NO.   TYPE          CHARGE      No. of ELECS.   s-Pop       p-Pop       
    1          C          -0.465554        4.4656     1.05194     3.41362
    2          C          -0.008330        4.0083     1.07370     2.93463
    3          C          -0.089883        4.0899     1.09503     2.99485
    4          C          -0.287139        4.2871     1.07456     3.21258
    5          C           0.052036        3.9480     1.05522     2.89274
    6          C          -0.376333        4.3763     1.06323     3.31310
    7          C           0.102920        3.8971     1.07068     2.82640
    8          O          -0.579083        6.5791     1.84109     4.73800
    9          N          -0.466370        5.4664     1.79592     3.67045
   10          H           0.169169        0.8308     0.83083
   11          H           0.167596        0.8324     0.83240
   12          H           0.169283        0.8307     0.83072
   13          H           0.179976        0.8200     0.82002
   14          H           0.180470        0.8195     0.81953
   15          H           0.169874        0.8301     0.83013
   16          H           0.172672        0.8273     0.82733
   17          H           0.187773        0.8122     0.81223
   18          H           0.184865        0.8151     0.81513
   19          H           0.169451        0.8305     0.83055
   20          H           0.366607        0.6334     0.63339
 DIPOLE           X         Y         Z       TOTAL
 POINT-CHG.     1.983     0.604    -0.846     2.239
 HYBRID        -0.226    -0.124    -0.574     0.630
 SUM            1.758     0.480    -1.420     2.310


          ATOMIC ORBITAL ELECTRON POPULATIONS

     Atom    s        px        py        pz   
    1  C   1.05194   1.16346   1.06869   1.18147
    2  C   1.07370   0.87125   1.01476   1.04862
    3  C   1.09503   1.03772   1.06504   0.89209
    4  C   1.07456   1.08701   1.08399   1.04158
    5  C   1.05522   0.99998   0.97469   0.91807
    6  C   1.06323   1.11029   1.00236   1.20045
    7  C   1.07068   0.84654   1.05639   0.92347
    8  O   1.84109   1.66258   1.49693   1.57849
    9  N   1.79592   1.11566   1.26431   1.29048
   10  H   0.83083
   11  H   0.83240
   12  H   0.83072
   13  H   0.82002
   14  H   0.81953
   15  H   0.83013
   16  H   0.82733
   17  H   0.81223
   18  H   0.81513
   19  H   0.83055
   20  H   0.63339

 **********************
 *                    *
 * JOB ENDED NORMALLY *
 *                    *
 **********************



 TOTAL JOB TIME:             0.97 SECONDS

 == MOPAC DONE ==
