 *******************************************************************************
 **                                                                           **
 **                              MOPAC v23.2                                  **
 **                                                                           **
 *******************************************************************************
 **          Digital Object Identifier (DOI): 10.5281/zenodo.6511958          **
 **    Visit the DOI location for information on how to cite this program.    **
 *******************************************************************************

                              PM7 CALCULATION RESULTS

 *******************************************************************************
 *  CALCULATION DONE: (MAX THREADS = 40)             Fri Sep 19 21:40:16 2025  *
 *  PM7        - The PM7 Hamiltonian to be used
 *
 *
 *
 *                 CHARGE ON SYSTEM = +1
 *
 *
 *
 *  1SCF       - DO 1 SCF AND THEN STOP 
 *  T=         - A TIME OF 172800.0 SECONDS REQUESTED
 *  DUMP=N     - RESTART FILE WRITTEN EVERY 7200.0 SECONDS REQUESTED
 *  RELSCF     - DEFAULT SCF CRITERION MULTIPLIED BY 0.0001
 *              (DEFAULT SCF CRITERION = 0.00010)
 *  GRADIENTS  - ALL GRADIENTS TO BE PRINTED
 *  DISP       - PRINT DISPERSION AND HYDROGEN BOND ENERGIES
 *******************************************************************************
PM7 1SCF GRADIENTS DISP RELSCF=0.0001 CHARGE=1
 Title: ASE calculation

   ATOM   CHEMICAL          X               Y               Z
  NUMBER   SYMBOL      (ANGSTROMS)     (ANGSTROMS)     (ANGSTROMS)

     1       C         -2.46807019  *  -1.58479416  *   0.30094328  *
     2       C         -1.31444755  *  -0.70175893  *   0.40213859  *
     3       C         -1.41496823  *   0.51478505  *   1.12481420  *
     4       C         -0.42738461  *   1.56800353  *   0.92104667  *
     5       O          0.51750171  *   1.27686722  *  -0.07620222  *
     6       C          1.06351857  *  -0.03307904  *   0.02271382  *
     7       C          2.17458096  *  -0.03439166  *  -1.04578228  *
     8       O          3.38537085  *   0.28126296  *  -0.41515761  *
     9       C         -0.05519248  *  -1.05257806  *  -0.25981002  *
    10       H         -2.32532305  *  -2.53420906  *   0.87585770  *
    11       H         -3.42425368  *  -1.16233784  *   0.66800035  *
    12       H         -2.66744233  *  -1.94358039  *  -0.73474432  *
    13       H         -2.22962575  *   0.68577506  *   1.83960444  *
    14       H          0.10782905  *   1.83381619  *   1.87861499  *
    15       H         -0.87575347  *   2.54314046  *   0.56980259  *
    16       H          1.50594605  *  -0.18201487  *   1.03571940  *
    17       H          1.94874483  *   0.66965397  *  -1.86970778  *
    18       H          2.35561169  *  -1.04756133  *  -1.45791555  *
    19       H          3.48355432  *   1.25388682  *  -0.29640964  *
    20       H          0.29494074  *  -2.08673217  *   0.00324814  *
    21       H         -0.22168456  *  -1.14467734  *  -1.37182173  *



          CARTESIAN COORDINATES 

    NO.       ATOM           X           Y           Z

     1         C         -2.4681     -1.5848      0.3009
     2         C         -1.3144     -0.7018      0.4021
     3         C         -1.4150      0.5148      1.1248
     4         C         -0.4274      1.5680      0.9210
     5         O          0.5175      1.2769     -0.0762
     6         C          1.0635     -0.0331      0.0227
     7         C          2.1746     -0.0344     -1.0458
     8         O          3.3854      0.2813     -0.4152
     9         C         -0.0552     -1.0526     -0.2598
    10         H         -2.3253     -2.5342      0.8759
    11         H         -3.4243     -1.1623      0.6680
    12         H         -2.6674     -1.9436     -0.7347
    13         H         -2.2296      0.6858      1.8396
    14         H          0.1078      1.8338      1.8786
    15         H         -0.8758      2.5431      0.5698
    16         H          1.5059     -0.1820      1.0357
    17         H          1.9487      0.6697     -1.8697
    18         H          2.3556     -1.0476     -1.4579
    19         H          3.4836      1.2539     -0.2964
    20         H          0.2949     -2.0867      0.0032
    21         H         -0.2217     -1.1447     -1.3718

 General Reference for PM7:
 "Optimization of Parameters for Semiempirical Methods VI: More Modifications to the 
 NDDO Approximations and Re-optimization of Parameters", J. J. P. Stewart, J. Mol. Mod., 1:32, 19 (2013)
 https://link.springer.com/article/10.1007/s00894-012-1667-x

           Empirical Formula: C7 H12 O2  =    21 atoms



      MOLECULAR POINT GROUP   :   C1  


          UHF CALCULATION, NO. OF ALPHA ELECTRONS =   26
                           NO. OF BETA  ELECTRONS =   25
  SCF CRITERION =    0.1000E-07

 -------------------------------------------------------------------------------
 PM7 1SCF GRADIENTS DISP RELSCF=0.0001 CHARGE=1
 Title: ASE calculation



     1SCF WAS SPECIFIED, SO BFGS WAS NOT USED                 
     SCF FIELD WAS ACHIEVED                                   


                              PM7 CALCULATION
                                                       MOPAC v23.2 Linux
                                                       Fri Sep 19 21:40:17 2025




          FINAL HEAT OF FORMATION =        112.33924 KCAL/MOL =     470.02737 KJ/MOL

          TOTAL ENERGY            =     -36982.80328 KCAL/MOL = ELECTRONIC ENERGY + CORE-CORE REPULSION
          ENERGY OF ATOMS         =      37097.27293 KCAL/MOL
                              SUM =        114.46965 KCAL/MOL
          DISPERSION ENERGY       =         -2.13042 KCAL/MOL
                              SUM =        112.33924 KCAL/MOL = FINAL HEAT OF FORMATION



          TOTAL ENERGY            =      -1603.72614 EV
          ELECTRONIC ENERGY       =      -7896.43960 EV 
          CORE-CORE REPULSION     =       6292.71347 EV
          COSMO AREA              =        169.91 SQUARE ANGSTROMS
          COSMO VOLUME            =        167.28 CUBIC ANGSTROMS

          GRADIENT NORM           =          1.37514          =       0.30008 PER ATOM
          IONIZATION POTENTIAL    =         14.081675 EV
          ALPHA SOMO LUMO (EV)    =        -14.082 -6.019
          BETA  SOMO LUMO (EV)    =        -14.084 -7.754
          NO. OF ALPHA ELECTRONS  =         26
          NO. OF BETA  ELECTRONS  =         25
          MOLECULAR WEIGHT        =        128.1706         POINT GROUP:  C1  

          MOLECULAR DIMENSIONS (Angstroms)

            Atom       Atom       Distance
            H    19    H    11     7.38147
            H    20    H    15     4.79662
            H    14    H    17     3.29042


          SCF CALCULATIONS        =          1

          WALL-CLOCK TIME         =      1.188 SECONDS
          COMPUTATION TIME        =      0.485 SECONDS

          LARGEST ATOMIC GRADIENTS

          Atom     Label                     Cartesian Gradients           Cartesian Coordinates       |Gradient|
                                           X          Y          Z        X          Y          Z

            17       H                  -0.282     -0.042      0.354    1.94874    0.66965   -1.86971      0.455
            15       H                  -0.159      0.339     -0.117   -0.87575    2.54314    0.56980      0.393
             9       C                   0.285     -0.197     -0.171   -0.05519   -1.05258   -0.25981      0.386
            16       H                  -0.189      0.158     -0.297    1.50595   -0.18201    1.03572      0.386
             8       O                  -0.314      0.165     -0.057    3.38537    0.28126   -0.41516      0.360
            13       H                  -0.326     -0.094      0.118   -2.22963    0.68578    1.83960      0.359
             6       C                   0.130     -0.229     -0.212    1.06352   -0.03308    0.02271      0.338
            14       H                   0.318      0.007     -0.078    0.10783    1.83382    1.87861      0.328
            20       H                   0.029     -0.257      0.183    0.29494   -2.08673    0.00325      0.317
            11       H                  -0.141      0.081      0.241   -3.42425   -1.16234    0.66800      0.291



       FINAL  POINT  AND  DERIVATIVES

   PARAMETER     ATOM    TYPE            VALUE        GRADIENT
      1          1  C    CARTESIAN X    -2.468070     -0.050306  KCAL/ANGSTROM
      2          1  C    CARTESIAN Y    -1.584794      0.083394  KCAL/ANGSTROM
      3          1  C    CARTESIAN Z     0.300943     -0.013582  KCAL/ANGSTROM
      4          2  C    CARTESIAN X    -1.314448      0.168842  KCAL/ANGSTROM
      5          2  C    CARTESIAN Y    -0.701759      0.039216  KCAL/ANGSTROM
      6          2  C    CARTESIAN Z     0.402139     -0.167874  KCAL/ANGSTROM
      7          3  C    CARTESIAN X    -1.414968      0.154552  KCAL/ANGSTROM
      8          3  C    CARTESIAN Y     0.514785     -0.098870  KCAL/ANGSTROM
      9          3  C    CARTESIAN Z     1.124814      0.224306  KCAL/ANGSTROM
     10          4  C    CARTESIAN X    -0.427385      0.073287  KCAL/ANGSTROM
     11          4  C    CARTESIAN Y     1.568004      0.060706  KCAL/ANGSTROM
     12          4  C    CARTESIAN Z     0.921047     -0.145505  KCAL/ANGSTROM
     13          5  O    CARTESIAN X     0.517502      0.218608  KCAL/ANGSTROM
     14          5  O    CARTESIAN Y     1.276867     -0.141948  KCAL/ANGSTROM
     15          5  O    CARTESIAN Z    -0.076202     -0.007789  KCAL/ANGSTROM
     16          6  C    CARTESIAN X     1.063519      0.129514  KCAL/ANGSTROM
     17          6  C    CARTESIAN Y    -0.033079     -0.228532  KCAL/ANGSTROM
     18          6  C    CARTESIAN Z     0.022714     -0.212250  KCAL/ANGSTROM
     19          7  C    CARTESIAN X     2.174581      0.118431  KCAL/ANGSTROM
     20          7  C    CARTESIAN Y    -0.034392      0.021072  KCAL/ANGSTROM
     21          7  C    CARTESIAN Z    -1.045782     -0.068968  KCAL/ANGSTROM
     22          8  O    CARTESIAN X     3.385371     -0.314180  KCAL/ANGSTROM
     23          8  O    CARTESIAN Y     0.281263      0.165473  KCAL/ANGSTROM
     24          8  O    CARTESIAN Z    -0.415158     -0.056777  KCAL/ANGSTROM
     25          9  C    CARTESIAN X    -0.055192      0.285361  KCAL/ANGSTROM
     26          9  C    CARTESIAN Y    -1.052578     -0.197103  KCAL/ANGSTROM
     27          9  C    CARTESIAN Z    -0.259810     -0.170519  KCAL/ANGSTROM
     28         10  H    CARTESIAN X    -2.325323     -0.040379  KCAL/ANGSTROM
     29         10  H    CARTESIAN Y    -2.534209     -0.132656  KCAL/ANGSTROM
     30         10  H    CARTESIAN Z     0.875858      0.050499  KCAL/ANGSTROM
     31         11  H    CARTESIAN X    -3.424254     -0.141181  KCAL/ANGSTROM
     32         11  H    CARTESIAN Y    -1.162338      0.081255  KCAL/ANGSTROM
     33         11  H    CARTESIAN Z     0.668000      0.240691  KCAL/ANGSTROM
     34         12  H    CARTESIAN X    -2.667442     -0.144391  KCAL/ANGSTROM
     35         12  H    CARTESIAN Y    -1.943580      0.204261  KCAL/ANGSTROM
     36         12  H    CARTESIAN Z    -0.734744     -0.131521  KCAL/ANGSTROM
     37         13  H    CARTESIAN X    -2.229626     -0.326107  KCAL/ANGSTROM
     38         13  H    CARTESIAN Y     0.685775     -0.094380  KCAL/ANGSTROM
     39         13  H    CARTESIAN Z     1.839604      0.117913  KCAL/ANGSTROM
     40         14  H    CARTESIAN X     0.107829      0.318455  KCAL/ANGSTROM
     41         14  H    CARTESIAN Y     1.833816      0.006682  KCAL/ANGSTROM
     42         14  H    CARTESIAN Z     1.878615     -0.078422  KCAL/ANGSTROM
     43         15  H    CARTESIAN X    -0.875753     -0.159381  KCAL/ANGSTROM
     44         15  H    CARTESIAN Y     2.543140      0.339274  KCAL/ANGSTROM
     45         15  H    CARTESIAN Z     0.569803     -0.117492  KCAL/ANGSTROM
     46         16  H    CARTESIAN X     1.505946     -0.189260  KCAL/ANGSTROM
     47         16  H    CARTESIAN Y    -0.182015      0.158429  KCAL/ANGSTROM
     48         16  H    CARTESIAN Z     1.035719     -0.297137  KCAL/ANGSTROM
     49         17  H    CARTESIAN X     1.948745     -0.281894  KCAL/ANGSTROM
     50         17  H    CARTESIAN Y     0.669654     -0.041971  KCAL/ANGSTROM
     51         17  H    CARTESIAN Z    -1.869708      0.354421  KCAL/ANGSTROM
     52         18  H    CARTESIAN X     2.355612      0.032761  KCAL/ANGSTROM
     53         18  H    CARTESIAN Y    -1.047561      0.197572  KCAL/ANGSTROM
     54         18  H    CARTESIAN Z    -1.457916      0.123854  KCAL/ANGSTROM
     55         19  H    CARTESIAN X     3.483554     -0.059130  KCAL/ANGSTROM
     56         19  H    CARTESIAN Y     1.253887     -0.022685  KCAL/ANGSTROM
     57         19  H    CARTESIAN Z    -0.296410      0.272355  KCAL/ANGSTROM
     58         20  H    CARTESIAN X     0.294941      0.029418  KCAL/ANGSTROM
     59         20  H    CARTESIAN Y    -2.086732     -0.257385  KCAL/ANGSTROM
     60         20  H    CARTESIAN Z     0.003248      0.183354  KCAL/ANGSTROM
     61         21  H    CARTESIAN X    -0.221685      0.176983  KCAL/ANGSTROM
     62         21  H    CARTESIAN Y    -1.144677     -0.141809  KCAL/ANGSTROM
     63         21  H    CARTESIAN Z    -1.371822     -0.099559  KCAL/ANGSTROM




   ATOM   CHEMICAL          X               Y               Z
  NUMBER   SYMBOL      (ANGSTROMS)     (ANGSTROMS)     (ANGSTROMS)

     1       C         -2.46807019  *  -1.58479416  *   0.30094328  *
     2       C         -1.31444755  *  -0.70175893  *   0.40213859  *
     3       C         -1.41496823  *   0.51478505  *   1.12481420  *
     4       C         -0.42738461  *   1.56800353  *   0.92104667  *
     5       O          0.51750171  *   1.27686722  *  -0.07620222  *
     6       C          1.06351857  *  -0.03307904  *   0.02271382  *
     7       C          2.17458096  *  -0.03439166  *  -1.04578228  *
     8       O          3.38537085  *   0.28126296  *  -0.41515761  *
     9       C         -0.05519248  *  -1.05257806  *  -0.25981002  *
    10       H         -2.32532305  *  -2.53420906  *   0.87585770  *
    11       H         -3.42425368  *  -1.16233784  *   0.66800035  *
    12       H         -2.66744233  *  -1.94358039  *  -0.73474432  *
    13       H         -2.22962575  *   0.68577506  *   1.83960444  *
    14       H          0.10782905  *   1.83381619  *   1.87861499  *
    15       H         -0.87575347  *   2.54314046  *   0.56980259  *
    16       H          1.50594605  *  -0.18201487  *   1.03571940  *
    17       H          1.94874483  *   0.66965397  *  -1.86970778  *
    18       H          2.35561169  *  -1.04756133  *  -1.45791555  *
    19       H          3.48355432  *   1.25388682  *  -0.29640964  *
    20       H          0.29494074  *  -2.08673217  *   0.00324814  *
    21       H         -0.22168456  *  -1.14467734  *  -1.37182173  *

                             CARTESIAN COORDINATES

   1    C       -2.468070192    -1.584794156     0.300943282
   2    C       -1.314447551    -0.701758928     0.402138594
   3    C       -1.414968230     0.514785053     1.124814198
   4    C       -0.427384607     1.568003530     0.921046670
   5    O        0.517501712     1.276867215    -0.076202225
   6    C        1.063518572    -0.033079041     0.022713824
   7    C        2.174580964    -0.034391663    -1.045782277
   8    O        3.385370848     0.281262962    -0.415157614
   9    C       -0.055192477    -1.052578062    -0.259810021
  10    H       -2.325323045    -2.534209059     0.875857703
  11    H       -3.424253684    -1.162337837     0.668000349
  12    H       -2.667442326    -1.943580391    -0.734744316
  13    H       -2.229625748     0.685775059     1.839604443
  14    H        0.107829047     1.833816186     1.878614985
  15    H       -0.875753468     2.543140462     0.569802590
  16    H        1.505946048    -0.182014870     1.035719396
  17    H        1.948744827     0.669653970    -1.869707784
  18    H        2.355611691    -1.047561335    -1.457915553
  19    H        3.483554322     1.253886824    -0.296409642
  20    H        0.294940743    -2.086732172     0.003248139
  21    H       -0.221684561    -1.144677342    -1.371821726


           Empirical Formula: C7 H12 O2  =    21 atoms



      MOLECULAR POINT GROUP   :   C1  


          ALPHA EIGENVALUES  
 -36.27707 -33.91716 -33.15258 -31.68462 -30.56356 -28.12672 -27.40340 -25.11674
 -23.36906 -22.16403 -22.01463 -21.21532 -20.52017 -19.94019 -19.36107 -19.19994
 -18.98903 -18.59310 -18.30021 -17.68883 -17.35982 -16.56487 -15.52510 -15.48315
 -14.77367 -14.08167  -6.01891  -2.66531  -1.97518  -1.86599  -1.65909  -1.39760
  -0.88345  -0.58903  -0.27893  -0.14548   0.04542   0.13765   0.16285   0.35308
   0.38201   0.94816   1.03475   1.37269   1.52746   1.79069   2.24089   2.91436


           BETA EIGENVALUES 
 -36.14521 -33.82479 -33.13053 -31.59869 -30.49329 -28.08165 -27.19607 -25.08240
 -23.23936 -22.09301 -21.89461 -21.04642 -20.25144 -19.70615 -19.27369 -19.12345
 -18.91075 -18.46735 -18.15595 -17.62916 -17.13567 -16.51201 -15.51465 -14.81457
 -14.08426  -7.75398  -4.71231  -2.63822  -1.86877  -1.75068  -1.54996  -1.27137
  -0.77063  -0.57087  -0.25627  -0.10234   0.11920   0.22710   0.25867   0.37797
   0.46216   1.00862   1.06745   1.37314   1.54553   1.79094   2.24108   2.91442


              NET ATOMIC CHARGES AND DIPOLE CONTRIBUTIONS

  ATOM NO.   TYPE          CHARGE      No. of ELECS.   s-Pop       p-Pop       
    1          C          -0.536422        4.5364     1.05734     3.47909
    2          C           0.339206        3.6608     1.13243     2.52837
    3          C          -0.051814        4.0518     1.15571     2.89610
    4          C          -0.106046        4.1060     1.08561     3.02043
    5          O          -0.341740        6.3417     1.88358     4.45816
    6          C           0.045432        3.9546     1.11065     2.84391
    7          C          -0.022957        4.0230     1.09055     2.93241
    8          O          -0.500038        6.5000     1.85124     4.64880
    9          C          -0.420666        4.4207     1.07370     3.34697
   10          H           0.239143        0.7609     0.76086
   11          H           0.208678        0.7913     0.79132
   12          H           0.228760        0.7712     0.77124
   13          H           0.203439        0.7966     0.79656
   14          H           0.213747        0.7863     0.78625
   15          H           0.230947        0.7691     0.76905
   16          H           0.163225        0.8368     0.83677
   17          H           0.152032        0.8480     0.84797
   18          H           0.165623        0.8344     0.83438
   19          H           0.326822        0.6732     0.67318
   20          H           0.229738        0.7703     0.77026
   21          H           0.232889        0.7671     0.76711
 DIPOLE           X         Y         Z       TOTAL
 POINT-CHG.    -7.303    -1.795     2.007     7.783
 HYBRID        -0.269     0.186     0.106     0.344
 SUM           -7.572    -1.610     2.114     8.024


          ATOMIC ORBITAL ELECTRON POPULATIONS

     Atom    s        px        py        pz   
    1  C   1.05734   1.09626   1.14938   1.23344
    2  C   1.13243   0.95958   0.87223   0.69655
    3  C   1.15571   0.98822   0.98168   0.92620
    4  C   1.08561   0.94776   1.04591   1.02676
    5  O   1.88358   1.58179   1.36746   1.50892
    6  C   1.11065   0.93758   0.78277   1.12356
    7  C   1.09055   0.82240   1.13599   0.97401
    8  O   1.85124   1.41536   1.40655   1.82688
    9  C   1.07370   1.02833   1.15668   1.16196
   10  H   0.76086
   11  H   0.79132
   12  H   0.77124
   13  H   0.79656
   14  H   0.78625
   15  H   0.76905
   16  H   0.83677
   17  H   0.84797
   18  H   0.83438
   19  H   0.67318
   20  H   0.77026
   21  H   0.76711


                    (SZ)    =    0.500000
                    (S**2)  =    0.752541


          ATOMIC ORBITAL SPIN POPULATIONS

    Atom   Total    s     px     py     pz   
         Atomic
    1  C  0.0069 -0.001 -0.005  0.006  0.007
    2  C  0.2718  0.003  0.014  0.065  0.190
    3  C  0.5579  0.012  0.216  0.069  0.261
    4  C  0.0024 -0.005  0.012 -0.015  0.011
    5  O  0.0125  0.001  0.007  0.002  0.003
    6  C  0.0002 -0.000  0.000  0.000  0.000
    7  C  0.0002  0.000  0.000 -0.000  0.000
    8  O  0.0001  0.000  0.000  0.000 -0.000
    9  C  0.0069 -0.002 -0.006  0.001  0.014
   10  H  0.0237  0.024
   11  H  0.0004  0.000
   12  H  0.0105  0.010
   13  H -0.0138 -0.014
   14  H  0.0515  0.051
   15  H  0.0336  0.034
   16  H -0.0003 -0.000
   17  H -0.0000 -0.000
   18  H  0.0000  0.000
   19  H -0.0000 -0.000
   20  H  0.0140  0.014
   21  H  0.0216  0.022

 **********************
 *                    *
 * JOB ENDED NORMALLY *
 *                    *
 **********************



 TOTAL JOB TIME:             1.73 SECONDS

 == MOPAC DONE ==
