 *******************************************************************************
 **                                                                           **
 **                              MOPAC v23.2                                  **
 **                                                                           **
 *******************************************************************************
 **          Digital Object Identifier (DOI): 10.5281/zenodo.6511958          **
 **    Visit the DOI location for information on how to cite this program.    **
 *******************************************************************************

                              PM7 CALCULATION RESULTS

 *******************************************************************************
 *  CALCULATION DONE: (MAX THREADS = 40)             Fri Sep 19 21:35:37 2025  *
 *  PM7        - The PM7 Hamiltonian to be used
 *
 *
 *
 *                 CHARGE ON SYSTEM = +1
 *
 *
 *
 *  1SCF       - DO 1 SCF AND THEN STOP 
 *  T=         - A TIME OF 172800.0 SECONDS REQUESTED
 *  DUMP=N     - RESTART FILE WRITTEN EVERY 7200.0 SECONDS REQUESTED
 *  RELSCF     - DEFAULT SCF CRITERION MULTIPLIED BY 0.0001
 *              (DEFAULT SCF CRITERION = 0.00010)
 *  GRADIENTS  - ALL GRADIENTS TO BE PRINTED
 *  DISP       - PRINT DISPERSION AND HYDROGEN BOND ENERGIES
 *******************************************************************************
PM7 1SCF GRADIENTS DISP RELSCF=0.0001 CHARGE=1
 Title: ASE calculation

   ATOM   CHEMICAL          X               Y               Z
  NUMBER   SYMBOL      (ANGSTROMS)     (ANGSTROMS)     (ANGSTROMS)

     1       C         -2.74012200  *  -0.21372548  *   1.19216485  *
     2       C         -2.89881872  *   0.92300914  *   0.44979939  *
     3       C         -1.76427070  *   1.01386178  *  -0.46495349  *
     4       N         -0.96278380  *  -0.09120453  *  -0.25744857  *
     5       C          0.29912648  *  -0.37197720  *  -0.96144766  *
     6       C          1.46219293  *   0.24973165  *  -0.22705797  *
     7       C          2.84945900  *  -0.30700415  *  -0.49131082  *
     8       C          2.19645693  *  -0.53715838  *   0.84148132  *
     9       C         -1.50186896  *  -0.85591820  *   0.75571239  *
    10       H         -3.38469451  *  -0.61050749  *   1.96684834  *
    11       H         -3.70040339  *   1.65046700  *   0.49121874  *
    12       H         -1.54914901  *   1.78858511  *  -1.19426985  *
    13       H          0.42232698  *  -1.48040024  *  -1.06778492  *
    14       H          0.23726240  *   0.03363612  *  -2.00517519  *
    15       H          1.36756667  *   1.33496098  *  -0.09433403  *
    16       H          2.99060858  *  -1.13579548  *  -1.18337743  *
    17       H          3.69246505  *   0.38322552  *  -0.57563723  *
    18       H          2.57236189  *  -0.01554040  *   1.72436081  *
    19       H          1.87283635  *  -1.53577327  *   1.12033632  *
    20       H         -1.05035764  *  -1.76871532  *   1.13050590  *



          CARTESIAN COORDINATES 

    NO.       ATOM           X           Y           Z

     1         C         -2.7401     -0.2137      1.1922
     2         C         -2.8988      0.9230      0.4498
     3         C         -1.7643      1.0139     -0.4650
     4         N         -0.9628     -0.0912     -0.2574
     5         C          0.2991     -0.3720     -0.9614
     6         C          1.4622      0.2497     -0.2271
     7         C          2.8495     -0.3070     -0.4913
     8         C          2.1965     -0.5372      0.8415
     9         C         -1.5019     -0.8559      0.7557
    10         H         -3.3847     -0.6105      1.9668
    11         H         -3.7004      1.6505      0.4912
    12         H         -1.5491      1.7886     -1.1943
    13         H          0.4223     -1.4804     -1.0678
    14         H          0.2373      0.0336     -2.0052
    15         H          1.3676      1.3350     -0.0943
    16         H          2.9906     -1.1358     -1.1834
    17         H          3.6925      0.3832     -0.5756
    18         H          2.5724     -0.0155      1.7244
    19         H          1.8728     -1.5358      1.1203
    20         H         -1.0504     -1.7687      1.1305

 General Reference for PM7:
 "Optimization of Parameters for Semiempirical Methods VI: More Modifications to the 
 NDDO Approximations and Re-optimization of Parameters", J. J. P. Stewart, J. Mol. Mod., 1:32, 19 (2013)
 https://link.springer.com/article/10.1007/s00894-012-1667-x

           Empirical Formula: C8 H11 N  =    20 atoms



      MOLECULAR POINT GROUP   :   C1  


          UHF CALCULATION, NO. OF ALPHA ELECTRONS =   24
                           NO. OF BETA  ELECTRONS =   23
  SCF CRITERION =    0.1000E-07

 -------------------------------------------------------------------------------
 PM7 1SCF GRADIENTS DISP RELSCF=0.0001 CHARGE=1
 Title: ASE calculation



     1SCF WAS SPECIFIED, SO BFGS WAS NOT USED                 
     SCF FIELD WAS ACHIEVED                                   


                              PM7 CALCULATION
                                                       MOPAC v23.2 Linux
                                                       Fri Sep 19 21:35:38 2025




          FINAL HEAT OF FORMATION =        229.81604 KCAL/MOL =     961.55033 KJ/MOL

          TOTAL ENERGY            =     -30162.21830 KCAL/MOL = ELECTRONIC ENERGY + CORE-CORE REPULSION
          ENERGY OF ATOMS         =      30394.11925 KCAL/MOL
                              SUM =        231.90096 KCAL/MOL
          DISPERSION ENERGY       =         -2.08491 KCAL/MOL
                              SUM =        229.81604 KCAL/MOL = FINAL HEAT OF FORMATION



          TOTAL ENERGY            =      -1307.95758 EV
          ELECTRONIC ENERGY       =      -6671.08094 EV 
          CORE-CORE REPULSION     =       5363.12336 EV
          COSMO AREA              =        172.49 SQUARE ANGSTROMS
          COSMO VOLUME            =        171.58 CUBIC ANGSTROMS

          GRADIENT NORM           =          1.08847          =       0.24339 PER ATOM
          IONIZATION POTENTIAL    =         15.106382 EV
          ALPHA SOMO LUMO (EV)    =        -15.106 -5.375
          BETA  SOMO LUMO (EV)    =        -15.227 -7.346
          NO. OF ALPHA ELECTRONS  =         24
          NO. OF BETA  ELECTRONS  =         23
          MOLECULAR WEIGHT        =        121.1816         POINT GROUP:  C1  

          MOLECULAR DIMENSIONS (Angstroms)

            Atom       Atom       Distance
            H    17    H    10     7.58538
            H    12    H    19     4.91862
            H    13    H    18     3.35445


          SCF CALCULATIONS        =          1

          WALL-CLOCK TIME         =      0.664 SECONDS
          COMPUTATION TIME        =      0.522 SECONDS

          LARGEST ATOMIC GRADIENTS

          Atom     Label                     Cartesian Gradients           Cartesian Coordinates       |Gradient|
                                           X          Y          Z        X          Y          Z

            15       H                   0.290     -0.220      0.007    1.36757    1.33496   -0.09433      0.364
             1       C                  -0.290     -0.006     -0.147   -2.74012   -0.21373    1.19216      0.325
            12       H                  -0.018      0.223      0.227   -1.54915    1.78859   -1.19427      0.318
             3       C                   0.038     -0.127      0.272   -1.76427    1.01386   -0.46495      0.302
            19       H                   0.146      0.093     -0.232    1.87284   -1.53577    1.12034      0.289
            20       H                  -0.079      0.083      0.251   -1.05036   -1.76872    1.13051      0.276
             9       C                  -0.052      0.267     -0.021   -1.50187   -0.85592    0.75571      0.273
            10       H                  -0.066      0.071     -0.247   -3.38469   -0.61051    1.96685      0.266
             2       C                  -0.218     -0.115     -0.087   -2.89882    0.92301    0.44980      0.261
            18       H                   0.194      0.091     -0.143    2.57236   -0.01554    1.72436      0.258



       FINAL  POINT  AND  DERIVATIVES

   PARAMETER     ATOM    TYPE            VALUE        GRADIENT
      1          1  C    CARTESIAN X    -2.740122     -0.289994  KCAL/ANGSTROM
      2          1  C    CARTESIAN Y    -0.213725     -0.005968  KCAL/ANGSTROM
      3          1  C    CARTESIAN Z     1.192165     -0.147267  KCAL/ANGSTROM
      4          2  C    CARTESIAN X    -2.898819     -0.217679  KCAL/ANGSTROM
      5          2  C    CARTESIAN Y     0.923009     -0.114508  KCAL/ANGSTROM
      6          2  C    CARTESIAN Z     0.449799     -0.086573  KCAL/ANGSTROM
      7          3  C    CARTESIAN X    -1.764271      0.037858  KCAL/ANGSTROM
      8          3  C    CARTESIAN Y     1.013862     -0.126626  KCAL/ANGSTROM
      9          3  C    CARTESIAN Z    -0.464953      0.271895  KCAL/ANGSTROM
     10          4  N    CARTESIAN X    -0.962784      0.089123  KCAL/ANGSTROM
     11          4  N    CARTESIAN Y    -0.091205     -0.016663  KCAL/ANGSTROM
     12          4  N    CARTESIAN Z    -0.257449      0.129999  KCAL/ANGSTROM
     13          5  C    CARTESIAN X     0.299126      0.204489  KCAL/ANGSTROM
     14          5  C    CARTESIAN Y    -0.371977     -0.142145  KCAL/ANGSTROM
     15          5  C    CARTESIAN Z    -0.961448     -0.062572  KCAL/ANGSTROM
     16          6  C    CARTESIAN X     1.462193     -0.013626  KCAL/ANGSTROM
     17          6  C    CARTESIAN Y     0.249732     -0.034679  KCAL/ANGSTROM
     18          6  C    CARTESIAN Z    -0.227058     -0.129077  KCAL/ANGSTROM
     19          7  C    CARTESIAN X     2.849459     -0.086464  KCAL/ANGSTROM
     20          7  C    CARTESIAN Y    -0.307004     -0.002746  KCAL/ANGSTROM
     21          7  C    CARTESIAN Z    -0.491311     -0.051139  KCAL/ANGSTROM
     22          8  C    CARTESIAN X     2.196457     -0.128392  KCAL/ANGSTROM
     23          8  C    CARTESIAN Y    -0.537158      0.115254  KCAL/ANGSTROM
     24          8  C    CARTESIAN Z     0.841481     -0.037507  KCAL/ANGSTROM
     25          9  C    CARTESIAN X    -1.501869     -0.051937  KCAL/ANGSTROM
     26          9  C    CARTESIAN Y    -0.855918      0.267078  KCAL/ANGSTROM
     27          9  C    CARTESIAN Z     0.755712     -0.020786  KCAL/ANGSTROM
     28         10  H    CARTESIAN X    -3.384695     -0.066490  KCAL/ANGSTROM
     29         10  H    CARTESIAN Y    -0.610507      0.071075  KCAL/ANGSTROM
     30         10  H    CARTESIAN Z     1.966848     -0.247443  KCAL/ANGSTROM
     31         11  H    CARTESIAN X    -3.700403     -0.008280  KCAL/ANGSTROM
     32         11  H    CARTESIAN Y     1.650467     -0.212234  KCAL/ANGSTROM
     33         11  H    CARTESIAN Z     0.491219     -0.024645  KCAL/ANGSTROM
     34         12  H    CARTESIAN X    -1.549149     -0.017895  KCAL/ANGSTROM
     35         12  H    CARTESIAN Y     1.788585      0.222594  KCAL/ANGSTROM
     36         12  H    CARTESIAN Z    -1.194270      0.226763  KCAL/ANGSTROM
     37         13  H    CARTESIAN X     0.422327      0.083733  KCAL/ANGSTROM
     38         13  H    CARTESIAN Y    -1.480400     -0.183079  KCAL/ANGSTROM
     39         13  H    CARTESIAN Z    -1.067785      0.094850  KCAL/ANGSTROM
     40         14  H    CARTESIAN X     0.237262     -0.012156  KCAL/ANGSTROM
     41         14  H    CARTESIAN Y     0.033636      0.182886  KCAL/ANGSTROM
     42         14  H    CARTESIAN Z    -2.005175      0.095915  KCAL/ANGSTROM
     43         15  H    CARTESIAN X     1.367567      0.289775  KCAL/ANGSTROM
     44         15  H    CARTESIAN Y     1.334961     -0.220372  KCAL/ANGSTROM
     45         15  H    CARTESIAN Z    -0.094334      0.006830  KCAL/ANGSTROM
     46         16  H    CARTESIAN X     2.990609     -0.042817  KCAL/ANGSTROM
     47         16  H    CARTESIAN Y    -1.135795      0.029631  KCAL/ANGSTROM
     48         16  H    CARTESIAN Z    -1.183377      0.113928  KCAL/ANGSTROM
     49         17  H    CARTESIAN X     3.692465     -0.030774  KCAL/ANGSTROM
     50         17  H    CARTESIAN Y     0.383226     -0.095817  KCAL/ANGSTROM
     51         17  H    CARTESIAN Z    -0.575637     -0.009910  KCAL/ANGSTROM
     52         18  H    CARTESIAN X     2.572362      0.194376  KCAL/ANGSTROM
     53         18  H    CARTESIAN Y    -0.015540      0.091008  KCAL/ANGSTROM
     54         18  H    CARTESIAN Z     1.724361     -0.142986  KCAL/ANGSTROM
     55         19  H    CARTESIAN X     1.872836      0.145936  KCAL/ANGSTROM
     56         19  H    CARTESIAN Y    -1.535773      0.092758  KCAL/ANGSTROM
     57         19  H    CARTESIAN Z     1.120336     -0.231569  KCAL/ANGSTROM
     58         20  H    CARTESIAN X    -1.050358     -0.078787  KCAL/ANGSTROM
     59         20  H    CARTESIAN Y    -1.768715      0.082549  KCAL/ANGSTROM
     60         20  H    CARTESIAN Z     1.130506      0.251289  KCAL/ANGSTROM




   ATOM   CHEMICAL          X               Y               Z
  NUMBER   SYMBOL      (ANGSTROMS)     (ANGSTROMS)     (ANGSTROMS)

     1       C         -2.74012200  *  -0.21372548  *   1.19216485  *
     2       C         -2.89881872  *   0.92300914  *   0.44979939  *
     3       C         -1.76427070  *   1.01386178  *  -0.46495349  *
     4       N         -0.96278380  *  -0.09120453  *  -0.25744857  *
     5       C          0.29912648  *  -0.37197720  *  -0.96144766  *
     6       C          1.46219293  *   0.24973165  *  -0.22705797  *
     7       C          2.84945900  *  -0.30700415  *  -0.49131082  *
     8       C          2.19645693  *  -0.53715838  *   0.84148132  *
     9       C         -1.50186896  *  -0.85591820  *   0.75571239  *
    10       H         -3.38469451  *  -0.61050749  *   1.96684834  *
    11       H         -3.70040339  *   1.65046700  *   0.49121874  *
    12       H         -1.54914901  *   1.78858511  *  -1.19426985  *
    13       H          0.42232698  *  -1.48040024  *  -1.06778492  *
    14       H          0.23726240  *   0.03363612  *  -2.00517519  *
    15       H          1.36756667  *   1.33496098  *  -0.09433403  *
    16       H          2.99060858  *  -1.13579548  *  -1.18337743  *
    17       H          3.69246505  *   0.38322552  *  -0.57563723  *
    18       H          2.57236189  *  -0.01554040  *   1.72436081  *
    19       H          1.87283635  *  -1.53577327  *   1.12033632  *
    20       H         -1.05035764  *  -1.76871532  *   1.13050590  *

                             CARTESIAN COORDINATES

   1    C       -2.740122000    -0.213725478     1.192164848
   2    C       -2.898818720     0.923009136     0.449799388
   3    C       -1.764270703     1.013861780    -0.464953489
   4    N       -0.962783795    -0.091204526    -0.257448570
   5    C        0.299126482    -0.371977201    -0.961447661
   6    C        1.462192930     0.249731649    -0.227057973
   7    C        2.849459001    -0.307004148    -0.491310823
   8    C        2.196456935    -0.537158381     0.841481317
   9    C       -1.501868957    -0.855918197     0.755712388
  10    H       -3.384694507    -0.610507495     1.966848343
  11    H       -3.700403386     1.650467002     0.491218743
  12    H       -1.549149011     1.788585108    -1.194269847
  13    H        0.422326978    -1.480400240    -1.067784917
  14    H        0.237262401     0.033636115    -2.005175195
  15    H        1.367566672     1.334960984    -0.094334025
  16    H        2.990608583    -1.135795479    -1.183377430
  17    H        3.692465052     0.383225517    -0.575637233
  18    H        2.572361895    -0.015540397     1.724360810
  19    H        1.872836353    -1.535773269     1.120336317
  20    H       -1.050357640    -1.768715322     1.130505904


           Empirical Formula: C8 H11 N  =    20 atoms



      MOLECULAR POINT GROUP   :   C1  


          ALPHA EIGENVALUES  
 -43.32256 -34.87388 -33.54035 -30.63032 -29.13132 -25.51360 -25.37552 -24.54598
 -24.18406 -23.09698 -21.08798 -20.64378 -20.27869 -19.65092 -19.13636 -18.97063
 -18.71903 -17.89441 -16.83671 -15.97028 -15.43833 -15.29344 -15.20243 -15.10638
  -5.37499  -4.27890  -3.86724  -2.08648  -1.58852  -1.41765  -1.04662  -0.77916
  -0.56470  -0.25386   0.21747   0.33030   0.34620   0.65509   0.76021   0.97746
   1.14730   1.25341   1.72496   2.22682   2.53041   2.84558   2.93855


           BETA EIGENVALUES 
 -43.57625 -34.85790 -33.53229 -30.37451 -29.14994 -25.42666 -25.29439 -24.53677
 -24.16857 -23.07305 -20.98332 -20.52049 -20.21400 -19.64056 -18.89653 -18.73106
 -18.57835 -17.85672 -16.74283 -15.97045 -15.55558 -15.24051 -15.22729  -7.34645
  -4.26511  -3.86242  -3.65541  -1.98787  -1.47695  -1.40533  -0.96692  -0.76265
  -0.56504  -0.18319   0.22387   0.38328   0.44195   0.65240   0.75963   0.97276
   1.15694   1.26967   1.72395   2.22659   2.53039   2.84551   2.93842


              NET ATOMIC CHARGES AND DIPOLE CONTRIBUTIONS

  ATOM NO.   TYPE          CHARGE      No. of ELECS.   s-Pop       p-Pop       
    1          C          -0.140565        4.1406     1.10756     3.03300
    2          C          -0.140626        4.1406     1.10697     3.03365
    3          C           0.123655        3.8763     1.14808     2.72827
    4          N          -0.192525        5.1925     1.53386     3.65867
    5          C          -0.099324        4.0993     1.08006     3.01927
    6          C          -0.241516        4.2415     1.04810     3.19342
    7          C          -0.258531        4.2585     1.05651     3.20202
    8          C          -0.299774        4.2998     1.05498     3.24479
    9          C           0.128515        3.8715     1.14789     2.72359
   10          H           0.219965        0.7800     0.78004
   11          H           0.220248        0.7798     0.77975
   12          H           0.216261        0.7837     0.78374
   13          H           0.185266        0.8147     0.81473
   14          H           0.187385        0.8126     0.81261
   15          H           0.177252        0.8227     0.82275
   16          H           0.171645        0.8284     0.82835
   17          H           0.185398        0.8146     0.81460
   18          H           0.182091        0.8179     0.81791
   19          H           0.160605        0.8394     0.83940
   20          H           0.214576        0.7854     0.78542
 DIPOLE           X         Y         Z       TOTAL
 POINT-CHG.    -3.402     0.065    -0.379     3.424
 HYBRID         0.019    -0.099    -0.221     0.243
 SUM           -3.383    -0.034    -0.600     3.436


          ATOMIC ORBITAL ELECTRON POPULATIONS

     Atom    s        px        py        pz   
    1  C   1.10756   0.99322   0.99118   1.04861
    2  C   1.10697   1.02643   1.04317   0.96405
    3  C   1.14808   0.88633   0.88193   0.96001
    4  N   1.53386   1.20808   1.19402   1.25657
    5  C   1.08006   0.81268   1.15983   1.04676
    6  C   1.04810   0.96847   1.09568   1.12927
    7  C   1.05651   0.99640   1.15068   1.05494
    8  C   1.05498   1.09762   1.12978   1.01739
    9  C   1.14789   0.93494   0.96967   0.81898
   10  H   0.78004
   11  H   0.77975
   12  H   0.78374
   13  H   0.81473
   14  H   0.81261
   15  H   0.82275
   16  H   0.82835
   17  H   0.81460
   18  H   0.81791
   19  H   0.83940
   20  H   0.78542


                    (SZ)    =    0.500000
                    (S**2)  =    0.792444


          ATOMIC ORBITAL SPIN POPULATIONS

    Atom   Total    s     px     py     pz   
         Atomic
    1  C  0.0517 -0.001  0.009  0.014  0.030
    2  C  0.0372 -0.002  0.007  0.013  0.018
    3  C  0.5830  0.014  0.157  0.149  0.263
    4  N -0.2135 -0.012 -0.054 -0.061 -0.087
    5  C  0.0119  0.001  0.006  0.001  0.003
    6  C -0.0082 -0.001 -0.004 -0.001 -0.001
    7  C  0.0002  0.000  0.000  0.000 -0.000
    8  C  0.0006  0.000  0.000  0.000  0.000
    9  C  0.5763  0.014  0.151  0.162  0.248
   10  H -0.0017 -0.002
   11  H -0.0013 -0.001
   12  H -0.0159 -0.016
   13  H -0.0023 -0.002
   14  H -0.0021 -0.002
   15  H  0.0002  0.000
   16  H -0.0000 -0.000
   17  H -0.0001 -0.000
   18  H -0.0001 -0.000
   19  H -0.0001 -0.000
   20  H -0.0158 -0.016

 **********************
 *                    *
 * JOB ENDED NORMALLY *
 *                    *
 **********************



 TOTAL JOB TIME:             0.95 SECONDS

 == MOPAC DONE ==
